 Entering Gaussian System, Link 0=g09
 Input=/home/png4rjv/fotokatalizis/benchmark/OPCs/BOH-Acr_o_B97D3_def2TZVP.gjf
 Output=/home/png4rjv/fotokatalizis/benchmark/OPCs/BOH-Acr_o_B97D3_def2TZVP.log
 Initial command:
 /opt/nce/packages/global/g09/l1.exe "/home/png4rjv/fotokatalizis/benchmark/OPCs/BOH-Acr_o_B97D3_def2TZVP/Gau-54589.inp" -scrdir="/home/png4rjv/fotokatalizis/benchmark/OPCs/BOH-Acr_o_B97D3_def2TZVP/"
 Default is to use a total of  12 processors:
                               12 via shared-memory
                                1 via Linda
 Entering Link 1 = /opt/nce/packages/global/g09/l1.exe PID=     54590.
  
 Copyright (c) 1988,1990,1992,1993,1995,1998,2003,2009,2015,
            Gaussian, Inc.  All Rights Reserved.
  
 This is part of the Gaussian(R) 09 program.  It is based on
 the Gaussian(R) 03 system (copyright 2003, Gaussian, Inc.),
 the Gaussian(R) 98 system (copyright 1998, Gaussian, Inc.),
 the Gaussian(R) 94 system (copyright 1995, Gaussian, Inc.),
 the Gaussian 92(TM) system (copyright 1992, Gaussian, Inc.),
 the Gaussian 90(TM) system (copyright 1990, Gaussian, Inc.),
 the Gaussian 88(TM) system (copyright 1988, Gaussian, Inc.),
 the Gaussian 86(TM) system (copyright 1986, Carnegie Mellon
 University), and the Gaussian 82(TM) system (copyright 1983,
 Carnegie Mellon University). Gaussian is a federally registered
 trademark of Gaussian, Inc.
  
 This software contains proprietary and confidential information,
 including trade secrets, belonging to Gaussian, Inc.
  
 This software is provided under written license and may be
 used, copied, transmitted, or stored only in accord with that
 written license.
  
 The following legend is applicable only to US Government
 contracts under FAR:
  
                    RESTRICTED RIGHTS LEGEND
  
 Use, reproduction and disclosure by the US Government is
 subject to restrictions as set forth in subparagraphs (a)
 and (c) of the Commercial Computer Software - Restricted
 Rights clause in FAR 52.227-19.
  
 Gaussian, Inc.
 340 Quinnipiac St., Bldg. 40, Wallingford CT 06492
  
  
 ---------------------------------------------------------------
 Warning -- This program may not be used in any manner that
 competes with the business of Gaussian, Inc. or will provide
 assistance to any competitor of Gaussian, Inc.  The licensee
 of this program is prohibited from giving any competitor of
 Gaussian, Inc. access to this program.  By using this program,
 the user acknowledges that Gaussian, Inc. is engaged in the
 business of creating and licensing software in the field of
 computational chemistry and represents and warrants to the
 licensee that it is not a competitor of Gaussian, Inc. and that
 it will not use this program in any manner prohibited above.
 ---------------------------------------------------------------
  

 Cite this work as:
 Gaussian 09, Revision E.01,
 M. J. Frisch, G. W. Trucks, H. B. Schlegel, G. E. Scuseria, 
 M. A. Robb, J. R. Cheeseman, G. Scalmani, V. Barone, B. Mennucci, 
 G. A. Petersson, H. Nakatsuji, M. Caricato, X. Li, H. P. Hratchian, 
 A. F. Izmaylov, J. Bloino, G. Zheng, J. L. Sonnenberg, M. Hada, 
 M. Ehara, K. Toyota, R. Fukuda, J. Hasegawa, M. Ishida, T. Nakajima, 
 Y. Honda, O. Kitao, H. Nakai, T. Vreven, J. A. Montgomery, Jr., 
 J. E. Peralta, F. Ogliaro, M. Bearpark, J. J. Heyd, E. Brothers, 
 K. N. Kudin, V. N. Staroverov, T. Keith, R. Kobayashi, J. Normand, 
 K. Raghavachari, A. Rendell, J. C. Burant, S. S. Iyengar, J. Tomasi, 
 M. Cossi, N. Rega, J. M. Millam, M. Klene, J. E. Knox, J. B. Cross, 
 V. Bakken, C. Adamo, J. Jaramillo, R. Gomperts, R. E. Stratmann, 
 O. Yazyev, A. J. Austin, R. Cammi, C. Pomelli, J. W. Ochterski, 
 R. L. Martin, K. Morokuma, V. G. Zakrzewski, G. A. Voth, 
 P. Salvador, J. J. Dannenberg, S. Dapprich, A. D. Daniels, 
 O. Farkas, J. B. Foresman, J. V. Ortiz, J. Cioslowski, 
 and D. J. Fox, Gaussian, Inc., Wallingford CT, 2013.
 
 ******************************************
 Gaussian 09:  ES64L-G09RevE.01 30-Nov-2015
                29-Mar-2021 
 ******************************************
 %chk=cp.chk
 Default route:  MaxDisk=500GB
 ----------------------------------------------------------------------
 #p B97D3/def2TZVP opt freq=noraman nosymm int=ultrafine scrf=(SMD,solv
 ent=Acetonitrile)
 ----------------------------------------------------------------------
 1/14=-1,18=20,19=15,26=4,38=1/1,3;
 2/9=110,12=2,15=1,17=6,18=5,40=1/2;
 3/5=44,7=101,11=2,16=1,25=1,30=1,70=32201,71=1,72=2,74=-59,75=-5/1,2,3;
 4//1;
 5/5=2,38=5,53=2/2;
 6/7=2,8=2,9=2,10=2,28=1/1;
 7/30=1/1,2,3,16;
 1/14=-1,18=20,19=15,26=4/3(2);
 2/9=110,15=1/2;
 99//99;
 2/9=110,15=1/2;
 3/5=44,7=101,11=2,16=1,25=1,30=1,70=32205,71=1,72=2,74=-59,75=-5/1,2,3;
 4/5=5,16=3,69=1/1;
 5/5=2,38=5,53=2/2;
 7/30=1/1,2,3,16;
 1/14=-1,18=20,19=15,26=4/3(-5);
 2/9=110,15=1/2;
 6/7=2,8=2,9=2,10=2,19=2,28=1/1;
 99/9=1/99;
 Leave Link    1 at Mon Mar 29 11:45:50 2021, MaxMem=           0 cpu:         0.8
 (Enter /opt/nce/packages/global/g09/l101.exe)
 -----
 Title
 -----
 Symbolic Z-matrix:
 Charge =  1 Multiplicity = 1
 C                    -0.6469    3.72165   0.38323 
 C                    -1.27504   2.51563   0.154 
 C                    -0.503     1.3544   -0.10022 
 C                     0.92966   1.44814  -0.13535 
 C                     1.53448   2.7162    0.13158 
 C                     0.7667    3.82729   0.38241 
 C                     1.70098   0.28815  -0.3948 
 C                     1.04339  -0.94526  -0.62123 
 C                    -0.38954  -1.00783  -0.55451 
 C                    -1.0479   -2.24559  -0.7564 
 H                    -2.13284  -2.2954   -0.69789 
 C                    -0.30957  -3.37821  -1.0293 
 C                     1.10345  -3.3305   -1.12502 
 C                     1.76224  -2.14143  -0.92954 
 H                    -1.25327   4.60885   0.57803 
 H                    -2.36054   2.4475    0.16987 
 H                     2.62181   2.7823    0.13272 
 H                     1.24008   4.78962   0.584 
 H                    -0.82838  -4.32677  -1.1839 
 H                     1.66386  -4.23673  -1.36013 
 H                     2.84672  -2.09237  -1.01077 
 N                    -1.10962   0.1366   -0.29846 
 C                     3.18437   0.35429  -0.41315 
 C                     3.93742  -0.31087   0.58451 
 C                     3.8242    1.04051  -1.45757 
 C                     5.33795  -0.2696    0.48442 
 C                     5.21789   1.06701  -1.52792 
 C                     5.97625   0.41115  -0.55492 
 H                     5.70965   1.59408  -2.34828 
 H                     3.22812   1.53382  -2.22875 
 C                    -2.55496   0.05535  -0.23479 
 C                    -3.17854  -0.2025    0.98376 
 C                    -3.3105    0.23534  -1.39981 
 C                    -4.57076  -0.28339   1.05296 
 H                    -2.57734  -0.3428    1.88446 
 C                    -4.69432   0.15667  -1.33753 
 H                    -2.81057   0.43592  -2.34949 
 C                    -5.34108  -0.10364  -0.11106 
 H                    -5.04342  -0.48612   2.01281 
 H                    -5.30996   0.29248  -2.22779 
 O                    -6.67877  -0.1611   -0.15255 
 C                    -7.4114   -0.41961   1.03379 
 H                    -8.47005  -0.41808   0.74812 
 H                    -7.15189  -1.4038    1.45942 
 H                    -7.23882   0.36393   1.79104 
 H                     7.06693   0.42788  -0.60856 
 B                     3.26961  -1.05255   1.80739 
 O                     2.17837  -0.56384   2.47447 
 O                     3.80783  -2.23037   2.20333 
 H                     1.9285    0.33326   2.22617 
 H                     3.38389  -2.59384   2.99364 
 H                     5.93466  -0.78462   1.24044 
 
 NAtoms=     52 NQM=       52 NQMF=       0 NMMI=      0 NMMIF=      0
                NMic=       0 NMicF=      0.
                    Isotopes and Nuclear Properties:
 (Nuclear quadrupole moments (NQMom) in fm**2, nuclear magnetic moments (NMagM)
  in nuclear magnetons)

  Atom         1           2           3           4           5           6           7           8           9          10
 IAtWgt=          12          12          12          12          12          12          12          12          12          12
 AtmWgt=  12.0000000  12.0000000  12.0000000  12.0000000  12.0000000  12.0000000  12.0000000  12.0000000  12.0000000  12.0000000
 NucSpn=           0           0           0           0           0           0           0           0           0           0
 AtZEff=   0.0000000   0.0000000   0.0000000   0.0000000   0.0000000   0.0000000   0.0000000   0.0000000   0.0000000   0.0000000
 NQMom=    0.0000000   0.0000000   0.0000000   0.0000000   0.0000000   0.0000000   0.0000000   0.0000000   0.0000000   0.0000000
 NMagM=    0.0000000   0.0000000   0.0000000   0.0000000   0.0000000   0.0000000   0.0000000   0.0000000   0.0000000   0.0000000
 AtZNuc=   6.0000000   6.0000000   6.0000000   6.0000000   6.0000000   6.0000000   6.0000000   6.0000000   6.0000000   6.0000000

  Atom        11          12          13          14          15          16          17          18          19          20
 IAtWgt=           1          12          12          12           1           1           1           1           1           1
 AtmWgt=   1.0078250  12.0000000  12.0000000  12.0000000   1.0078250   1.0078250   1.0078250   1.0078250   1.0078250   1.0078250
 NucSpn=           1           0           0           0           1           1           1           1           1           1
 AtZEff=   0.0000000   0.0000000   0.0000000   0.0000000   0.0000000   0.0000000   0.0000000   0.0000000   0.0000000   0.0000000
 NQMom=    0.0000000   0.0000000   0.0000000   0.0000000   0.0000000   0.0000000   0.0000000   0.0000000   0.0000000   0.0000000
 NMagM=    2.7928460   0.0000000   0.0000000   0.0000000   2.7928460   2.7928460   2.7928460   2.7928460   2.7928460   2.7928460
 AtZNuc=   1.0000000   6.0000000   6.0000000   6.0000000   1.0000000   1.0000000   1.0000000   1.0000000   1.0000000   1.0000000

  Atom        21          22          23          24          25          26          27          28          29          30
 IAtWgt=           1          14          12          12          12          12          12          12           1           1
 AtmWgt=   1.0078250  14.0030740  12.0000000  12.0000000  12.0000000  12.0000000  12.0000000  12.0000000   1.0078250   1.0078250
 NucSpn=           1           2           0           0           0           0           0           0           1           1
 AtZEff=   0.0000000   0.0000000   0.0000000   0.0000000   0.0000000   0.0000000   0.0000000   0.0000000   0.0000000   0.0000000
 NQMom=    0.0000000   2.0440000   0.0000000   0.0000000   0.0000000   0.0000000   0.0000000   0.0000000   0.0000000   0.0000000
 NMagM=    2.7928460   0.4037610   0.0000000   0.0000000   0.0000000   0.0000000   0.0000000   0.0000000   2.7928460   2.7928460
 AtZNuc=   1.0000000   7.0000000   6.0000000   6.0000000   6.0000000   6.0000000   6.0000000   6.0000000   1.0000000   1.0000000

  Atom        31          32          33          34          35          36          37          38          39          40
 IAtWgt=          12          12          12          12           1          12           1          12           1           1
 AtmWgt=  12.0000000  12.0000000  12.0000000  12.0000000   1.0078250  12.0000000   1.0078250  12.0000000   1.0078250   1.0078250
 NucSpn=           0           0           0           0           1           0           1           0           1           1
 AtZEff=   0.0000000   0.0000000   0.0000000   0.0000000   0.0000000   0.0000000   0.0000000   0.0000000   0.0000000   0.0000000
 NQMom=    0.0000000   0.0000000   0.0000000   0.0000000   0.0000000   0.0000000   0.0000000   0.0000000   0.0000000   0.0000000
 NMagM=    0.0000000   0.0000000   0.0000000   0.0000000   2.7928460   0.0000000   2.7928460   0.0000000   2.7928460   2.7928460
 AtZNuc=   6.0000000   6.0000000   6.0000000   6.0000000   1.0000000   6.0000000   1.0000000   6.0000000   1.0000000   1.0000000

  Atom        41          42          43          44          45          46          47          48          49          50
 IAtWgt=          16          12           1           1           1           1          11          16          16           1
 AtmWgt=  15.9949146  12.0000000   1.0078250   1.0078250   1.0078250   1.0078250  11.0093053  15.9949146  15.9949146   1.0078250
 NucSpn=           0           0           1           1           1           1           3           0           0           1
 AtZEff=   0.0000000   0.0000000   0.0000000   0.0000000   0.0000000   0.0000000   0.0000000   0.0000000   0.0000000   0.0000000
 NQMom=    0.0000000   0.0000000   0.0000000   0.0000000   0.0000000   0.0000000   4.0590000   0.0000000   0.0000000   0.0000000
 NMagM=    0.0000000   0.0000000   2.7928460   2.7928460   2.7928460   2.7928460   2.6886370   0.0000000   0.0000000   2.7928460
 AtZNuc=   8.0000000   6.0000000   1.0000000   1.0000000   1.0000000   1.0000000   5.0000000   8.0000000   8.0000000   1.0000000

  Atom        51          52
 IAtWgt=           1           1
 AtmWgt=   1.0078250   1.0078250
 NucSpn=           1           1
 AtZEff=   0.0000000   0.0000000
 NQMom=    0.0000000   0.0000000
 NMagM=    2.7928460   2.7928460
 AtZNuc=   1.0000000   1.0000000
 Leave Link  101 at Mon Mar 29 11:45:51 2021, MaxMem=  5242880000 cpu:         4.3
 (Enter /opt/nce/packages/global/g09/l103.exe)

 GradGradGradGradGradGradGradGradGradGradGradGradGradGradGradGradGradGrad
 Berny optimization.
 Initialization pass.
                           ----------------------------
                           !    Initial Parameters    !
                           ! (Angstroms and Degrees)  !
 --------------------------                            --------------------------
 ! Name  Definition              Value          Derivative Info.                !
 --------------------------------------------------------------------------------
 ! R1    R(1,2)                  1.379          estimate D2E/DX2                !
 ! R2    R(1,6)                  1.4175         estimate D2E/DX2                !
 ! R3    R(1,15)                 1.0921         estimate D2E/DX2                !
 ! R4    R(2,3)                  1.4174         estimate D2E/DX2                !
 ! R5    R(2,16)                 1.0877         estimate D2E/DX2                !
 ! R6    R(3,4)                  1.4361         estimate D2E/DX2                !
 ! R7    R(3,22)                 1.3749         estimate D2E/DX2                !
 ! R8    R(4,5)                  1.43           estimate D2E/DX2                !
 ! R9    R(4,7)                  1.417          estimate D2E/DX2                !
 ! R10   R(5,6)                  1.3737         estimate D2E/DX2                !
 ! R11   R(5,17)                 1.0893         estimate D2E/DX2                !
 ! R12   R(6,18)                 1.0912         estimate D2E/DX2                !
 ! R13   R(7,8)                  1.416          estimate D2E/DX2                !
 ! R14   R(7,23)                 1.485          estimate D2E/DX2                !
 ! R15   R(8,9)                  1.4358         estimate D2E/DX2                !
 ! R16   R(8,14)                 1.4292         estimate D2E/DX2                !
 ! R17   R(9,10)                 1.4164         estimate D2E/DX2                !
 ! R18   R(9,22)                 1.3762         estimate D2E/DX2                !
 ! R19   R(10,11)                1.0877         estimate D2E/DX2                !
 ! R20   R(10,12)                1.3793         estimate D2E/DX2                !
 ! R21   R(12,13)                1.4171         estimate D2E/DX2                !
 ! R22   R(12,19)                1.0922         estimate D2E/DX2                !
 ! R23   R(13,14)                1.3734         estimate D2E/DX2                !
 ! R24   R(13,20)                1.0911         estimate D2E/DX2                !
 ! R25   R(14,21)                1.0886         estimate D2E/DX2                !
 ! R26   R(22,31)                1.449          estimate D2E/DX2                !
 ! R27   R(23,24)                1.4159         estimate D2E/DX2                !
 ! R28   R(23,25)                1.404          estimate D2E/DX2                !
 ! R29   R(24,26)                1.4047         estimate D2E/DX2                !
 ! R30   R(24,47)                1.5784         estimate D2E/DX2                !
 ! R31   R(25,27)                1.3957         estimate D2E/DX2                !
 ! R32   R(25,30)                1.0924         estimate D2E/DX2                !
 ! R33   R(26,28)                1.3968         estimate D2E/DX2                !
 ! R34   R(26,52)                1.0922         estimate D2E/DX2                !
 ! R35   R(27,28)                1.3971         estimate D2E/DX2                !
 ! R36   R(27,29)                1.0921         estimate D2E/DX2                !
 ! R37   R(28,46)                1.0921         estimate D2E/DX2                !
 ! R38   R(31,32)                1.3929         estimate D2E/DX2                !
 ! R39   R(31,33)                1.4002         estimate D2E/DX2                !
 ! R40   R(32,34)                1.3963         estimate D2E/DX2                !
 ! R41   R(32,35)                1.092          estimate D2E/DX2                !
 ! R42   R(33,36)                1.3875         estimate D2E/DX2                !
 ! R43   R(33,37)                1.0918         estimate D2E/DX2                !
 ! R44   R(34,38)                1.4074         estimate D2E/DX2                !
 ! R45   R(34,39)                1.089          estimate D2E/DX2                !
 ! R46   R(36,38)                1.4108         estimate D2E/DX2                !
 ! R47   R(36,40)                1.0909         estimate D2E/DX2                !
 ! R48   R(38,41)                1.3396         estimate D2E/DX2                !
 ! R49   R(41,42)                1.4181         estimate D2E/DX2                !
 ! R50   R(42,43)                1.0965         estimate D2E/DX2                !
 ! R51   R(42,44)                1.1032         estimate D2E/DX2                !
 ! R52   R(42,45)                1.1032         estimate D2E/DX2                !
 ! R53   R(47,48)                1.3692         estimate D2E/DX2                !
 ! R54   R(47,49)                1.3541         estimate D2E/DX2                !
 ! R55   R(48,50)                0.9638         estimate D2E/DX2                !
 ! R56   R(49,51)                0.9677         estimate D2E/DX2                !
 ! A1    A(2,1,6)              121.2867         estimate D2E/DX2                !
 ! A2    A(2,1,15)             119.1573         estimate D2E/DX2                !
 ! A3    A(6,1,15)             119.5535         estimate D2E/DX2                !
 ! A4    A(1,2,3)              119.881          estimate D2E/DX2                !
 ! A5    A(1,2,16)             120.4587         estimate D2E/DX2                !
 ! A6    A(3,2,16)             119.6601         estimate D2E/DX2                !
 ! A7    A(2,3,4)              119.6216         estimate D2E/DX2                !
 ! A8    A(2,3,22)             120.7428         estimate D2E/DX2                !
 ! A9    A(4,3,22)             119.6315         estimate D2E/DX2                !
 ! A10   A(3,4,5)              118.3734         estimate D2E/DX2                !
 ! A11   A(3,4,7)              119.6084         estimate D2E/DX2                !
 ! A12   A(5,4,7)              121.9961         estimate D2E/DX2                !
 ! A13   A(4,5,6)              120.9927         estimate D2E/DX2                !
 ! A14   A(4,5,17)             118.4352         estimate D2E/DX2                !
 ! A15   A(6,5,17)             120.5721         estimate D2E/DX2                !
 ! A16   A(1,6,5)              119.8151         estimate D2E/DX2                !
 ! A17   A(1,6,18)             119.8817         estimate D2E/DX2                !
 ! A18   A(5,6,18)             120.3029         estimate D2E/DX2                !
 ! A19   A(4,7,8)              119.3121         estimate D2E/DX2                !
 ! A20   A(4,7,23)             120.6347         estimate D2E/DX2                !
 ! A21   A(8,7,23)             120.0485         estimate D2E/DX2                !
 ! A22   A(7,8,9)              119.6036         estimate D2E/DX2                !
 ! A23   A(7,8,14)             122.0016         estimate D2E/DX2                !
 ! A24   A(9,8,14)             118.3922         estimate D2E/DX2                !
 ! A25   A(8,9,10)             119.6914         estimate D2E/DX2                !
 ! A26   A(8,9,22)             119.6432         estimate D2E/DX2                !
 ! A27   A(10,9,22)            120.6652         estimate D2E/DX2                !
 ! A28   A(9,10,11)            119.7363         estimate D2E/DX2                !
 ! A29   A(9,10,12)            119.7999         estimate D2E/DX2                !
 ! A30   A(11,10,12)           120.4636         estimate D2E/DX2                !
 ! A31   A(10,12,13)           121.2982         estimate D2E/DX2                !
 ! A32   A(10,12,19)           119.1383         estimate D2E/DX2                !
 ! A33   A(13,12,19)           119.5607         estimate D2E/DX2                !
 ! A34   A(12,13,14)           119.8584         estimate D2E/DX2                !
 ! A35   A(12,13,20)           119.9162         estimate D2E/DX2                !
 ! A36   A(14,13,20)           120.2241         estimate D2E/DX2                !
 ! A37   A(8,14,13)            120.9352         estimate D2E/DX2                !
 ! A38   A(8,14,21)            118.6489         estimate D2E/DX2                !
 ! A39   A(13,14,21)           120.4155         estimate D2E/DX2                !
 ! A40   A(3,22,9)             122.1785         estimate D2E/DX2                !
 ! A41   A(3,22,31)            118.9089         estimate D2E/DX2                !
 ! A42   A(9,22,31)            118.9126         estimate D2E/DX2                !
 ! A43   A(7,23,24)            120.1088         estimate D2E/DX2                !
 ! A44   A(7,23,25)            119.0916         estimate D2E/DX2                !
 ! A45   A(24,23,25)           120.7568         estimate D2E/DX2                !
 ! A46   A(23,24,26)           117.7911         estimate D2E/DX2                !
 ! A47   A(23,24,47)           122.7926         estimate D2E/DX2                !
 ! A48   A(26,24,47)           119.3955         estimate D2E/DX2                !
 ! A49   A(23,25,27)           120.1223         estimate D2E/DX2                !
 ! A50   A(23,25,30)           119.8146         estimate D2E/DX2                !
 ! A51   A(27,25,30)           120.047          estimate D2E/DX2                !
 ! A52   A(24,26,28)           121.5303         estimate D2E/DX2                !
 ! A53   A(24,26,52)           118.7862         estimate D2E/DX2                !
 ! A54   A(28,26,52)           119.6835         estimate D2E/DX2                !
 ! A55   A(25,27,28)           119.8672         estimate D2E/DX2                !
 ! A56   A(25,27,29)           119.7799         estimate D2E/DX2                !
 ! A57   A(28,27,29)           120.3511         estimate D2E/DX2                !
 ! A58   A(26,28,27)           119.9299         estimate D2E/DX2                !
 ! A59   A(26,28,46)           120.0246         estimate D2E/DX2                !
 ! A60   A(27,28,46)           120.0452         estimate D2E/DX2                !
 ! A61   A(22,31,32)           119.6936         estimate D2E/DX2                !
 ! A62   A(22,31,33)           119.6344         estimate D2E/DX2                !
 ! A63   A(32,31,33)           120.672          estimate D2E/DX2                !
 ! A64   A(31,32,34)           120.0305         estimate D2E/DX2                !
 ! A65   A(31,32,35)           119.9269         estimate D2E/DX2                !
 ! A66   A(34,32,35)           120.0425         estimate D2E/DX2                !
 ! A67   A(31,33,36)           119.574          estimate D2E/DX2                !
 ! A68   A(31,33,37)           120.0176         estimate D2E/DX2                !
 ! A69   A(36,33,37)           120.4084         estimate D2E/DX2                !
 ! A70   A(32,34,38)           119.8257         estimate D2E/DX2                !
 ! A71   A(32,34,39)           119.1607         estimate D2E/DX2                !
 ! A72   A(38,34,39)           121.0135         estimate D2E/DX2                !
 ! A73   A(33,36,38)           120.4462         estimate D2E/DX2                !
 ! A74   A(33,36,40)           121.2771         estimate D2E/DX2                !
 ! A75   A(38,36,40)           118.2767         estimate D2E/DX2                !
 ! A76   A(34,38,36)           119.4515         estimate D2E/DX2                !
 ! A77   A(34,38,41)           124.522          estimate D2E/DX2                !
 ! A78   A(36,38,41)           116.0265         estimate D2E/DX2                !
 ! A79   A(38,41,42)           119.8557         estimate D2E/DX2                !
 ! A80   A(41,42,43)           106.2951         estimate D2E/DX2                !
 ! A81   A(41,42,44)           111.3366         estimate D2E/DX2                !
 ! A82   A(41,42,45)           111.3417         estimate D2E/DX2                !
 ! A83   A(43,42,44)           109.2            estimate D2E/DX2                !
 ! A84   A(43,42,45)           109.1991         estimate D2E/DX2                !
 ! A85   A(44,42,45)           109.3887         estimate D2E/DX2                !
 ! A86   A(24,47,48)           123.1579         estimate D2E/DX2                !
 ! A87   A(24,47,49)           117.8437         estimate D2E/DX2                !
 ! A88   A(48,47,49)           118.9979         estimate D2E/DX2                !
 ! A89   A(47,48,50)           114.4153         estimate D2E/DX2                !
 ! A90   A(47,49,51)           113.0398         estimate D2E/DX2                !
 ! D1    D(6,1,2,3)             -0.5642         estimate D2E/DX2                !
 ! D2    D(6,1,2,16)           179.2407         estimate D2E/DX2                !
 ! D3    D(15,1,2,3)          -179.9901         estimate D2E/DX2                !
 ! D4    D(15,1,2,16)           -0.1852         estimate D2E/DX2                !
 ! D5    D(2,1,6,5)              0.8933         estimate D2E/DX2                !
 ! D6    D(2,1,6,18)          -178.9156         estimate D2E/DX2                !
 ! D7    D(15,1,6,5)          -179.683          estimate D2E/DX2                !
 ! D8    D(15,1,6,18)            0.508          estimate D2E/DX2                !
 ! D9    D(1,2,3,4)             -0.8661         estimate D2E/DX2                !
 ! D10   D(1,2,3,22)           178.3895         estimate D2E/DX2                !
 ! D11   D(16,2,3,4)           179.3275         estimate D2E/DX2                !
 ! D12   D(16,2,3,22)           -1.4169         estimate D2E/DX2                !
 ! D13   D(2,3,4,5)              1.9306         estimate D2E/DX2                !
 ! D14   D(2,3,4,7)           -179.7489         estimate D2E/DX2                !
 ! D15   D(22,3,4,5)          -177.3333         estimate D2E/DX2                !
 ! D16   D(22,3,4,7)             0.9871         estimate D2E/DX2                !
 ! D17   D(2,3,22,9)           179.639          estimate D2E/DX2                !
 ! D18   D(2,3,22,31)           -0.4025         estimate D2E/DX2                !
 ! D19   D(4,3,22,9)            -1.1055         estimate D2E/DX2                !
 ! D20   D(4,3,22,31)          178.853          estimate D2E/DX2                !
 ! D21   D(3,4,5,6)             -1.6278         estimate D2E/DX2                !
 ! D22   D(3,4,5,17)           178.313          estimate D2E/DX2                !
 ! D23   D(7,4,5,6)           -179.906          estimate D2E/DX2                !
 ! D24   D(7,4,5,17)             0.0349         estimate D2E/DX2                !
 ! D25   D(3,4,7,8)              0.2724         estimate D2E/DX2                !
 ! D26   D(3,4,7,23)          -178.9377         estimate D2E/DX2                !
 ! D27   D(5,4,7,8)            178.5298         estimate D2E/DX2                !
 ! D28   D(5,4,7,23)            -0.6802         estimate D2E/DX2                !
 ! D29   D(4,5,6,1)              0.2389         estimate D2E/DX2                !
 ! D30   D(4,5,6,18)          -179.9529         estimate D2E/DX2                !
 ! D31   D(17,5,6,1)          -179.7007         estimate D2E/DX2                !
 ! D32   D(17,5,6,18)            0.1075         estimate D2E/DX2                !
 ! D33   D(4,7,8,9)             -1.4104         estimate D2E/DX2                !
 ! D34   D(4,7,8,14)           177.9931         estimate D2E/DX2                !
 ! D35   D(23,7,8,9)           177.8044         estimate D2E/DX2                !
 ! D36   D(23,7,8,14)           -2.7921         estimate D2E/DX2                !
 ! D37   D(4,7,23,24)          112.8831         estimate D2E/DX2                !
 ! D38   D(4,7,23,25)          -69.4776         estimate D2E/DX2                !
 ! D39   D(8,7,23,24)          -66.3212         estimate D2E/DX2                !
 ! D40   D(8,7,23,25)          111.3181         estimate D2E/DX2                !
 ! D41   D(7,8,9,10)          -178.8443         estimate D2E/DX2                !
 ! D42   D(7,8,9,22)             1.3272         estimate D2E/DX2                !
 ! D43   D(14,8,9,10)            1.7307         estimate D2E/DX2                !
 ! D44   D(14,8,9,22)         -178.0978         estimate D2E/DX2                !
 ! D45   D(7,8,14,13)          178.9959         estimate D2E/DX2                !
 ! D46   D(7,8,14,21)           -1.2296         estimate D2E/DX2                !
 ! D47   D(9,8,14,13)           -1.5936         estimate D2E/DX2                !
 ! D48   D(9,8,14,21)          178.1809         estimate D2E/DX2                !
 ! D49   D(8,9,10,11)          179.4963         estimate D2E/DX2                !
 ! D50   D(8,9,10,12)           -0.6792         estimate D2E/DX2                !
 ! D51   D(22,9,10,11)          -0.6769         estimate D2E/DX2                !
 ! D52   D(22,9,10,12)         179.1475         estimate D2E/DX2                !
 ! D53   D(8,9,22,3)            -0.0503         estimate D2E/DX2                !
 ! D54   D(8,9,22,31)          179.9913         estimate D2E/DX2                !
 ! D55   D(10,9,22,3)         -179.8771         estimate D2E/DX2                !
 ! D56   D(10,9,22,31)           0.1644         estimate D2E/DX2                !
 ! D57   D(9,10,12,13)          -0.568          estimate D2E/DX2                !
 ! D58   D(9,10,12,19)        -179.952          estimate D2E/DX2                !
 ! D59   D(11,10,12,13)        179.2552         estimate D2E/DX2                !
 ! D60   D(11,10,12,19)         -0.1289         estimate D2E/DX2                !
 ! D61   D(10,12,13,14)          0.7274         estimate D2E/DX2                !
 ! D62   D(10,12,13,20)       -178.8722         estimate D2E/DX2                !
 ! D63   D(19,12,13,14)       -179.8911         estimate D2E/DX2                !
 ! D64   D(19,12,13,20)          0.5093         estimate D2E/DX2                !
 ! D65   D(12,13,14,8)           0.3867         estimate D2E/DX2                !
 ! D66   D(12,13,14,21)       -179.3839         estimate D2E/DX2                !
 ! D67   D(20,13,14,8)         179.9851         estimate D2E/DX2                !
 ! D68   D(20,13,14,21)          0.2145         estimate D2E/DX2                !
 ! D69   D(3,22,31,32)         -89.6901         estimate D2E/DX2                !
 ! D70   D(3,22,31,33)          90.3884         estimate D2E/DX2                !
 ! D71   D(9,22,31,32)          90.2698         estimate D2E/DX2                !
 ! D72   D(9,22,31,33)         -89.6517         estimate D2E/DX2                !
 ! D73   D(7,23,24,26)         177.0223         estimate D2E/DX2                !
 ! D74   D(7,23,24,47)          -4.6475         estimate D2E/DX2                !
 ! D75   D(25,23,24,26)         -0.5771         estimate D2E/DX2                !
 ! D76   D(25,23,24,47)        177.753          estimate D2E/DX2                !
 ! D77   D(7,23,25,27)        -177.2217         estimate D2E/DX2                !
 ! D78   D(7,23,25,30)           1.3202         estimate D2E/DX2                !
 ! D79   D(24,23,25,27)          0.4019         estimate D2E/DX2                !
 ! D80   D(24,23,25,30)        178.9437         estimate D2E/DX2                !
 ! D81   D(23,24,26,28)          0.4971         estimate D2E/DX2                !
 ! D82   D(23,24,26,52)       -179.4732         estimate D2E/DX2                !
 ! D83   D(47,24,26,28)       -177.8917         estimate D2E/DX2                !
 ! D84   D(47,24,26,52)          2.138          estimate D2E/DX2                !
 ! D85   D(23,24,47,48)        -39.3126         estimate D2E/DX2                !
 ! D86   D(23,24,47,49)        140.4376         estimate D2E/DX2                !
 ! D87   D(26,24,47,48)        138.9919         estimate D2E/DX2                !
 ! D88   D(26,24,47,49)        -41.2579         estimate D2E/DX2                !
 ! D89   D(23,25,27,28)         -0.1261         estimate D2E/DX2                !
 ! D90   D(23,25,27,29)        179.3915         estimate D2E/DX2                !
 ! D91   D(30,25,27,28)       -178.6645         estimate D2E/DX2                !
 ! D92   D(30,25,27,29)          0.8531         estimate D2E/DX2                !
 ! D93   D(24,26,28,27)         -0.2372         estimate D2E/DX2                !
 ! D94   D(24,26,28,46)        179.9606         estimate D2E/DX2                !
 ! D95   D(52,26,28,27)        179.7329         estimate D2E/DX2                !
 ! D96   D(52,26,28,46)         -0.0694         estimate D2E/DX2                !
 ! D97   D(25,27,28,26)          0.0425         estimate D2E/DX2                !
 ! D98   D(25,27,28,46)        179.8448         estimate D2E/DX2                !
 ! D99   D(29,27,28,26)       -179.4722         estimate D2E/DX2                !
 ! D100  D(29,27,28,46)          0.33           estimate D2E/DX2                !
 ! D101  D(22,31,32,34)       -179.9461         estimate D2E/DX2                !
 ! D102  D(22,31,32,35)         -0.0389         estimate D2E/DX2                !
 ! D103  D(33,31,32,34)         -0.0255         estimate D2E/DX2                !
 ! D104  D(33,31,32,35)        179.8817         estimate D2E/DX2                !
 ! D105  D(22,31,33,36)        179.9703         estimate D2E/DX2                !
 ! D106  D(22,31,33,37)         -0.016          estimate D2E/DX2                !
 ! D107  D(32,31,33,36)          0.0496         estimate D2E/DX2                !
 ! D108  D(32,31,33,37)       -179.9367         estimate D2E/DX2                !
 ! D109  D(31,32,34,38)         -0.0059         estimate D2E/DX2                !
 ! D110  D(31,32,34,39)        179.9693         estimate D2E/DX2                !
 ! D111  D(35,32,34,38)       -179.913          estimate D2E/DX2                !
 ! D112  D(35,32,34,39)          0.0623         estimate D2E/DX2                !
 ! D113  D(31,33,36,38)         -0.0423         estimate D2E/DX2                !
 ! D114  D(31,33,36,40)        179.9918         estimate D2E/DX2                !
 ! D115  D(37,33,36,38)        179.944          estimate D2E/DX2                !
 ! D116  D(37,33,36,40)         -0.0219         estimate D2E/DX2                !
 ! D117  D(32,34,38,36)          0.013          estimate D2E/DX2                !
 ! D118  D(32,34,38,41)       -179.9951         estimate D2E/DX2                !
 ! D119  D(39,34,38,36)       -179.9618         estimate D2E/DX2                !
 ! D120  D(39,34,38,41)          0.0301         estimate D2E/DX2                !
 ! D121  D(33,36,38,34)          0.0113         estimate D2E/DX2                !
 ! D122  D(33,36,38,41)       -179.9813         estimate D2E/DX2                !
 ! D123  D(40,36,38,34)        179.9782         estimate D2E/DX2                !
 ! D124  D(40,36,38,41)         -0.0143         estimate D2E/DX2                !
 ! D125  D(34,38,41,42)         -0.0608         estimate D2E/DX2                !
 ! D126  D(36,38,41,42)        179.9314         estimate D2E/DX2                !
 ! D127  D(38,41,42,43)       -179.9751         estimate D2E/DX2                !
 ! D128  D(38,41,42,44)        -61.157          estimate D2E/DX2                !
 ! D129  D(38,41,42,45)         61.205          estimate D2E/DX2                !
 ! D130  D(24,47,48,50)         -8.7867         estimate D2E/DX2                !
 ! D131  D(49,47,48,50)        171.4658         estimate D2E/DX2                !
 ! D132  D(24,47,49,51)        176.0594         estimate D2E/DX2                !
 ! D133  D(48,47,49,51)         -4.1797         estimate D2E/DX2                !
 --------------------------------------------------------------------------------
 Trust Radius=3.00D-01 FncErr=1.00D-07 GrdErr=1.00D-06
 Number of steps in this run=    289 maximum allowed number of steps=    312.
 GradGradGradGradGradGradGradGradGradGradGradGradGradGradGradGradGradGrad

 Leave Link  103 at Mon Mar 29 11:45:51 2021, MaxMem=  5242880000 cpu:         0.2
 (Enter /opt/nce/packages/global/g09/l202.exe)
 Symmetry turned off by external request.
 Stoichiometry    C26H21BNO3(1+)
 Framework group  C1[X(C26H21BNO3)]
 Deg. of freedom   150
 Full point group                 C1      NOp   1
                          Input orientation:                          
 ---------------------------------------------------------------------
 Center     Atomic      Atomic             Coordinates (Angstroms)
 Number     Number       Type             X           Y           Z
 ---------------------------------------------------------------------
      1          6           0       -0.646901    3.721652    0.383228
      2          6           0       -1.275038    2.515629    0.154004
      3          6           0       -0.502997    1.354404   -0.100218
      4          6           0        0.929656    1.448135   -0.135346
      5          6           0        1.534475    2.716196    0.131580
      6          6           0        0.766697    3.827290    0.382413
      7          6           0        1.700978    0.288147   -0.394804
      8          6           0        1.043387   -0.945260   -0.621226
      9          6           0       -0.389535   -1.007834   -0.554509
     10          6           0       -1.047902   -2.245585   -0.756400
     11          1           0       -2.132844   -2.295404   -0.697888
     12          6           0       -0.309572   -3.378206   -1.029301
     13          6           0        1.103447   -3.330502   -1.125021
     14          6           0        1.762243   -2.141426   -0.929535
     15          1           0       -1.253271    4.608851    0.578029
     16          1           0       -2.360536    2.447501    0.169872
     17          1           0        2.621806    2.782304    0.132719
     18          1           0        1.240084    4.789621    0.584003
     19          1           0       -0.828377   -4.326766   -1.183900
     20          1           0        1.663857   -4.236727   -1.360127
     21          1           0        2.846716   -2.092365   -1.010771
     22          7           0       -1.109617    0.136597   -0.298459
     23          6           0        3.184373    0.354287   -0.413151
     24          6           0        3.937422   -0.310873    0.584512
     25          6           0        3.824204    1.040508   -1.457573
     26          6           0        5.337947   -0.269600    0.484419
     27          6           0        5.217889    1.067011   -1.527920
     28          6           0        5.976246    0.411149   -0.554924
     29          1           0        5.709645    1.594079   -2.348282
     30          1           0        3.228115    1.533816   -2.228750
     31          6           0       -2.554964    0.055352   -0.234791
     32          6           0       -3.178542   -0.202502    0.983755
     33          6           0       -3.310504    0.235337   -1.399814
     34          6           0       -4.570761   -0.283392    1.052960
     35          1           0       -2.577336   -0.342801    1.884457
     36          6           0       -4.694321    0.156667   -1.337529
     37          1           0       -2.810567    0.435920   -2.349492
     38          6           0       -5.341076   -0.103641   -0.111062
     39          1           0       -5.043422   -0.486117    2.012807
     40          1           0       -5.309962    0.292484   -2.227793
     41          8           0       -6.678766   -0.161103   -0.152552
     42          6           0       -7.411398   -0.419612    1.033789
     43          1           0       -8.470052   -0.418075    0.748115
     44          1           0       -7.151885   -1.403804    1.459419
     45          1           0       -7.238820    0.363933    1.791042
     46          1           0        7.066928    0.427878   -0.608560
     47          5           0        3.269609   -1.052546    1.807387
     48          8           0        2.178367   -0.563843    2.474467
     49          8           0        3.807825   -2.230373    2.203326
     50          1           0        1.928497    0.333258    2.226167
     51          1           0        3.383889   -2.593842    2.993638
     52          1           0        5.934663   -0.784620    1.240442
 ---------------------------------------------------------------------
 Rotational constants (GHZ):      0.2978832      0.0890757      0.0788022
 Leave Link  202 at Mon Mar 29 11:45:51 2021, MaxMem=  5242880000 cpu:         0.2
 (Enter /opt/nce/packages/global/g09/l301.exe)
 Standard basis: def2TZVP (5D, 7F)
 Ernie: Thresh=  0.10000D-02 Tol=  0.10000D-05 Strict=F.
  1087 basis functions,  1749 primitive gaussians,  1242 cartesian basis functions
   106 alpha electrons      106 beta electrons
       nuclear repulsion energy      2874.9988380751 Hartrees.
 IExCor= 3630 DFT=T Ex+Corr=B97D3 ExCW=0 ScaHFX=  0.000000
 ScaDFX=  1.000000  1.000000  1.000000  1.000000 ScalE2=  1.000000  1.000000
 IRadAn=      5 IRanWt=     -1 IRanGd=            0 ICorTp=0 IEmpDi=141
 NAtoms=   52 NActive=   52 NUniq=   52 SFac= 1.00D+00 NAtFMM=   60 NAOKFM=F Big=F
 Integral buffers will be    131072 words long.
 Raffenetti 2 integral format.
 Two-electron integral symmetry is turned off.
 R6Disp:  Grimme-D3(BJ) Dispersion energy=       -0.2064279405 Hartrees.
 Nuclear repulsion after empirical dispersion term =     2874.7924101346 Hartrees.
 ------------------------------------------------------------------------------
 Polarizable Continuum Model (PCM)
 =================================
 Model                : PCM (using non-symmetric T matrix).
 Atomic radii         : SMD-Coulomb.
 Polarization charges : Total charges.
 Charge compensation  : None.
 Solution method      : On-the-fly selection.
 Cavity type          : VdW (van der Waals Surface) (Alpha=1.000).
 Cavity algorithm     : GePol (No added spheres)
                        Default sphere list used, NSphG=   52.
                        Lebedev-Laikov grids with approx.  5.0 points / Ang**2.
                        Smoothing algorithm: York/Karplus (Gamma=1.0000).
                        Polarization charges: spherical gaussians, with
                                              point-specific exponents (IZeta= 3).
                        Self-potential: point-specific (ISelfS= 7).
                        Self-field    : sphere-specific E.n sum rule (ISelfD= 2).
 1st derivatives      : Analytical E(r).r(x)/FMM algorithm (CHGder, D1EAlg=3).
                        Cavity 1st derivative terms included.
 Solvent              : Acetonitrile, Eps=  35.688000 Eps(inf)=   1.806874
 ------------------------------------------------------------------------------
 GePol: Number of generator spheres                  =      52
 GePol: Total number of spheres                      =      52
 GePol: Number of exposed spheres                    =      50 ( 96.15%)
 GePol: Number of points                             =    3793
 GePol: Average weight of points                     =       0.12
 GePol: Minimum weight of points                     =   0.96D-11
 GePol: Maximum weight of points                     =    0.21559
 GePol: Number of points with low weight             =     233
 GePol: Fraction of low-weight points (<1% of avg)   =       6.14%
 GePol: Cavity surface area                          =    438.989 Ang**2
 GePol: Cavity volume                                =    445.444 Ang**3
 ------------------------------------------------------------------------------
 Atomic radii for non-electrostatic terms: SMD-CDS.
 ------------------------------------------------------------------------------
 PCM non-electrostatic energy =        -0.0084817840 Hartrees.
 Nuclear repulsion after PCM non-electrostatic terms =     2874.7839283506 Hartrees.
 Leave Link  301 at Mon Mar 29 11:45:52 2021, MaxMem=  5242880000 cpu:         1.6
 (Enter /opt/nce/packages/global/g09/l302.exe)
 NPDir=0 NMtPBC=     1 NCelOv=     1 NCel=       1 NClECP=     1 NCelD=      1
         NCelK=      1 NCelE2=     1 NClLst=     1 CellRange=     0.0.
 One-electron integrals computed using PRISM.
   1 Symmetry operations used in ECPInt.
 ECPInt:  NShTT=   90525 NPrTT=  279376 LenC2=   73614 LenP2D=  155946.
 LDataN:  DoStor=T MaxTD1= 6 Len=  172
 NBasis=  1087 RedAO= T EigKep=  4.68D-06  NBF=  1087
 NBsUse=  1087 1.00D-06 EigRej= -1.00D+00 NBFU=  1087
 Precomputing XC quadrature grid using
 IXCGrd= 4 IRadAn=           5 IRanWt=          -1 IRanGd=           0 AccXCQ= 0.00D+00.
 Generated NRdTot=       0 NPtTot=           0 NUsed=           0 NTot=          32
 NSgBfM=  1191  1191  1191  1191  1191 MxSgAt=    52 MxSgA2=    52.
 Leave Link  302 at Mon Mar 29 11:46:04 2021, MaxMem=  5242880000 cpu:        66.5
 (Enter /opt/nce/packages/global/g09/l303.exe)
 DipDrv:  MaxL=1.
 Leave Link  303 at Mon Mar 29 11:46:05 2021, MaxMem=  5242880000 cpu:         4.9
 (Enter /opt/nce/packages/global/g09/l401.exe)
 ExpMin= 6.06D-02 ExpMax= 2.70D+04 ExpMxC= 9.22D+02 IAcc=3 IRadAn=         5 AccDes= 0.00D+00
 Harris functional with IExCor= 3630 and IRadAn=       5 diagonalized for initial guess.
 HarFok:  IExCor= 3630 AccDes= 0.00D+00 IRadAn=         5 IDoV= 1 UseB2=F ITyADJ=14
 ICtDFT=  3500011 ScaDFX=  1.000000  1.000000  1.000000  1.000000
 FoFCou: FMM=F IPFlag=           0 FMFlag=      100000 FMFlg1=           0
         NFxFlg=           0 DoJE=T BraDBF=F KetDBF=T FulRan=T
         wScrn=  0.000000 ICntrl=     500 IOpCl=  0 I1Cent=   200000004 NGrid=           0
         NMat0=    1 NMatS0=      1 NMatT0=    0 NMatD0=    1 NMtDS0=    0 NMtDT0=    0
 Symmetry not used in FoFCou.
 Harris En= -1308.66540993821    
 JPrj=0 DoOrth=F DoCkMO=F.
 Leave Link  401 at Mon Mar 29 11:46:58 2021, MaxMem=  5242880000 cpu:       172.4
 (Enter /opt/nce/packages/global/g09/l502.exe)
 Closed shell SCF:
 Using DIIS extrapolation, IDIIS=  1040.
 Two-electron integral symmetry not used.
 IVT=     4668702 IEndB=     4668702 NGot=  5242880000 MDV=  5239771745
 LenX=  5239771745 LenY=  5238227939
 Requested convergence on RMS density matrix=1.00D-08 within 128 cycles.
 Requested convergence on MAX density matrix=1.00D-06.
 Requested convergence on             energy=1.00D-06.
 No special actions if energy rises.
 Fock matrices will be formed incrementally for  20 cycles.

 Cycle   1  Pass 1  IDiag  1:
 FoFJK:  IHMeth= 1 ICntrl=     500 DoSepK=F KAlg= 0 I1Cent=   0 FoldK=F
 IRaf= 700000000 NMat=   1 IRICut=       1 DoRegI=T DoRafI=F ISym2E= 0.
 FoFCou: FMM=F IPFlag=           0 FMFlag=      100000 FMFlg1=           0
         NFxFlg=           0 DoJE=T BraDBF=F KetDBF=F FulRan=T
         wScrn=  0.000000 ICntrl=     500 IOpCl=  0 I1Cent=           0 NGrid=           0
         NMat0=    1 NMatS0=      1 NMatT0=    0 NMatD0=    1 NMtDS0=    0 NMtDT0=    0
 Symmetry not used in FoFCou.
 Inv3:  Mode=1 IEnd=    43160547.
 Iteration    1 A*A^-1 deviation from unit magnitude is 7.99D-15 for   3783.
 Iteration    1 A*A^-1 deviation from orthogonality  is 4.31D-15 for   1249    678.
 Iteration    1 A^-1*A deviation from unit magnitude is 7.77D-15 for   3783.
 Iteration    1 A^-1*A deviation from orthogonality  is 1.54D-12 for   1858   1787.
 E= -1307.72023382910    
 DIIS: error= 1.58D-02 at cycle   1 NSaved=   1.
 NSaved= 1 IEnMin= 1 EnMin= -1307.72023382910     IErMin= 1 ErrMin= 1.58D-02
 ErrMax= 1.58D-02  0.00D+00 EMaxC= 1.00D-01 BMatC= 6.79D-01 BMatP= 6.79D-01
 IDIUse=3 WtCom= 8.42D-01 WtEn= 1.58D-01
 Coeff-Com:  0.100D+01
 Coeff-En:   0.100D+01
 Coeff:      0.100D+01
 Gap=     0.048 Goal=   None    Shift=    0.000
 GapD=    0.048 DampG=0.250 DampE=0.500 DampFc=0.2500 IDamp=-1.
 Damping current iteration by 2.50D-01
 RMSDP=6.51D-03 MaxDP=7.71D-01              OVMax= 3.67D-01

 Cycle   2  Pass 1  IDiag  1:
 RMSU=  1.62D-03    CP:  1.04D+00
 E= -1307.93140017042     Delta-E=       -0.211166341314 Rises=F Damp=T
 DIIS: error= 7.36D-03 at cycle   2 NSaved=   2.
 NSaved= 2 IEnMin= 2 EnMin= -1307.93140017042     IErMin= 2 ErrMin= 7.36D-03
 ErrMax= 7.36D-03  0.00D+00 EMaxC= 1.00D-01 BMatC= 1.31D-01 BMatP= 6.79D-01
 IDIUse=3 WtCom= 9.26D-01 WtEn= 7.36D-02
 Coeff-Com: -0.471D+00 0.147D+01
 Coeff-En:   0.000D+00 0.100D+01
 Coeff:     -0.436D+00 0.144D+01
 Gap=     0.157 Goal=   None    Shift=    0.000
 RMSDP=1.22D-03 MaxDP=1.54D-01 DE=-2.11D-01 OVMax= 5.49D-01

 Cycle   3  Pass 1  IDiag  1:
 RMSU=  1.11D-03    CP:  9.81D-01  7.38D-01
 E= -1308.19680561941     Delta-E=       -0.265405448989 Rises=F Damp=F
 DIIS: error= 1.55D-02 at cycle   3 NSaved=   3.
 NSaved= 3 IEnMin= 3 EnMin= -1308.19680561941     IErMin= 2 ErrMin= 7.36D-03
 ErrMax= 1.55D-02  0.00D+00 EMaxC= 1.00D-01 BMatC= 1.29D-01 BMatP= 1.31D-01
 IDIUse=3 WtCom= 8.45D-01 WtEn= 1.55D-01
 Coeff-Com: -0.383D+00 0.950D+00 0.433D+00
 Coeff-En:   0.000D+00 0.000D+00 0.100D+01
 Coeff:     -0.324D+00 0.803D+00 0.521D+00
 Gap=     0.071 Goal=   None    Shift=    0.000
 RMSDP=5.71D-04 MaxDP=7.15D-02 DE=-2.65D-01 OVMax= 2.62D-01

 Cycle   4  Pass 1  IDiag  1:
 RMSU=  4.76D-04    CP:  9.96D-01  7.76D-01  7.31D-01
 E= -1308.27208820809     Delta-E=       -0.075282588688 Rises=F Damp=F
 DIIS: error= 7.35D-03 at cycle   4 NSaved=   4.
 NSaved= 4 IEnMin= 4 EnMin= -1308.27208820809     IErMin= 4 ErrMin= 7.35D-03
 ErrMax= 7.35D-03  0.00D+00 EMaxC= 1.00D-01 BMatC= 6.28D-02 BMatP= 1.29D-01
 IDIUse=3 WtCom= 9.27D-01 WtEn= 7.35D-02
 Coeff-Com: -0.170D+00 0.413D+00 0.390D+00 0.368D+00
 Coeff-En:   0.000D+00 0.000D+00 0.365D+00 0.635D+00
 Coeff:     -0.158D+00 0.382D+00 0.388D+00 0.388D+00
 Gap=     0.066 Goal=   None    Shift=    0.000
 RMSDP=2.75D-04 MaxDP=3.77D-02 DE=-7.53D-02 OVMax= 1.75D-01

 Cycle   5  Pass 1  IDiag  1:
 RMSU=  1.99D-04    CP:  9.96D-01  7.76D-01  7.04D-01  6.05D-01
 E= -1308.33504573658     Delta-E=       -0.062957528481 Rises=F Damp=F
 DIIS: error= 2.42D-03 at cycle   5 NSaved=   5.
 NSaved= 5 IEnMin= 5 EnMin= -1308.33504573658     IErMin= 5 ErrMin= 2.42D-03
 ErrMax= 2.42D-03  0.00D+00 EMaxC= 1.00D-01 BMatC= 5.41D-03 BMatP= 6.28D-02
 IDIUse=3 WtCom= 9.76D-01 WtEn= 2.42D-02
 Coeff-Com: -0.375D-01 0.845D-01 0.183D+00 0.282D+00 0.488D+00
 Coeff-En:   0.000D+00 0.000D+00 0.000D+00 0.691D-01 0.931D+00
 Coeff:     -0.366D-01 0.825D-01 0.179D+00 0.277D+00 0.499D+00
 Gap=     0.069 Goal=   None    Shift=    0.000
 RMSDP=1.54D-04 MaxDP=4.87D-02 DE=-6.30D-02 OVMax= 5.31D-02

 Cycle   6  Pass 1  IDiag  1:
 RMSU=  7.93D-05    CP:  9.93D-01  7.86D-01  7.64D-01  6.13D-01  4.34D-01
 E= -1308.33944776260     Delta-E=       -0.004402026026 Rises=F Damp=F
 DIIS: error= 1.53D-03 at cycle   6 NSaved=   6.
 NSaved= 6 IEnMin= 6 EnMin= -1308.33944776260     IErMin= 6 ErrMin= 1.53D-03
 ErrMax= 1.53D-03  0.00D+00 EMaxC= 1.00D-01 BMatC= 1.07D-03 BMatP= 5.41D-03
 IDIUse=3 WtCom= 9.85D-01 WtEn= 1.53D-02
 Coeff-Com: -0.991D-02 0.190D-01 0.760D-01 0.136D+00 0.355D+00 0.424D+00
 Coeff-En:   0.000D+00 0.000D+00 0.000D+00 0.000D+00 0.227D+00 0.773D+00
 Coeff:     -0.976D-02 0.187D-01 0.749D-01 0.134D+00 0.353D+00 0.429D+00
 Gap=     0.068 Goal=   None    Shift=    0.000
 RMSDP=4.85D-05 MaxDP=1.26D-02 DE=-4.40D-03 OVMax= 2.00D-02

 Cycle   7  Pass 1  IDiag  1:
 RMSU=  2.58D-05    CP:  9.93D-01  7.81D-01  7.61D-01  6.19D-01  5.31D-01
                    CP:  5.60D-01
 E= -1308.34057287608     Delta-E=       -0.001125113484 Rises=F Damp=F
 DIIS: error= 5.04D-04 at cycle   7 NSaved=   7.
 NSaved= 7 IEnMin= 7 EnMin= -1308.34057287608     IErMin= 7 ErrMin= 5.04D-04
 ErrMax= 5.04D-04  0.00D+00 EMaxC= 1.00D-01 BMatC= 1.62D-04 BMatP= 1.07D-03
 IDIUse=3 WtCom= 9.95D-01 WtEn= 5.04D-03
 Coeff-Com:  0.504D-04-0.181D-02 0.157D-01 0.361D-01 0.154D+00 0.310D+00
 Coeff-Com:  0.486D+00
 Coeff-En:   0.000D+00 0.000D+00 0.000D+00 0.000D+00 0.000D+00 0.141D+00
 Coeff-En:   0.859D+00
 Coeff:      0.502D-04-0.180D-02 0.156D-01 0.359D-01 0.153D+00 0.309D+00
 Coeff:      0.488D+00
 Gap=     0.069 Goal=   None    Shift=    0.000
 RMSDP=1.85D-05 MaxDP=1.89D-03 DE=-1.13D-03 OVMax= 4.50D-03

 Cycle   8  Pass 1  IDiag  1:
 RMSU=  9.97D-06    CP:  9.93D-01  7.82D-01  7.56D-01  6.16D-01  5.58D-01
                    CP:  6.47D-01  5.57D-01
 E= -1308.34073516892     Delta-E=       -0.000162292835 Rises=F Damp=F
 DIIS: error= 7.55D-05 at cycle   8 NSaved=   8.
 NSaved= 8 IEnMin= 8 EnMin= -1308.34073516892     IErMin= 8 ErrMin= 7.55D-05
 ErrMax= 7.55D-05  0.00D+00 EMaxC= 1.00D-01 BMatC= 7.65D-06 BMatP= 1.62D-04
 IDIUse=1 WtCom= 1.00D+00 WtEn= 0.00D+00
 Coeff-Com:  0.326D-03-0.121D-02 0.322D-02 0.933D-02 0.568D-01 0.140D+00
 Coeff-Com:  0.274D+00 0.518D+00
 Coeff:      0.326D-03-0.121D-02 0.322D-02 0.933D-02 0.568D-01 0.140D+00
 Coeff:      0.274D+00 0.518D+00
 Gap=     0.068 Goal=   None    Shift=    0.000
 RMSDP=6.77D-06 MaxDP=1.29D-03 DE=-1.62D-04 OVMax= 1.32D-03

 Cycle   9  Pass 1  IDiag  1:
 RMSU=  3.69D-06    CP:  9.93D-01  7.83D-01  7.58D-01  6.19D-01  5.45D-01
                    CP:  6.40D-01  6.42D-01  6.84D-01
 E= -1308.34074153474     Delta-E=       -0.000006365817 Rises=F Damp=F
 DIIS: error= 3.99D-05 at cycle   9 NSaved=   9.
 NSaved= 9 IEnMin= 9 EnMin= -1308.34074153474     IErMin= 9 ErrMin= 3.99D-05
 ErrMax= 3.99D-05  0.00D+00 EMaxC= 1.00D-01 BMatC= 1.52D-06 BMatP= 7.65D-06
 IDIUse=1 WtCom= 1.00D+00 WtEn= 0.00D+00
 Coeff-Com:  0.177D-03-0.438D-03 0.154D-03 0.137D-02 0.168D-01 0.510D-01
 Coeff-Com:  0.114D+00 0.344D+00 0.473D+00
 Coeff:      0.177D-03-0.438D-03 0.154D-03 0.137D-02 0.168D-01 0.510D-01
 Coeff:      0.114D+00 0.344D+00 0.473D+00
 Gap=     0.068 Goal=   None    Shift=    0.000
 RMSDP=2.82D-06 MaxDP=5.92D-04 DE=-6.37D-06 OVMax= 5.45D-04

 Cycle  10  Pass 1  IDiag  1:
 RMSU=  1.06D-06    CP:  9.93D-01  7.82D-01  7.57D-01  6.18D-01  5.49D-01
                    CP:  6.45D-01  6.26D-01  7.49D-01  6.17D-01
 E= -1308.34074292226     Delta-E=       -0.000001387528 Rises=F Damp=F
 DIIS: error= 1.13D-05 at cycle  10 NSaved=  10.
 NSaved=10 IEnMin=10 EnMin= -1308.34074292226     IErMin=10 ErrMin= 1.13D-05
 ErrMax= 1.13D-05  0.00D+00 EMaxC= 1.00D-01 BMatC= 1.29D-07 BMatP= 1.52D-06
 IDIUse=1 WtCom= 1.00D+00 WtEn= 0.00D+00
 Coeff-Com:  0.711D-04-0.159D-03-0.603D-04 0.250D-03 0.674D-02 0.229D-01
 Coeff-Com:  0.522D-01 0.183D+00 0.301D+00 0.433D+00
 Coeff:      0.711D-04-0.159D-03-0.603D-04 0.250D-03 0.674D-02 0.229D-01
 Coeff:      0.522D-01 0.183D+00 0.301D+00 0.433D+00
 Gap=     0.068 Goal=   None    Shift=    0.000
 RMSDP=7.18D-07 MaxDP=1.39D-04 DE=-1.39D-06 OVMax= 1.34D-04

 Cycle  11  Pass 1  IDiag  1:
 RMSU=  3.06D-07    CP:  9.93D-01  7.82D-01  7.58D-01  6.18D-01  5.48D-01
                    CP:  6.46D-01  6.30D-01  7.47D-01  6.61D-01  6.90D-01
 E= -1308.34074304573     Delta-E=       -0.000000123465 Rises=F Damp=F
 DIIS: error= 2.46D-06 at cycle  11 NSaved=  11.
 NSaved=11 IEnMin=11 EnMin= -1308.34074304573     IErMin=11 ErrMin= 2.46D-06
 ErrMax= 2.46D-06  0.00D+00 EMaxC= 1.00D-01 BMatC= 5.28D-09 BMatP= 1.29D-07
 IDIUse=1 WtCom= 1.00D+00 WtEn= 0.00D+00
 Coeff-Com:  0.207D-05-0.284D-05-0.456D-04-0.787D-04 0.119D-02 0.504D-02
 Coeff-Com:  0.113D-01 0.482D-01 0.864D-01 0.208D+00 0.640D+00
 Coeff:      0.207D-05-0.284D-05-0.456D-04-0.787D-04 0.119D-02 0.504D-02
 Coeff:      0.113D-01 0.482D-01 0.864D-01 0.208D+00 0.640D+00
 Gap=     0.068 Goal=   None    Shift=    0.000
 RMSDP=1.99D-07 MaxDP=4.01D-05 DE=-1.23D-07 OVMax= 3.46D-05

 Cycle  12  Pass 1  IDiag  1:
 RMSU=  8.62D-08    CP:  9.93D-01  7.82D-01  7.58D-01  6.18D-01  5.49D-01
                    CP:  6.46D-01  6.29D-01  7.55D-01  6.50D-01  7.41D-01
                    CP:  8.28D-01
 E= -1308.34074304990     Delta-E=       -0.000000004168 Rises=F Damp=F
 DIIS: error= 8.88D-07 at cycle  12 NSaved=  12.
 NSaved=12 IEnMin=12 EnMin= -1308.34074304990     IErMin=12 ErrMin= 8.88D-07
 ErrMax= 8.88D-07  0.00D+00 EMaxC= 1.00D-01 BMatC= 9.39D-10 BMatP= 5.28D-09
 IDIUse=1 WtCom= 1.00D+00 WtEn= 0.00D+00
 Coeff-Com: -0.585D-05 0.121D-04-0.184D-04-0.578D-04 0.309D-03 0.159D-02
 Coeff-Com:  0.352D-02 0.176D-01 0.331D-01 0.996D-01 0.392D+00 0.452D+00
 Coeff:     -0.585D-05 0.121D-04-0.184D-04-0.578D-04 0.309D-03 0.159D-02
 Coeff:      0.352D-02 0.176D-01 0.331D-01 0.996D-01 0.392D+00 0.452D+00
 Gap=     0.068 Goal=   None    Shift=    0.000
 RMSDP=7.32D-08 MaxDP=1.57D-05 DE=-4.17D-09 OVMax= 9.69D-06

 Cycle  13  Pass 1  IDiag  1:
 RMSU=  3.21D-08    CP:  9.93D-01  7.82D-01  7.58D-01  6.18D-01  5.49D-01
                    CP:  6.46D-01  6.30D-01  7.53D-01  6.58D-01  7.36D-01
                    CP:  8.55D-01  7.50D-01
 E= -1308.34074305064     Delta-E=       -0.000000000742 Rises=F Damp=F
 DIIS: error= 1.83D-07 at cycle  13 NSaved=  13.
 NSaved=13 IEnMin=13 EnMin= -1308.34074305064     IErMin=13 ErrMin= 1.83D-07
 ErrMax= 1.83D-07  0.00D+00 EMaxC= 1.00D-01 BMatC= 6.07D-11 BMatP= 9.39D-10
 IDIUse=1 WtCom= 1.00D+00 WtEn= 0.00D+00
 Coeff-Com: -0.389D-05 0.677D-05-0.385D-05-0.182D-04 0.288D-04 0.228D-03
 Coeff-Com:  0.497D-03 0.344D-02 0.678D-02 0.270D-01 0.127D+00 0.243D+00
 Coeff-Com:  0.592D+00
 Coeff:     -0.389D-05 0.677D-05-0.385D-05-0.182D-04 0.288D-04 0.228D-03
 Coeff:      0.497D-03 0.344D-02 0.678D-02 0.270D-01 0.127D+00 0.243D+00
 Coeff:      0.592D+00
 Gap=     0.068 Goal=   None    Shift=    0.000
 RMSDP=1.62D-08 MaxDP=2.52D-06 DE=-7.42D-10 OVMax= 2.93D-06

 Cycle  14  Pass 1  IDiag  1:
 RMSU=  8.08D-09    CP:  9.93D-01  7.82D-01  7.58D-01  6.18D-01  5.49D-01
                    CP:  6.46D-01  6.30D-01  7.54D-01  6.57D-01  7.41D-01
                    CP:  8.60D-01  8.09D-01  8.39D-01
 E= -1308.34074305070     Delta-E=       -0.000000000058 Rises=F Damp=F
 DIIS: error= 1.61D-07 at cycle  14 NSaved=  14.
 NSaved=14 IEnMin=14 EnMin= -1308.34074305070     IErMin=14 ErrMin= 1.61D-07
 ErrMax= 1.61D-07  0.00D+00 EMaxC= 1.00D-01 BMatC= 1.56D-11 BMatP= 6.07D-11
 IDIUse=1 WtCom= 1.00D+00 WtEn= 0.00D+00
 Coeff-Com: -0.193D-05 0.299D-05-0.108D-05-0.606D-05-0.186D-04-0.414D-04
 Coeff-Com: -0.809D-04 0.209D-03 0.585D-03 0.619D-02 0.364D-01 0.106D+00
 Coeff-Com:  0.392D+00 0.458D+00
 Coeff:     -0.193D-05 0.299D-05-0.108D-05-0.606D-05-0.186D-04-0.414D-04
 Coeff:     -0.809D-04 0.209D-03 0.585D-03 0.619D-02 0.364D-01 0.106D+00
 Coeff:      0.392D+00 0.458D+00
 Gap=     0.068 Goal=   None    Shift=    0.000
 RMSDP=4.60D-09 MaxDP=5.38D-07 DE=-5.82D-11 OVMax= 9.13D-07

 Error on total polarization charges =  0.05502
 SCF Done:  E(RB97D3) =  -1308.34074305     A.U. after   14 cycles
            NFock= 14  Conv=0.46D-08     -V/T= 2.0049
 KE= 1.301999936780D+03 PE=-8.770735451963D+03 EE= 3.285610843781D+03
 SMD-CDS (non-electrostatic) energy       (kcal/mol) =      -5.32
 (included in total energy above)
 Leave Link  502 at Mon Mar 29 12:26:52 2021, MaxMem=  5242880000 cpu:     11266.8
 (Enter /opt/nce/packages/global/g09/l601.exe)
 Copying SCF densities to generalized density rwf, IOpCl= 0 IROHF=0.

 **********************************************************************

            Population analysis using the SCF density.

 **********************************************************************

 Alpha  occ. eigenvalues --  -18.79226 -18.76468 -18.76259 -14.09705  -9.98825
 Alpha  occ. eigenvalues --   -9.98784  -9.97435  -9.96881  -9.95294  -9.95122
 Alpha  occ. eigenvalues --   -9.95059  -9.94747  -9.93275  -9.93086  -9.93053
 Alpha  occ. eigenvalues --   -9.92804  -9.92734  -9.92606  -9.92582  -9.92229
 Alpha  occ. eigenvalues --   -9.92191  -9.92114  -9.92068  -9.91636  -9.91320
 Alpha  occ. eigenvalues --   -9.91236  -9.91232  -9.91164  -9.91112  -9.90487
 Alpha  occ. eigenvalues --   -6.56244  -0.99680  -0.95835  -0.94804  -0.92785
 Alpha  occ. eigenvalues --   -0.82306  -0.80990  -0.79338  -0.78414  -0.75832
 Alpha  occ. eigenvalues --   -0.72154  -0.71099  -0.70427  -0.69510  -0.68958
 Alpha  occ. eigenvalues --   -0.68575  -0.67939  -0.64290  -0.62240  -0.60620
 Alpha  occ. eigenvalues --   -0.59222  -0.56877  -0.56057  -0.55648  -0.55309
 Alpha  occ. eigenvalues --   -0.53206  -0.52165  -0.51713  -0.51153  -0.50072
 Alpha  occ. eigenvalues --   -0.49285  -0.48334  -0.46889  -0.45750  -0.45143
 Alpha  occ. eigenvalues --   -0.43643  -0.43421  -0.43291  -0.42199  -0.42003
 Alpha  occ. eigenvalues --   -0.40887  -0.40652  -0.40549  -0.40243  -0.40102
 Alpha  occ. eigenvalues --   -0.39677  -0.38793  -0.38269  -0.37725  -0.37139
 Alpha  occ. eigenvalues --   -0.36501  -0.35626  -0.35235  -0.34907  -0.34542
 Alpha  occ. eigenvalues --   -0.34037  -0.33725  -0.33183  -0.32622  -0.32577
 Alpha  occ. eigenvalues --   -0.32417  -0.32309  -0.31460  -0.30488  -0.29674
 Alpha  occ. eigenvalues --   -0.29232  -0.28941  -0.28433  -0.27788  -0.25871
 Alpha  occ. eigenvalues --   -0.25052  -0.24056  -0.23684  -0.23631  -0.21800
 Alpha  occ. eigenvalues --   -0.20649
 Alpha virt. eigenvalues --   -0.13813  -0.07650  -0.06672  -0.06042  -0.04996
 Alpha virt. eigenvalues --   -0.04482  -0.04197  -0.03817  -0.00681   0.01051
 Alpha virt. eigenvalues --    0.02937   0.03192   0.03621   0.04151   0.04589
 Alpha virt. eigenvalues --    0.04727   0.05028   0.05429   0.06243   0.06848
 Alpha virt. eigenvalues --    0.07146   0.07297   0.07816   0.07896   0.08025
 Alpha virt. eigenvalues --    0.08827   0.08941   0.09474   0.09551   0.10012
 Alpha virt. eigenvalues --    0.10202   0.10260   0.10576   0.10936   0.11225
 Alpha virt. eigenvalues --    0.11651   0.12005   0.12134   0.12942   0.13316
 Alpha virt. eigenvalues --    0.14203   0.14968   0.15296   0.15378   0.15558
 Alpha virt. eigenvalues --    0.16297   0.17005   0.17022   0.17704   0.18192
 Alpha virt. eigenvalues --    0.18407   0.18671   0.18817   0.19164   0.19212
 Alpha virt. eigenvalues --    0.19652   0.19909   0.20019   0.20367   0.20538
 Alpha virt. eigenvalues --    0.20791   0.20953   0.21035   0.21836   0.21915
 Alpha virt. eigenvalues --    0.22513   0.22816   0.23050   0.23737   0.23797
 Alpha virt. eigenvalues --    0.24213   0.24436   0.24893   0.25066   0.25177
 Alpha virt. eigenvalues --    0.25269   0.25527   0.26270   0.26387   0.27037
 Alpha virt. eigenvalues --    0.27281   0.27342   0.27698   0.28191   0.28759
 Alpha virt. eigenvalues --    0.29020   0.29258   0.29414   0.29719   0.30051
 Alpha virt. eigenvalues --    0.30401   0.31096   0.31398   0.31791   0.32056
 Alpha virt. eigenvalues --    0.32254   0.32720   0.32981   0.33240   0.33463
 Alpha virt. eigenvalues --    0.33646   0.34031   0.34280   0.34361   0.35032
 Alpha virt. eigenvalues --    0.35065   0.35842   0.36173   0.36440   0.36834
 Alpha virt. eigenvalues --    0.37359   0.37694   0.37915   0.38278   0.38325
 Alpha virt. eigenvalues --    0.38563   0.38992   0.39518   0.39632   0.39857
 Alpha virt. eigenvalues --    0.39895   0.40187   0.40579   0.40786   0.40972
 Alpha virt. eigenvalues --    0.41497   0.41799   0.41916   0.42136   0.42552
 Alpha virt. eigenvalues --    0.42688   0.43149   0.43255   0.43396   0.43524
 Alpha virt. eigenvalues --    0.44153   0.44455   0.44658   0.45126   0.45364
 Alpha virt. eigenvalues --    0.45664   0.46201   0.46344   0.46515   0.47036
 Alpha virt. eigenvalues --    0.47145   0.47860   0.48189   0.48430   0.48759
 Alpha virt. eigenvalues --    0.49218   0.49743   0.50010   0.50482   0.51306
 Alpha virt. eigenvalues --    0.51400   0.51964   0.52649   0.53231   0.53440
 Alpha virt. eigenvalues --    0.54139   0.55211   0.55453   0.56077   0.56245
 Alpha virt. eigenvalues --    0.56614   0.57076   0.57337   0.57642   0.58638
 Alpha virt. eigenvalues --    0.58791   0.59383   0.59674   0.60142   0.60675
 Alpha virt. eigenvalues --    0.60947   0.61111   0.61476   0.61642   0.61867
 Alpha virt. eigenvalues --    0.62292   0.62412   0.62668   0.62876   0.63634
 Alpha virt. eigenvalues --    0.63938   0.64091   0.64521   0.64647   0.65203
 Alpha virt. eigenvalues --    0.65618   0.66308   0.66494   0.66780   0.67224
 Alpha virt. eigenvalues --    0.68026   0.68394   0.68796   0.69131   0.69790
 Alpha virt. eigenvalues --    0.69869   0.70206   0.70288   0.70770   0.71271
 Alpha virt. eigenvalues --    0.71775   0.72148   0.72362   0.72852   0.73121
 Alpha virt. eigenvalues --    0.73636   0.74203   0.74647   0.75181   0.75744
 Alpha virt. eigenvalues --    0.76149   0.76544   0.77077   0.77629   0.77983
 Alpha virt. eigenvalues --    0.78443   0.78852   0.79473   0.80123   0.80859
 Alpha virt. eigenvalues --    0.81238   0.81352   0.81849   0.82063   0.82315
 Alpha virt. eigenvalues --    0.83362   0.83444   0.84026   0.84186   0.84507
 Alpha virt. eigenvalues --    0.84792   0.85621   0.85945   0.86561   0.87337
 Alpha virt. eigenvalues --    0.88094   0.88835   0.89091   0.89515   0.90418
 Alpha virt. eigenvalues --    0.90666   0.90976   0.91765   0.92219   0.92824
 Alpha virt. eigenvalues --    0.93305   0.93621   0.94437   0.95156   0.96197
 Alpha virt. eigenvalues --    0.96534   0.97077   0.97877   0.98796   0.99435
 Alpha virt. eigenvalues --    0.99839   1.00007   1.00287   1.01391   1.01719
 Alpha virt. eigenvalues --    1.02110   1.03047   1.03480   1.03818   1.04365
 Alpha virt. eigenvalues --    1.04845   1.05433   1.05625   1.06335   1.06632
 Alpha virt. eigenvalues --    1.06737   1.07568   1.07949   1.08364   1.09439
 Alpha virt. eigenvalues --    1.09836   1.10609   1.11434   1.11585   1.12486
 Alpha virt. eigenvalues --    1.12961   1.13219   1.14322   1.15457   1.15642
 Alpha virt. eigenvalues --    1.16259   1.16650   1.17270   1.17648   1.18345
 Alpha virt. eigenvalues --    1.18603   1.18904   1.19018   1.19699   1.20088
 Alpha virt. eigenvalues --    1.20256   1.21014   1.21361   1.22094   1.22506
 Alpha virt. eigenvalues --    1.22971   1.23991   1.24310   1.24813   1.25094
 Alpha virt. eigenvalues --    1.25514   1.25908   1.26798   1.27337   1.27394
 Alpha virt. eigenvalues --    1.28029   1.28930   1.29278   1.30363   1.31231
 Alpha virt. eigenvalues --    1.32126   1.33547   1.33844   1.35395   1.35831
 Alpha virt. eigenvalues --    1.35993   1.36372   1.36884   1.37761   1.38001
 Alpha virt. eigenvalues --    1.38481   1.38657   1.39881   1.40085   1.40672
 Alpha virt. eigenvalues --    1.41070   1.41911   1.42448   1.42728   1.43349
 Alpha virt. eigenvalues --    1.43586   1.44517   1.44650   1.45213   1.45985
 Alpha virt. eigenvalues --    1.46271   1.46622   1.47067   1.47463   1.47585
 Alpha virt. eigenvalues --    1.47871   1.48383   1.48979   1.49483   1.50402
 Alpha virt. eigenvalues --    1.50564   1.50856   1.51248   1.51669   1.52185
 Alpha virt. eigenvalues --    1.52575   1.53181   1.53849   1.54661   1.54803
 Alpha virt. eigenvalues --    1.55151   1.55594   1.56188   1.56703   1.57181
 Alpha virt. eigenvalues --    1.57664   1.58037   1.59196   1.59391   1.59813
 Alpha virt. eigenvalues --    1.60419   1.60559   1.60968   1.61392   1.62600
 Alpha virt. eigenvalues --    1.62766   1.63390   1.63680   1.63780   1.63989
 Alpha virt. eigenvalues --    1.64407   1.64767   1.65209   1.66156   1.66570
 Alpha virt. eigenvalues --    1.67369   1.67621   1.68235   1.68732   1.69182
 Alpha virt. eigenvalues --    1.69679   1.70423   1.70523   1.70814   1.70923
 Alpha virt. eigenvalues --    1.71635   1.72239   1.72911   1.74074   1.74619
 Alpha virt. eigenvalues --    1.75697   1.76190   1.77143   1.77628   1.78212
 Alpha virt. eigenvalues --    1.78603   1.80025   1.80358   1.80838   1.81169
 Alpha virt. eigenvalues --    1.82084   1.82188   1.83191   1.83922   1.84240
 Alpha virt. eigenvalues --    1.84930   1.85491   1.86335   1.86929   1.87412
 Alpha virt. eigenvalues --    1.88094   1.88709   1.89543   1.90235   1.91787
 Alpha virt. eigenvalues --    1.91831   1.91964   1.92557   1.93421   1.93960
 Alpha virt. eigenvalues --    1.94570   1.95227   1.96103   1.96601   1.97067
 Alpha virt. eigenvalues --    1.98553   1.98857   1.99225   1.99929   2.00487
 Alpha virt. eigenvalues --    2.01055   2.01559   2.02337   2.02906   2.03765
 Alpha virt. eigenvalues --    2.03889   2.04319   2.06170   2.06414   2.07669
 Alpha virt. eigenvalues --    2.08083   2.08528   2.09204   2.09546   2.09944
 Alpha virt. eigenvalues --    2.10277   2.10606   2.10868   2.12176   2.12825
 Alpha virt. eigenvalues --    2.13485   2.13950   2.14866   2.15469   2.15800
 Alpha virt. eigenvalues --    2.16290   2.17412   2.18044   2.18148   2.18934
 Alpha virt. eigenvalues --    2.19427   2.19811   2.20557   2.20800   2.22523
 Alpha virt. eigenvalues --    2.23179   2.23579   2.24615   2.24696   2.25586
 Alpha virt. eigenvalues --    2.26149   2.27372   2.27837   2.28182   2.28484
 Alpha virt. eigenvalues --    2.30109   2.31579   2.31933   2.32628   2.33134
 Alpha virt. eigenvalues --    2.33384   2.34457   2.34697   2.36441   2.37489
 Alpha virt. eigenvalues --    2.38339   2.38621   2.39298   2.40289   2.40947
 Alpha virt. eigenvalues --    2.41426   2.41985   2.42493   2.42923   2.43529
 Alpha virt. eigenvalues --    2.45136   2.45236   2.46230   2.46417   2.46690
 Alpha virt. eigenvalues --    2.46925   2.47333   2.48424   2.49433   2.50072
 Alpha virt. eigenvalues --    2.50694   2.51001   2.51615   2.52122   2.52551
 Alpha virt. eigenvalues --    2.52972   2.53298   2.53585   2.54034   2.54511
 Alpha virt. eigenvalues --    2.55512   2.55756   2.56222   2.56650   2.57116
 Alpha virt. eigenvalues --    2.57835   2.58029   2.59189   2.59280   2.59724
 Alpha virt. eigenvalues --    2.60129   2.60702   2.61190   2.61324   2.61491
 Alpha virt. eigenvalues --    2.61763   2.62052   2.62451   2.62921   2.63143
 Alpha virt. eigenvalues --    2.63430   2.64101   2.64267   2.64646   2.65197
 Alpha virt. eigenvalues --    2.65601   2.65905   2.66940   2.67676   2.67974
 Alpha virt. eigenvalues --    2.68548   2.68582   2.69146   2.69744   2.70167
 Alpha virt. eigenvalues --    2.70434   2.70662   2.71118   2.71579   2.72252
 Alpha virt. eigenvalues --    2.72769   2.73234   2.73578   2.73770   2.74806
 Alpha virt. eigenvalues --    2.75399   2.75868   2.76032   2.76351   2.76701
 Alpha virt. eigenvalues --    2.77070   2.77374   2.78022   2.79422   2.80000
 Alpha virt. eigenvalues --    2.80158   2.80350   2.80887   2.81253   2.82374
 Alpha virt. eigenvalues --    2.82601   2.82921   2.83616   2.84121   2.84774
 Alpha virt. eigenvalues --    2.85652   2.85865   2.86269   2.86722   2.87453
 Alpha virt. eigenvalues --    2.88271   2.88411   2.88903   2.89344   2.90234
 Alpha virt. eigenvalues --    2.90911   2.91431   2.92373   2.92739   2.93021
 Alpha virt. eigenvalues --    2.93552   2.94330   2.94527   2.95719   2.95978
 Alpha virt. eigenvalues --    2.96434   2.97034   2.97801   2.98413   2.98656
 Alpha virt. eigenvalues --    2.99137   2.99555   2.99801   3.00331   3.01762
 Alpha virt. eigenvalues --    3.02514   3.02727   3.03109   3.03833   3.04253
 Alpha virt. eigenvalues --    3.04362   3.04840   3.05353   3.05783   3.06392
 Alpha virt. eigenvalues --    3.06964   3.07095   3.07666   3.08005   3.08192
 Alpha virt. eigenvalues --    3.08591   3.09155   3.09537   3.10089   3.10718
 Alpha virt. eigenvalues --    3.11318   3.11418   3.12109   3.12573   3.12893
 Alpha virt. eigenvalues --    3.12915   3.13924   3.14398   3.15831   3.15924
 Alpha virt. eigenvalues --    3.16355   3.16724   3.17097   3.18149   3.18306
 Alpha virt. eigenvalues --    3.18741   3.19939   3.20046   3.20530   3.20888
 Alpha virt. eigenvalues --    3.21180   3.21501   3.22741   3.22807   3.23046
 Alpha virt. eigenvalues --    3.23273   3.23728   3.23910   3.24525   3.24654
 Alpha virt. eigenvalues --    3.25272   3.25765   3.26493   3.26619   3.27036
 Alpha virt. eigenvalues --    3.27229   3.28088   3.28482   3.29011   3.29353
 Alpha virt. eigenvalues --    3.29447   3.29968   3.30476   3.31247   3.31306
 Alpha virt. eigenvalues --    3.31761   3.32120   3.32658   3.33082   3.34386
 Alpha virt. eigenvalues --    3.34530   3.35093   3.35412   3.35715   3.36337
 Alpha virt. eigenvalues --    3.36884   3.37254   3.37799   3.37878   3.38638
 Alpha virt. eigenvalues --    3.39132   3.39366   3.39976   3.40342   3.40772
 Alpha virt. eigenvalues --    3.41155   3.41431   3.42274   3.42676   3.43008
 Alpha virt. eigenvalues --    3.43370   3.44268   3.44531   3.44905   3.45130
 Alpha virt. eigenvalues --    3.45488   3.45706   3.45899   3.46841   3.47118
 Alpha virt. eigenvalues --    3.48672   3.49138   3.49200   3.49631   3.50137
 Alpha virt. eigenvalues --    3.51236   3.51709   3.52065   3.52697   3.54255
 Alpha virt. eigenvalues --    3.55095   3.55362   3.55926   3.56945   3.58120
 Alpha virt. eigenvalues --    3.58711   3.59109   3.60325   3.60795   3.61371
 Alpha virt. eigenvalues --    3.61566   3.62505   3.64572   3.65476   3.66033
 Alpha virt. eigenvalues --    3.67496   3.68088   3.69286   3.69618   3.70799
 Alpha virt. eigenvalues --    3.71893   3.72056   3.74794   3.75378   3.75868
 Alpha virt. eigenvalues --    3.77501   3.78430   3.79040   3.79940   3.80280
 Alpha virt. eigenvalues --    3.81140   3.81844   3.82486   3.84340   3.85216
 Alpha virt. eigenvalues --    3.86077   3.87063   3.87348   3.88332   3.89682
 Alpha virt. eigenvalues --    3.90796   3.91113   3.91998   3.92189   3.92916
 Alpha virt. eigenvalues --    3.95671   3.96240   3.96636   3.97424   3.97763
 Alpha virt. eigenvalues --    3.98379   3.99426   3.99590   4.00409   4.00735
 Alpha virt. eigenvalues --    4.03234   4.03553   4.04644   4.05229   4.05649
 Alpha virt. eigenvalues --    4.05826   4.06113   4.06559   4.07561   4.08200
 Alpha virt. eigenvalues --    4.10115   4.10652   4.10946   4.11838   4.12039
 Alpha virt. eigenvalues --    4.12253   4.12467   4.12920   4.13269   4.13780
 Alpha virt. eigenvalues --    4.14215   4.14293   4.14841   4.15495   4.16226
 Alpha virt. eigenvalues --    4.16981   4.17402   4.18286   4.18869   4.19468
 Alpha virt. eigenvalues --    4.21471   4.22008   4.23224   4.24244   4.24634
 Alpha virt. eigenvalues --    4.26028   4.26224   4.28123   4.29249   4.30131
 Alpha virt. eigenvalues --    4.32017   4.33583   4.34621   4.35844   4.37599
 Alpha virt. eigenvalues --    4.38215   4.38975   4.40122   4.41801   4.42914
 Alpha virt. eigenvalues --    4.44057   4.45196   4.47705   4.48592   4.50193
 Alpha virt. eigenvalues --    4.51424   4.52540   4.53119   4.54098   4.54523
 Alpha virt. eigenvalues --    4.56122   4.57903   4.58318   4.61104   4.62345
 Alpha virt. eigenvalues --    4.63269   4.64633   4.67159   4.67724   4.69882
 Alpha virt. eigenvalues --    4.70992   4.72755   4.74518   4.75063   4.76556
 Alpha virt. eigenvalues --    4.77053   4.78861   4.81397   4.84012   4.84405
 Alpha virt. eigenvalues --    4.85643   4.86896   4.88149   4.90220   4.90724
 Alpha virt. eigenvalues --    4.92777   4.95383   4.97166   5.00101   5.01343
 Alpha virt. eigenvalues --    5.03896   5.04457   5.05705   5.07323   5.08482
 Alpha virt. eigenvalues --    5.08900   5.11227   5.13115   5.14125   5.14502
 Alpha virt. eigenvalues --    5.15075   5.17228   5.17780   5.18639   5.21997
 Alpha virt. eigenvalues --    5.23874   5.24658   5.25611   5.27721   5.28935
 Alpha virt. eigenvalues --    5.31281   5.33039   5.35491   5.36491   5.38035
 Alpha virt. eigenvalues --    5.40621   5.43075   5.43676   5.44616   5.45086
 Alpha virt. eigenvalues --    5.45891   5.49180   5.49689   5.51466   5.58948
 Alpha virt. eigenvalues --    5.61647   5.63013   5.63211   5.65650   5.66618
 Alpha virt. eigenvalues --    5.67983   5.70348   5.72591   5.73803   5.81326
 Alpha virt. eigenvalues --    5.89451   5.91299   5.98712   6.12190   6.16299
 Alpha virt. eigenvalues --    6.18300   6.23926   6.24040   6.30085   6.30219
 Alpha virt. eigenvalues --    6.38944   6.43439   6.49213   6.57329   6.60494
 Alpha virt. eigenvalues --    6.63659   6.64320   6.65371   6.72575   6.73550
 Alpha virt. eigenvalues --    6.82245   7.03403   7.11630   7.19854   7.28309
 Alpha virt. eigenvalues --   15.96355  22.05423  22.13274  22.17273  22.25700
 Alpha virt. eigenvalues --   22.30386  22.41696  22.44318  22.44806  22.46283
 Alpha virt. eigenvalues --   22.48333  22.50160  22.52124  22.54894  22.59384
 Alpha virt. eigenvalues --   22.60696  22.67504  22.71677  22.73881  22.75886
 Alpha virt. eigenvalues --   22.81072  22.91639  22.98781  23.13101  23.18212
 Alpha virt. eigenvalues --   23.20203  23.54231  33.10807  43.34740  43.51159
 Alpha virt. eigenvalues --   43.98565
          Condensed to atoms (all electrons):
 Mulliken charges:
               1
     1  C   -0.100311
     2  C   -0.160495
     3  C    0.101999
     4  C    0.120521
     5  C   -0.212288
     6  C   -0.127117
     7  C    0.104774
     8  C    0.233524
     9  C    0.041970
    10  C   -0.152080
    11  H    0.159465
    12  C   -0.109105
    13  C   -0.120314
    14  C   -0.208769
    15  H    0.151818
    16  H    0.160124
    17  H    0.159094
    18  H    0.146691
    19  H    0.151054
    20  H    0.145430
    21  H    0.158675
    22  N    0.285107
    23  C    0.052601
    24  C   -0.068628
    25  C   -0.275557
    26  C   -0.201329
    27  C   -0.093927
    28  C   -0.134683
    29  H    0.138838
    30  H    0.130481
    31  C    0.085905
    32  C   -0.227177
    33  C   -0.204876
    34  C   -0.239038
    35  H    0.136685
    36  C   -0.185103
    37  H    0.132175
    38  C    0.354194
    39  H    0.147980
    40  H    0.121934
    41  O   -0.231614
    42  C   -0.206200
    43  H    0.152380
    44  H    0.137000
    45  H    0.136838
    46  H    0.136278
    47  B    0.293418
    48  O   -0.427441
    49  O   -0.430595
    50  H    0.352338
    51  H    0.352715
    52  H    0.134642
 Sum of Mulliken charges =   1.00000
 Mulliken charges with hydrogens summed into heavy atoms:
               1
     1  C    0.051507
     2  C   -0.000371
     3  C    0.101999
     4  C    0.120521
     5  C   -0.053194
     6  C    0.019573
     7  C    0.104774
     8  C    0.233524
     9  C    0.041970
    10  C    0.007385
    12  C    0.041950
    13  C    0.025115
    14  C   -0.050094
    22  N    0.285107
    23  C    0.052601
    24  C   -0.068628
    25  C   -0.145076
    26  C   -0.066687
    27  C    0.044910
    28  C    0.001595
    31  C    0.085905
    32  C   -0.090492
    33  C   -0.072700
    34  C   -0.091058
    36  C   -0.063169
    38  C    0.354194
    41  O   -0.231614
    42  C    0.220019
    47  B    0.293418
    48  O   -0.075103
    49  O   -0.077881
 Electronic spatial extent (au):  <R**2>=          13639.3609
 Charge=              1.0000 electrons
 Dipole moment (field-independent basis, Debye):
    X=             -3.0390    Y=              1.8585    Z=              0.2993  Tot=              3.5748
 Quadrupole moment (field-independent basis, Debye-Ang):
   XX=           -110.8266   YY=           -140.2133   ZZ=           -162.5855
   XY=              8.7498   XZ=            -14.4049   YZ=              1.1036
[...]
 Alpha virt. eigenvalues --    0.49151   0.49506   0.50240   0.50426   0.51231
 Alpha virt. eigenvalues --    0.51471   0.52286   0.52893   0.53111   0.53297
 Alpha virt. eigenvalues --    0.54426   0.55308   0.55613   0.56197   0.56298
 Alpha virt. eigenvalues --    0.56596   0.57071   0.57795   0.57881   0.58806
 Alpha virt. eigenvalues --    0.59091   0.59371   0.59953   0.60205   0.60368
 Alpha virt. eigenvalues --    0.61094   0.61224   0.61330   0.61696   0.61992
 Alpha virt. eigenvalues --    0.62079   0.62689   0.62942   0.63250   0.63367
 Alpha virt. eigenvalues --    0.63755   0.64278   0.64534   0.64812   0.65224
 Alpha virt. eigenvalues --    0.65793   0.66107   0.66490   0.66915   0.67336
 Alpha virt. eigenvalues --    0.68252   0.68326   0.68748   0.69338   0.69951
 Alpha virt. eigenvalues --    0.70056   0.70127   0.70494   0.71011   0.71075
 Alpha virt. eigenvalues --    0.71926   0.72276   0.72599   0.72881   0.73385
 Alpha virt. eigenvalues --    0.73752   0.74115   0.74714   0.75289   0.75551
 Alpha virt. eigenvalues --    0.76164   0.76535   0.76940   0.77365   0.77627
 Alpha virt. eigenvalues --    0.78264   0.78842   0.79335   0.80349   0.80388
 Alpha virt. eigenvalues --    0.80802   0.81434   0.81791   0.81845   0.82235
 Alpha virt. eigenvalues --    0.83164   0.83449   0.83618   0.84016   0.84315
 Alpha virt. eigenvalues --    0.84799   0.85165   0.86163   0.86748   0.87090
 Alpha virt. eigenvalues --    0.87726   0.88968   0.89228   0.89440   0.90270
 Alpha virt. eigenvalues --    0.90597   0.90819   0.91628   0.91953   0.92515
 Alpha virt. eigenvalues --    0.93473   0.93866   0.94544   0.95428   0.95930
 Alpha virt. eigenvalues --    0.96405   0.97149   0.97787   0.98652   0.99055
 Alpha virt. eigenvalues --    0.99618   0.99956   1.00331   1.01170   1.01398
 Alpha virt. eigenvalues --    1.02184   1.02998   1.03234   1.03664   1.04203
 Alpha virt. eigenvalues --    1.04660   1.05220   1.05422   1.05765   1.06006
 Alpha virt. eigenvalues --    1.06867   1.07806   1.08125   1.08934   1.09363
 Alpha virt. eigenvalues --    1.09605   1.10404   1.11225   1.11368   1.12147
 Alpha virt. eigenvalues --    1.12731   1.12780   1.13989   1.15656   1.15902
 Alpha virt. eigenvalues --    1.16298   1.16951   1.17739   1.18077   1.18180
 Alpha virt. eigenvalues --    1.18724   1.18889   1.19303   1.19815   1.20066
 Alpha virt. eigenvalues --    1.20703   1.20848   1.21326   1.21943   1.22530
 Alpha virt. eigenvalues --    1.23118   1.23836   1.24087   1.24870   1.24959
 Alpha virt. eigenvalues --    1.25591   1.26297   1.26795   1.27127   1.27303
 Alpha virt. eigenvalues --    1.28332   1.29144   1.29649   1.30621   1.31269
 Alpha virt. eigenvalues --    1.32342   1.33317   1.33405   1.35388   1.35914
 Alpha virt. eigenvalues --    1.36152   1.36400   1.36923   1.37584   1.38204
 Alpha virt. eigenvalues --    1.38485   1.38971   1.39402   1.40048   1.40815
 Alpha virt. eigenvalues --    1.40949   1.41837   1.42168   1.42885   1.43455
 Alpha virt. eigenvalues --    1.43565   1.44491   1.44696   1.45449   1.45995
 Alpha virt. eigenvalues --    1.46409   1.46793   1.47527   1.47672   1.47865
 Alpha virt. eigenvalues --    1.48345   1.48638   1.48970   1.49929   1.50148
 Alpha virt. eigenvalues --    1.50718   1.50971   1.51366   1.51615   1.52595
 Alpha virt. eigenvalues --    1.52668   1.53078   1.53911   1.54522   1.54780
 Alpha virt. eigenvalues --    1.55190   1.55851   1.56464   1.56786   1.57271
 Alpha virt. eigenvalues --    1.57682   1.58147   1.59088   1.59460   1.59778
 Alpha virt. eigenvalues --    1.60309   1.60512   1.61035   1.61305   1.62442
 Alpha virt. eigenvalues --    1.62882   1.62972   1.63571   1.63965   1.64191
 Alpha virt. eigenvalues --    1.64469   1.64796   1.65628   1.66514   1.66980
 Alpha virt. eigenvalues --    1.67359   1.67660   1.68188   1.68916   1.69331
 Alpha virt. eigenvalues --    1.69940   1.70243   1.70689   1.70789   1.71364
 Alpha virt. eigenvalues --    1.71475   1.71866   1.72869   1.73721   1.74314
 Alpha virt. eigenvalues --    1.75505   1.75859   1.77207   1.77668   1.78602
 Alpha virt. eigenvalues --    1.78859   1.79819   1.80577   1.81144   1.81205
 Alpha virt. eigenvalues --    1.82066   1.82192   1.83317   1.83865   1.84404
 Alpha virt. eigenvalues --    1.85205   1.85995   1.86584   1.87078   1.87872
 Alpha virt. eigenvalues --    1.88371   1.88621   1.89905   1.90171   1.91266
 Alpha virt. eigenvalues --    1.91955   1.92497   1.92764   1.93739   1.94205
 Alpha virt. eigenvalues --    1.94649   1.95070   1.96692   1.97018   1.97502
 Alpha virt. eigenvalues --    1.98158   1.98918   1.99639   1.99692   2.00620
 Alpha virt. eigenvalues --    2.01192   2.01777   2.02329   2.02803   2.03629
 Alpha virt. eigenvalues --    2.04155   2.04180   2.05723   2.06281   2.07562
 Alpha virt. eigenvalues --    2.07718   2.08463   2.08900   2.09875   2.09916
 Alpha virt. eigenvalues --    2.10426   2.10558   2.11557   2.11890   2.12673
 Alpha virt. eigenvalues --    2.13633   2.14317   2.15294   2.15628   2.16054
 Alpha virt. eigenvalues --    2.16689   2.17561   2.17733   2.18396   2.19000
 Alpha virt. eigenvalues --    2.19060   2.20268   2.20642   2.21031   2.22193
 Alpha virt. eigenvalues --    2.23050   2.23194   2.24566   2.25032   2.25159
 Alpha virt. eigenvalues --    2.26532   2.26999   2.27507   2.28396   2.28553
 Alpha virt. eigenvalues --    2.30286   2.31361   2.31613   2.31956   2.32894
 Alpha virt. eigenvalues --    2.33420   2.34338   2.34765   2.36429   2.37627
 Alpha virt. eigenvalues --    2.37952   2.38567   2.39196   2.39396   2.40274
 Alpha virt. eigenvalues --    2.41345   2.41895   2.42621   2.42936   2.42968
 Alpha virt. eigenvalues --    2.44911   2.45236   2.46247   2.46832   2.47014
 Alpha virt. eigenvalues --    2.47173   2.47571   2.48639   2.49326   2.50003
 Alpha virt. eigenvalues --    2.50820   2.51462   2.51812   2.52425   2.52813
 Alpha virt. eigenvalues --    2.53176   2.53469   2.53689   2.54327   2.54701
 Alpha virt. eigenvalues --    2.55676   2.55951   2.56450   2.56920   2.57409
 Alpha virt. eigenvalues --    2.57688   2.58536   2.59132   2.59610   2.59756
 Alpha virt. eigenvalues --    2.60353   2.60980   2.61351   2.61509   2.61664
 Alpha virt. eigenvalues --    2.62033   2.62373   2.62508   2.62952   2.63075
 Alpha virt. eigenvalues --    2.63410   2.64338   2.64457   2.64744   2.65236
 Alpha virt. eigenvalues --    2.65732   2.65813   2.66817   2.67488   2.68142
 Alpha virt. eigenvalues --    2.68393   2.68729   2.69163   2.69830   2.69984
 Alpha virt. eigenvalues --    2.70641   2.70751   2.71393   2.72011   2.72177
 Alpha virt. eigenvalues --    2.72775   2.73140   2.73239   2.74104   2.75004
 Alpha virt. eigenvalues --    2.75537   2.75870   2.76168   2.76757   2.77085
 Alpha virt. eigenvalues --    2.77494   2.77893   2.78254   2.79632   2.80131
 Alpha virt. eigenvalues --    2.80253   2.80559   2.81007   2.81470   2.82674
 Alpha virt. eigenvalues --    2.83225   2.83400   2.83606   2.84660   2.84761
 Alpha virt. eigenvalues --    2.85789   2.85892   2.86471   2.86805   2.87831
 Alpha virt. eigenvalues --    2.88293   2.88591   2.88923   2.89202   2.90180
 Alpha virt. eigenvalues --    2.90211   2.91401   2.92212   2.92582   2.92937
 Alpha virt. eigenvalues --    2.93285   2.94003   2.94336   2.95586   2.95948
 Alpha virt. eigenvalues --    2.96211   2.96812   2.97926   2.98276   2.98912
 Alpha virt. eigenvalues --    2.99019   2.99683   2.99926   3.00407   3.01347
 Alpha virt. eigenvalues --    3.02328   3.02745   3.03031   3.03822   3.03965
 Alpha virt. eigenvalues --    3.04198   3.04556   3.05177   3.05822   3.06036
 Alpha virt. eigenvalues --    3.06573   3.07229   3.07762   3.07859   3.08206
 Alpha virt. eigenvalues --    3.08606   3.09342   3.09543   3.09944   3.10644
 Alpha virt. eigenvalues --    3.11202   3.11461   3.12004   3.12446   3.12593
 Alpha virt. eigenvalues --    3.13042   3.13574   3.14102   3.15900   3.16057
 Alpha virt. eigenvalues --    3.16316   3.16534   3.17239   3.17704   3.18272
 Alpha virt. eigenvalues --    3.19073   3.19469   3.20120   3.20221   3.21058
 Alpha virt. eigenvalues --    3.21304   3.21600   3.22275   3.22879   3.23409
 Alpha virt. eigenvalues --    3.23646   3.23888   3.23990   3.24640   3.24803
 Alpha virt. eigenvalues --    3.25116   3.26056   3.26432   3.26774   3.27194
 Alpha virt. eigenvalues --    3.27606   3.28364   3.28426   3.28741   3.29587
 Alpha virt. eigenvalues --    3.30048   3.30280   3.30471   3.31017   3.31192
 Alpha virt. eigenvalues --    3.31776   3.32226   3.32813   3.33209   3.34462
 Alpha virt. eigenvalues --    3.34961   3.35010   3.35574   3.35687   3.36468
 Alpha virt. eigenvalues --    3.36931   3.37174   3.37627   3.37871   3.38632
 Alpha virt. eigenvalues --    3.39011   3.39450   3.40005   3.40726   3.40791
 Alpha virt. eigenvalues --    3.41044   3.41585   3.42358   3.42525   3.42931
 Alpha virt. eigenvalues --    3.43430   3.44003   3.44450   3.44875   3.45070
 Alpha virt. eigenvalues --    3.45233   3.45478   3.45818   3.46565   3.47383
 Alpha virt. eigenvalues --    3.48518   3.49003   3.49167   3.49781   3.50491
 Alpha virt. eigenvalues --    3.51450   3.51598   3.52179   3.53267   3.54873
 Alpha virt. eigenvalues --    3.55261   3.55501   3.55848   3.57252   3.58232
 Alpha virt. eigenvalues --    3.58618   3.59445   3.60369   3.60545   3.60847
 Alpha virt. eigenvalues --    3.61631   3.62500   3.64274   3.65386   3.66030
 Alpha virt. eigenvalues --    3.67963   3.68228   3.69150   3.69575   3.70903
 Alpha virt. eigenvalues --    3.72093   3.72468   3.74605   3.75585   3.76071
 Alpha virt. eigenvalues --    3.77737   3.78655   3.79423   3.80290   3.80459
 Alpha virt. eigenvalues --    3.81352   3.82177   3.82902   3.84643   3.85603
 Alpha virt. eigenvalues --    3.86108   3.87128   3.87913   3.89124   3.90107
 Alpha virt. eigenvalues --    3.90705   3.91632   3.92547   3.92882   3.93400
 Alpha virt. eigenvalues --    3.95750   3.96408   3.97187   3.97656   3.98287
 Alpha virt. eigenvalues --    3.98770   4.00125   4.00695   4.00786   4.01289
 Alpha virt. eigenvalues --    4.03391   4.03428   4.04790   4.06203   4.06222
 Alpha virt. eigenvalues --    4.06546   4.06802   4.07265   4.07656   4.08769
 Alpha virt. eigenvalues --    4.10116   4.10934   4.10990   4.12046   4.12436
 Alpha virt. eigenvalues --    4.12710   4.12812   4.13409   4.13756   4.14064
 Alpha virt. eigenvalues --    4.14554   4.14863   4.15190   4.16329   4.16516
 Alpha virt. eigenvalues --    4.17309   4.18080   4.18918   4.19663   4.19736
 Alpha virt. eigenvalues --    4.21665   4.22583   4.23995   4.24494   4.25110
 Alpha virt. eigenvalues --    4.26543   4.27197   4.29545   4.29978   4.30670
 Alpha virt. eigenvalues --    4.33014   4.34115   4.34917   4.35487   4.36572
 Alpha virt. eigenvalues --    4.39303   4.39529   4.40670   4.42206   4.43165
 Alpha virt. eigenvalues --    4.44526   4.45837   4.47941   4.48691   4.51029
 Alpha virt. eigenvalues --    4.51919   4.53117   4.53655   4.54576   4.55326
 Alpha virt. eigenvalues --    4.56477   4.58551   4.58951   4.61770   4.62775
 Alpha virt. eigenvalues --    4.63382   4.64701   4.68133   4.68877   4.70745
 Alpha virt. eigenvalues --    4.71062   4.72587   4.74896   4.75233   4.77515
 Alpha virt. eigenvalues --    4.77757   4.79087   4.81670   4.84410   4.84607
 Alpha virt. eigenvalues --    4.85881   4.87030   4.88689   4.90474   4.90968
 Alpha virt. eigenvalues --    4.93351   4.96192   4.97504   5.01413   5.02666
 Alpha virt. eigenvalues --    5.04537   5.05256   5.06304   5.07775   5.09128
 Alpha virt. eigenvalues --    5.09848   5.11730   5.12920   5.14063   5.14391
 Alpha virt. eigenvalues --    5.15224   5.17594   5.18280   5.18875   5.21401
 Alpha virt. eigenvalues --    5.23686   5.24685   5.26479   5.27390   5.28412
 Alpha virt. eigenvalues --    5.32025   5.33319   5.35240   5.36413   5.38170
 Alpha virt. eigenvalues --    5.39462   5.43770   5.44057   5.44365   5.44667
 Alpha virt. eigenvalues --    5.46583   5.47745   5.49268   5.49989   5.59256
 Alpha virt. eigenvalues --    5.60632   5.61735   5.63482   5.65532   5.65851
 Alpha virt. eigenvalues --    5.66444   5.69411   5.73055   5.74329   5.76513
 Alpha virt. eigenvalues --    5.86757   5.91877   5.98862   6.12651   6.14751
 Alpha virt. eigenvalues --    6.16784   6.20321   6.21792   6.28341   6.31083
 Alpha virt. eigenvalues --    6.37493   6.38658   6.49088   6.56489   6.59691
 Alpha virt. eigenvalues --    6.62548   6.63022   6.64421   6.70880   6.72741
 Alpha virt. eigenvalues --    6.80965   7.02342   7.10170   7.17916   7.27973
 Alpha virt. eigenvalues --   15.87613  22.08010  22.13423  22.15820  22.26026
 Alpha virt. eigenvalues --   22.31698  22.43558  22.46113  22.46414  22.47576
 Alpha virt. eigenvalues --   22.49657  22.52261  22.53592  22.57033  22.60095
 Alpha virt. eigenvalues --   22.61922  22.69305  22.72989  22.73720  22.76026
 Alpha virt. eigenvalues --   22.82682  22.92926  23.00871  23.12810  23.19357
 Alpha virt. eigenvalues --   23.21606  23.56284  33.11175  43.32719  43.47621
 Alpha virt. eigenvalues --   43.96415
          Condensed to atoms (all electrons):
 Mulliken charges:
               1
     1  C   -0.094717
     2  C   -0.162732
     3  C    0.109145
     4  C    0.094813
     5  C   -0.195678
     6  C   -0.128361
     7  C    0.132167
     8  C    0.216639
     9  C    0.045065
    10  C   -0.153436
    11  H    0.158768
    12  C   -0.104577
    13  C   -0.116428
    14  C   -0.209246
    15  H    0.151735
    16  H    0.159213
    17  H    0.157022
    18  H    0.146070
    19  H    0.151151
    20  H    0.145121
    21  H    0.155694
    22  N    0.286009
    23  C    0.015090
    24  C   -0.042698
    25  C   -0.259683
    26  C   -0.194681
    27  C   -0.100612
    28  C   -0.130964
    29  H    0.138165
    30  H    0.127352
    31  C    0.090505
    32  C   -0.230492
    33  C   -0.200336
    34  C   -0.233581
    35  H    0.136592
    36  C   -0.189387
    37  H    0.132349
    38  C    0.357479
    39  H    0.147534
    40  H    0.122198
    41  O   -0.241965
    42  C   -0.206056
    43  H    0.152095
    44  H    0.139332
    45  H    0.139484
    46  H    0.136023
    47  B    0.301190
    48  O   -0.432265
    49  O   -0.452150
    50  H    0.349828
    51  H    0.352701
    52  H    0.133517
 Sum of Mulliken charges =   1.00000
 Mulliken charges with hydrogens summed into heavy atoms:
               1
     1  C    0.057018
     2  C   -0.003519
     3  C    0.109145
     4  C    0.094813
     5  C   -0.038656
     6  C    0.017709
     7  C    0.132167
     8  C    0.216639
     9  C    0.045065
    10  C    0.005332
    12  C    0.046574
    13  C    0.028693
    14  C   -0.053552
    22  N    0.286009
    23  C    0.015090
    24  C   -0.042698
    25  C   -0.132331
    26  C   -0.061164
    27  C    0.037553
    28  C    0.005059
    31  C    0.090505
    32  C   -0.093901
    33  C   -0.067987
    34  C   -0.086048
    36  C   -0.067189
    38  C    0.357479
    41  O   -0.241965
    42  C    0.224856
    47  B    0.301190
    48  O   -0.082438
    49  O   -0.099449
 Electronic spatial extent (au):  <R**2>=          13669.8430
 Charge=              1.0000 electrons
 Dipole moment (field-independent basis, Debye):
    X=             -3.3689    Y=              1.7830    Z=             -0.1304  Tot=              3.8139
 Quadrupole moment (field-independent basis, Debye-Ang):
   XX=           -114.6402   YY=           -140.9911   ZZ=           -162.1739
   XY=              8.1922   XZ=            -16.6588   YZ=              1.5356
 Traceless Quadrupole moment (field-independent basis, Debye-Ang):
   XX=             24.6282   YY=             -1.7227   ZZ=            -22.9055
   XY=              8.1922   XZ=            -16.6588   YZ=              1.5356
 Octapole moment (field-independent basis, Debye-Ang**2):
  XXX=           -173.5576  YYY=              7.1300  ZZZ=             26.5582  XYY=             -6.6751
  XXY=             10.4198  XXZ=             67.0125  XZZ=            -17.5693  YZZ=            -13.6704
  YYZ=              4.1489  XYZ=             -4.8905
 Hexadecapole moment (field-independent basis, Debye-Ang**3):
 XXXX=         -10736.3046 YYYY=          -2603.8340 ZZZZ=          -1381.8834 XXXY=            299.9954
 XXXZ=           -812.0505 YYYX=            -25.9475 YYYZ=            112.5888 ZZZX=             69.7650
 ZZZY=           -135.8666 XXYY=          -2812.4408 XXZZ=          -2208.5984 YYZZ=           -766.2888
 XXYZ=           -104.9008 YYXZ=              3.3308 ZZXY=            -18.7711
 N-N= 2.871051310297D+03 E-N=-8.763177403335D+03  KE= 1.302139410198D+03
 Leave Link  601 at Tue Mar 30 13:49:37 2021, MaxMem=  5242880000 cpu:         7.4
 (Enter /opt/nce/packages/global/g09/l9999.exe)
 1\1\GINC-CN032\SP\RB97D3 TD-FC\Gen\C26H21B1N1O3(1+)\PNG4RJV\30-Mar-202
 1\0\\#p B97D3 chkbasis geom=allcheck Guess=Read int=ultrafine scrf=(SM
 D,solvent=Acetonitrile) td=(NStates=30)\\Title\\1,1\C,0,-0.6287674269,
 3.6800027471,0.4513680368\C,0,-1.2653990586,2.487652658,0.185746313\C,
 0,-0.5025055835,1.3306525588,-0.0894407061\C,0,0.9314043335,1.41009929
 57,-0.1099290693\C,0,1.5438786995,2.6619004625,0.1933392181\C,0,0.7832
 279007,3.7709318988,0.4654328433\C,0,1.6896160985,0.2529576164,-0.3909
 986542\C,0,1.0280836169,-0.9657745742,-0.6537460678\C,0,-0.4059487519,
 -1.0183836476,-0.6034769501\C,0,-1.0724412451,-2.2413023976,-0.8400360
 24\H,0,-2.1531821625,-2.2840083709,-0.7942636128\C,0,-0.3426316679,-3.
 373144519,-1.1302362383\C,0,1.0696554269,-3.3360907423,-1.2057826157\C
 ,0,1.7373858549,-2.1597551156,-0.9751390496\H,0,-1.2254878766,4.563106
 6074,0.6622660888\H,0,-2.3465494675,2.4312365384,0.1907315596\H,0,2.62
 60667908,2.719641703,0.2074239373\H,0,1.2609428956,4.7187646512,0.6946
 675559\H,0,-0.8657519489,-4.3081202383,-1.310955648\H,0,1.6211261477,-
 4.2390535276,-1.4501410151\H,0,2.8186693741,-2.1204324199,-1.037311101
 3\N,0,-1.1166934948,0.1245087964,-0.3246529924\C,0,3.1747395932,0.3166
 786981,-0.4127197091\C,0,3.9450787262,-0.2600688704,0.6222935214\C,0,3
 .7934807858,0.9315656095,-1.5085511268\C,0,5.3447277666,-0.1966465571,
 0.5049200403\C,0,5.1836742007,0.9804768739,-1.5956799325\C,0,5.9624181
 432,0.4164353622,-0.5845642524\H,0,5.6538776121,1.4561181769,-2.452490
 5788\H,0,3.1798256114,1.3603112908,-2.2961345658\C,0,-2.5651960085,0.0
 509078765,-0.2616671147\C,0,-3.1799098304,-0.2176182373,0.9544065642\C
 ,0,-3.3145934519,0.2500075373,-1.4205920081\C,0,-4.5708195706,-0.29010
 57516,1.0270625423\H,0,-2.5755405662,-0.3711318209,1.8437681074\C,0,-4
 .6990849794,0.1801697703,-1.3557112509\H,0,-2.8129726909,0.4581631157,
 -2.3611195201\C,0,-5.3378549465,-0.0895900181,-0.1315713723\H,0,-5.040
 965163,-0.5013365903,1.980055785\H,0,-5.3032008556,0.3331629749,-2.245
 3393662\O,0,-6.6931396149,-0.1360116256,-0.1689614026\C,0,-7.395628678
 1,-0.4090942222,1.0556040233\H,0,-8.4552465823,-0.3951398737,0.7935922
 107\H,0,-7.1256990984,-1.3955130093,1.4516544612\H,0,-7.1905895443,0.3
 629195104,1.8070460281\H,0,7.047174539,0.4530267097,-0.64552927\B,0,3.
 3176790657,-0.933940533,1.9065083552\O,0,2.2100516197,-0.4545988983,2.
 5755880659\O,0,3.9325865928,-2.0581334673,2.405046787\H,0,1.8627655777
 ,0.3759578535,2.2188269461\H,0,3.5084152036,-2.3789999049,3.2173518663
 \H,0,5.9592470884,-0.6321749604,1.2888923573\\Version=ES64L-G09RevE.01
 \State=1-A\HF=-1308.3426239\RMSD=4.030e-09\PG=C01 [X(C26H21B1N1O3)]\\@


 THE MOST SERIOUS THREAT TO THE SURVIVAL OF MANKIND IS NOT NOW
 IGNORANCE IN THE TRADITIONAL SENSE,
 BUT A MORALLY NEUTRAL, AN INSENSITIVE OR INHIBITED HUMAN INTELLIGENCE.

                     -- MARGO JEFFERSON IN NEWSWEEK, SEPTEMBER 2, 1974
 Job cpu time:       1 days 11 hours 47 minutes 38.9 seconds.
 File lengths (MBytes):  RWF=   4670 Int=      0 D2E=      0 Chk=   1053 Scr=      1
 Normal termination of Gaussian 09 at Tue Mar 30 13:49:39 2021.
