 Entering Gaussian System, Link 0=g09
 Input=/home/png4rjv/fotokatalizis/benchmark/OPCs/BOH-Acr_o_PBE-D3_def2TZVP.gjf
 Output=/home/png4rjv/fotokatalizis/benchmark/OPCs/BOH-Acr_o_PBE-D3_def2TZVP.log
 Initial command:
 /opt/nce/packages/global/g09/l1.exe "/home/png4rjv/fotokatalizis/benchmark/OPCs/BOH-Acr_o_PBE-D3_def2TZVP/Gau-59388.inp" -scrdir="/home/png4rjv/fotokatalizis/benchmark/OPCs/BOH-Acr_o_PBE-D3_def2TZVP/"
 Default is to use a total of  12 processors:
                               12 via shared-memory
                                1 via Linda
 Entering Link 1 = /opt/nce/packages/global/g09/l1.exe PID=     59389.
  
 Copyright (c) 1988,1990,1992,1993,1995,1998,2003,2009,2015,
            Gaussian, Inc.  All Rights Reserved.
  
 This is part of the Gaussian(R) 09 program.  It is based on
 the Gaussian(R) 03 system (copyright 2003, Gaussian, Inc.),
 the Gaussian(R) 98 system (copyright 1998, Gaussian, Inc.),
 the Gaussian(R) 94 system (copyright 1995, Gaussian, Inc.),
 the Gaussian 92(TM) system (copyright 1992, Gaussian, Inc.),
 the Gaussian 90(TM) system (copyright 1990, Gaussian, Inc.),
 the Gaussian 88(TM) system (copyright 1988, Gaussian, Inc.),
 the Gaussian 86(TM) system (copyright 1986, Carnegie Mellon
 University), and the Gaussian 82(TM) system (copyright 1983,
 Carnegie Mellon University). Gaussian is a federally registered
 trademark of Gaussian, Inc.
  
 This software contains proprietary and confidential information,
 including trade secrets, belonging to Gaussian, Inc.
  
 This software is provided under written license and may be
 used, copied, transmitted, or stored only in accord with that
 written license.
  
 The following legend is applicable only to US Government
 contracts under FAR:
  
                    RESTRICTED RIGHTS LEGEND
  
 Use, reproduction and disclosure by the US Government is
 subject to restrictions as set forth in subparagraphs (a)
 and (c) of the Commercial Computer Software - Restricted
 Rights clause in FAR 52.227-19.
  
 Gaussian, Inc.
 340 Quinnipiac St., Bldg. 40, Wallingford CT 06492
  
  
 ---------------------------------------------------------------
 Warning -- This program may not be used in any manner that
 competes with the business of Gaussian, Inc. or will provide
 assistance to any competitor of Gaussian, Inc.  The licensee
 of this program is prohibited from giving any competitor of
 Gaussian, Inc. access to this program.  By using this program,
 the user acknowledges that Gaussian, Inc. is engaged in the
 business of creating and licensing software in the field of
 computational chemistry and represents and warrants to the
 licensee that it is not a competitor of Gaussian, Inc. and that
 it will not use this program in any manner prohibited above.
 ---------------------------------------------------------------
  

 Cite this work as:
 Gaussian 09, Revision E.01,
 M. J. Frisch, G. W. Trucks, H. B. Schlegel, G. E. Scuseria, 
 M. A. Robb, J. R. Cheeseman, G. Scalmani, V. Barone, B. Mennucci, 
 G. A. Petersson, H. Nakatsuji, M. Caricato, X. Li, H. P. Hratchian, 
 A. F. Izmaylov, J. Bloino, G. Zheng, J. L. Sonnenberg, M. Hada, 
 M. Ehara, K. Toyota, R. Fukuda, J. Hasegawa, M. Ishida, T. Nakajima, 
 Y. Honda, O. Kitao, H. Nakai, T. Vreven, J. A. Montgomery, Jr., 
 J. E. Peralta, F. Ogliaro, M. Bearpark, J. J. Heyd, E. Brothers, 
 K. N. Kudin, V. N. Staroverov, T. Keith, R. Kobayashi, J. Normand, 
 K. Raghavachari, A. Rendell, J. C. Burant, S. S. Iyengar, J. Tomasi, 
 M. Cossi, N. Rega, J. M. Millam, M. Klene, J. E. Knox, J. B. Cross, 
 V. Bakken, C. Adamo, J. Jaramillo, R. Gomperts, R. E. Stratmann, 
 O. Yazyev, A. J. Austin, R. Cammi, C. Pomelli, J. W. Ochterski, 
 R. L. Martin, K. Morokuma, V. G. Zakrzewski, G. A. Voth, 
 P. Salvador, J. J. Dannenberg, S. Dapprich, A. D. Daniels, 
 O. Farkas, J. B. Foresman, J. V. Ortiz, J. Cioslowski, 
 and D. J. Fox, Gaussian, Inc., Wallingford CT, 2013.
 
 ******************************************
 Gaussian 09:  ES64L-G09RevE.01 30-Nov-2015
                27-Mar-2021 
 ******************************************
 %chk=cp.chk
 Default route:  MaxDisk=500GB
 ----------------------------------------------------------------------
 #p PBEPBE/def2TZVP opt freq=noraman nosymm int=ultrafine scrf=(SMD,sol
 vent=Acetonitrile) EmpiricalDispersion=GD3BJ
 ----------------------------------------------------------------------
 1/14=-1,18=20,19=15,26=4,38=1/1,3;
 2/9=110,12=2,15=1,17=6,18=5,40=1/2;
 3/5=44,7=101,11=2,16=1,25=1,30=1,70=32201,71=1,72=2,74=1009,75=-5,124=41/1,2,3;
 4//1;
 5/5=2,38=5,53=2/2;
 6/7=2,8=2,9=2,10=2,28=1/1;
 7/30=1/1,2,3,16;
 1/14=-1,18=20,19=15,26=4/3(2);
 2/9=110,15=1/2;
 99//99;
 2/9=110,15=1/2;
 3/5=44,7=101,11=2,16=1,25=1,30=1,70=32205,71=1,72=2,74=1009,75=-5,124=41/1,2,3;
 4/5=5,16=3,69=1/1;
 5/5=2,38=5,53=2/2;
 7/30=1/1,2,3,16;
 1/14=-1,18=20,19=15,26=4/3(-5);
 2/9=110,15=1/2;
 6/7=2,8=2,9=2,10=2,19=2,28=1/1;
 99/9=1/99;
 Leave Link    1 at Sat Mar 27 01:15:20 2021, MaxMem=           0 cpu:         1.0
 (Enter /opt/nce/packages/global/g09/l101.exe)
 -----
 Title
 -----
 Symbolic Z-matrix:
 Charge =  1 Multiplicity = 1
 C                    -0.6469    3.72165   0.38323 
 C                    -1.27504   2.51563   0.154 
 C                    -0.503     1.3544   -0.10022 
 C                     0.92966   1.44814  -0.13535 
 C                     1.53448   2.7162    0.13158 
 C                     0.7667    3.82729   0.38241 
 C                     1.70098   0.28815  -0.3948 
 C                     1.04339  -0.94526  -0.62123 
 C                    -0.38954  -1.00783  -0.55451 
 C                    -1.0479   -2.24559  -0.7564 
 H                    -2.13284  -2.2954   -0.69789 
 C                    -0.30957  -3.37821  -1.0293 
 C                     1.10345  -3.3305   -1.12502 
 C                     1.76224  -2.14143  -0.92954 
 H                    -1.25327   4.60885   0.57803 
 H                    -2.36054   2.4475    0.16987 
 H                     2.62181   2.7823    0.13272 
 H                     1.24008   4.78962   0.584 
 H                    -0.82838  -4.32677  -1.1839 
 H                     1.66386  -4.23673  -1.36013 
 H                     2.84672  -2.09237  -1.01077 
 N                    -1.10962   0.1366   -0.29846 
 C                     3.18437   0.35429  -0.41315 
 C                     3.93742  -0.31087   0.58451 
 C                     3.8242    1.04051  -1.45757 
 C                     5.33795  -0.2696    0.48442 
 C                     5.21789   1.06701  -1.52792 
 C                     5.97625   0.41115  -0.55492 
 H                     5.70965   1.59408  -2.34828 
 H                     3.22812   1.53382  -2.22875 
 C                    -2.55496   0.05535  -0.23479 
 C                    -3.17854  -0.2025    0.98376 
 C                    -3.3105    0.23534  -1.39981 
 C                    -4.57076  -0.28339   1.05296 
 H                    -2.57734  -0.3428    1.88446 
 C                    -4.69432   0.15667  -1.33753 
 H                    -2.81057   0.43592  -2.34949 
 C                    -5.34108  -0.10364  -0.11106 
 H                    -5.04342  -0.48612   2.01281 
 H                    -5.30996   0.29248  -2.22779 
 O                    -6.67877  -0.1611   -0.15255 
 C                    -7.4114   -0.41961   1.03379 
 H                    -8.47005  -0.41808   0.74812 
 H                    -7.15189  -1.4038    1.45942 
 H                    -7.23882   0.36393   1.79104 
 H                     7.06693   0.42788  -0.60856 
 B                     3.26961  -1.05255   1.80739 
 O                     2.17837  -0.56384   2.47447 
 O                     3.80783  -2.23037   2.20333 
 H                     1.9285    0.33326   2.22617 
 H                     3.38389  -2.59384   2.99364 
 H                     5.93466  -0.78462   1.24044 
 
 NAtoms=     52 NQM=       52 NQMF=       0 NMMI=      0 NMMIF=      0
                NMic=       0 NMicF=      0.
                    Isotopes and Nuclear Properties:
 (Nuclear quadrupole moments (NQMom) in fm**2, nuclear magnetic moments (NMagM)
  in nuclear magnetons)

  Atom         1           2           3           4           5           6           7           8           9          10
 IAtWgt=          12          12          12          12          12          12          12          12          12          12
 AtmWgt=  12.0000000  12.0000000  12.0000000  12.0000000  12.0000000  12.0000000  12.0000000  12.0000000  12.0000000  12.0000000
 NucSpn=           0           0           0           0           0           0           0           0           0           0
 AtZEff=   0.0000000   0.0000000   0.0000000   0.0000000   0.0000000   0.0000000   0.0000000   0.0000000   0.0000000   0.0000000
 NQMom=    0.0000000   0.0000000   0.0000000   0.0000000   0.0000000   0.0000000   0.0000000   0.0000000   0.0000000   0.0000000
 NMagM=    0.0000000   0.0000000   0.0000000   0.0000000   0.0000000   0.0000000   0.0000000   0.0000000   0.0000000   0.0000000
 AtZNuc=   6.0000000   6.0000000   6.0000000   6.0000000   6.0000000   6.0000000   6.0000000   6.0000000   6.0000000   6.0000000

  Atom        11          12          13          14          15          16          17          18          19          20
 IAtWgt=           1          12          12          12           1           1           1           1           1           1
 AtmWgt=   1.0078250  12.0000000  12.0000000  12.0000000   1.0078250   1.0078250   1.0078250   1.0078250   1.0078250   1.0078250
 NucSpn=           1           0           0           0           1           1           1           1           1           1
 AtZEff=   0.0000000   0.0000000   0.0000000   0.0000000   0.0000000   0.0000000   0.0000000   0.0000000   0.0000000   0.0000000
 NQMom=    0.0000000   0.0000000   0.0000000   0.0000000   0.0000000   0.0000000   0.0000000   0.0000000   0.0000000   0.0000000
 NMagM=    2.7928460   0.0000000   0.0000000   0.0000000   2.7928460   2.7928460   2.7928460   2.7928460   2.7928460   2.7928460
 AtZNuc=   1.0000000   6.0000000   6.0000000   6.0000000   1.0000000   1.0000000   1.0000000   1.0000000   1.0000000   1.0000000

  Atom        21          22          23          24          25          26          27          28          29          30
 IAtWgt=           1          14          12          12          12          12          12          12           1           1
 AtmWgt=   1.0078250  14.0030740  12.0000000  12.0000000  12.0000000  12.0000000  12.0000000  12.0000000   1.0078250   1.0078250
 NucSpn=           1           2           0           0           0           0           0           0           1           1
 AtZEff=   0.0000000   0.0000000   0.0000000   0.0000000   0.0000000   0.0000000   0.0000000   0.0000000   0.0000000   0.0000000
 NQMom=    0.0000000   2.0440000   0.0000000   0.0000000   0.0000000   0.0000000   0.0000000   0.0000000   0.0000000   0.0000000
 NMagM=    2.7928460   0.4037610   0.0000000   0.0000000   0.0000000   0.0000000   0.0000000   0.0000000   2.7928460   2.7928460
 AtZNuc=   1.0000000   7.0000000   6.0000000   6.0000000   6.0000000   6.0000000   6.0000000   6.0000000   1.0000000   1.0000000

  Atom        31          32          33          34          35          36          37          38          39          40
 IAtWgt=          12          12          12          12           1          12           1          12           1           1
 AtmWgt=  12.0000000  12.0000000  12.0000000  12.0000000   1.0078250  12.0000000   1.0078250  12.0000000   1.0078250   1.0078250
 NucSpn=           0           0           0           0           1           0           1           0           1           1
 AtZEff=   0.0000000   0.0000000   0.0000000   0.0000000   0.0000000   0.0000000   0.0000000   0.0000000   0.0000000   0.0000000
 NQMom=    0.0000000   0.0000000   0.0000000   0.0000000   0.0000000   0.0000000   0.0000000   0.0000000   0.0000000   0.0000000
 NMagM=    0.0000000   0.0000000   0.0000000   0.0000000   2.7928460   0.0000000   2.7928460   0.0000000   2.7928460   2.7928460
 AtZNuc=   6.0000000   6.0000000   6.0000000   6.0000000   1.0000000   6.0000000   1.0000000   6.0000000   1.0000000   1.0000000

  Atom        41          42          43          44          45          46          47          48          49          50
 IAtWgt=          16          12           1           1           1           1          11          16          16           1
 AtmWgt=  15.9949146  12.0000000   1.0078250   1.0078250   1.0078250   1.0078250  11.0093053  15.9949146  15.9949146   1.0078250
 NucSpn=           0           0           1           1           1           1           3           0           0           1
 AtZEff=   0.0000000   0.0000000   0.0000000   0.0000000   0.0000000   0.0000000   0.0000000   0.0000000   0.0000000   0.0000000
 NQMom=    0.0000000   0.0000000   0.0000000   0.0000000   0.0000000   0.0000000   4.0590000   0.0000000   0.0000000   0.0000000
 NMagM=    0.0000000   0.0000000   2.7928460   2.7928460   2.7928460   2.7928460   2.6886370   0.0000000   0.0000000   2.7928460
 AtZNuc=   8.0000000   6.0000000   1.0000000   1.0000000   1.0000000   1.0000000   5.0000000   8.0000000   8.0000000   1.0000000

  Atom        51          52
 IAtWgt=           1           1
 AtmWgt=   1.0078250   1.0078250
 NucSpn=           1           1
 AtZEff=   0.0000000   0.0000000
 NQMom=    0.0000000   0.0000000
 NMagM=    2.7928460   2.7928460
 AtZNuc=   1.0000000   1.0000000
 Leave Link  101 at Sat Mar 27 01:15:20 2021, MaxMem=  5242880000 cpu:         4.3
 (Enter /opt/nce/packages/global/g09/l103.exe)

 GradGradGradGradGradGradGradGradGradGradGradGradGradGradGradGradGradGrad
 Berny optimization.
 Initialization pass.
                           ----------------------------
                           !    Initial Parameters    !
                           ! (Angstroms and Degrees)  !
 --------------------------                            --------------------------
 ! Name  Definition              Value          Derivative Info.                !
 --------------------------------------------------------------------------------
 ! R1    R(1,2)                  1.379          estimate D2E/DX2                !
 ! R2    R(1,6)                  1.4175         estimate D2E/DX2                !
 ! R3    R(1,15)                 1.0921         estimate D2E/DX2                !
 ! R4    R(2,3)                  1.4174         estimate D2E/DX2                !
 ! R5    R(2,16)                 1.0877         estimate D2E/DX2                !
 ! R6    R(3,4)                  1.4361         estimate D2E/DX2                !
 ! R7    R(3,22)                 1.3749         estimate D2E/DX2                !
 ! R8    R(4,5)                  1.43           estimate D2E/DX2                !
 ! R9    R(4,7)                  1.417          estimate D2E/DX2                !
 ! R10   R(5,6)                  1.3737         estimate D2E/DX2                !
 ! R11   R(5,17)                 1.0893         estimate D2E/DX2                !
 ! R12   R(6,18)                 1.0912         estimate D2E/DX2                !
 ! R13   R(7,8)                  1.416          estimate D2E/DX2                !
 ! R14   R(7,23)                 1.485          estimate D2E/DX2                !
 ! R15   R(8,9)                  1.4358         estimate D2E/DX2                !
 ! R16   R(8,14)                 1.4292         estimate D2E/DX2                !
 ! R17   R(9,10)                 1.4164         estimate D2E/DX2                !
 ! R18   R(9,22)                 1.3762         estimate D2E/DX2                !
 ! R19   R(10,11)                1.0877         estimate D2E/DX2                !
 ! R20   R(10,12)                1.3793         estimate D2E/DX2                !
 ! R21   R(12,13)                1.4171         estimate D2E/DX2                !
 ! R22   R(12,19)                1.0922         estimate D2E/DX2                !
 ! R23   R(13,14)                1.3734         estimate D2E/DX2                !
 ! R24   R(13,20)                1.0911         estimate D2E/DX2                !
 ! R25   R(14,21)                1.0886         estimate D2E/DX2                !
 ! R26   R(22,31)                1.449          estimate D2E/DX2                !
 ! R27   R(23,24)                1.4159         estimate D2E/DX2                !
 ! R28   R(23,25)                1.404          estimate D2E/DX2                !
 ! R29   R(24,26)                1.4047         estimate D2E/DX2                !
 ! R30   R(24,47)                1.5784         estimate D2E/DX2                !
 ! R31   R(25,27)                1.3957         estimate D2E/DX2                !
 ! R32   R(25,30)                1.0924         estimate D2E/DX2                !
 ! R33   R(26,28)                1.3968         estimate D2E/DX2                !
 ! R34   R(26,52)                1.0922         estimate D2E/DX2                !
 ! R35   R(27,28)                1.3971         estimate D2E/DX2                !
 ! R36   R(27,29)                1.0921         estimate D2E/DX2                !
 ! R37   R(28,46)                1.0921         estimate D2E/DX2                !
 ! R38   R(31,32)                1.3929         estimate D2E/DX2                !
 ! R39   R(31,33)                1.4002         estimate D2E/DX2                !
 ! R40   R(32,34)                1.3963         estimate D2E/DX2                !
 ! R41   R(32,35)                1.092          estimate D2E/DX2                !
 ! R42   R(33,36)                1.3875         estimate D2E/DX2                !
 ! R43   R(33,37)                1.0918         estimate D2E/DX2                !
 ! R44   R(34,38)                1.4074         estimate D2E/DX2                !
 ! R45   R(34,39)                1.089          estimate D2E/DX2                !
 ! R46   R(36,38)                1.4108         estimate D2E/DX2                !
 ! R47   R(36,40)                1.0909         estimate D2E/DX2                !
 ! R48   R(38,41)                1.3396         estimate D2E/DX2                !
 ! R49   R(41,42)                1.4181         estimate D2E/DX2                !
 ! R50   R(42,43)                1.0965         estimate D2E/DX2                !
 ! R51   R(42,44)                1.1032         estimate D2E/DX2                !
 ! R52   R(42,45)                1.1032         estimate D2E/DX2                !
 ! R53   R(47,48)                1.3692         estimate D2E/DX2                !
 ! R54   R(47,49)                1.3541         estimate D2E/DX2                !
 ! R55   R(48,50)                0.9638         estimate D2E/DX2                !
 ! R56   R(49,51)                0.9677         estimate D2E/DX2                !
 ! A1    A(2,1,6)              121.2867         estimate D2E/DX2                !
 ! A2    A(2,1,15)             119.1573         estimate D2E/DX2                !
 ! A3    A(6,1,15)             119.5535         estimate D2E/DX2                !
 ! A4    A(1,2,3)              119.881          estimate D2E/DX2                !
 ! A5    A(1,2,16)             120.4587         estimate D2E/DX2                !
 ! A6    A(3,2,16)             119.6601         estimate D2E/DX2                !
 ! A7    A(2,3,4)              119.6216         estimate D2E/DX2                !
 ! A8    A(2,3,22)             120.7428         estimate D2E/DX2                !
 ! A9    A(4,3,22)             119.6315         estimate D2E/DX2                !
 ! A10   A(3,4,5)              118.3734         estimate D2E/DX2                !
 ! A11   A(3,4,7)              119.6084         estimate D2E/DX2                !
 ! A12   A(5,4,7)              121.9961         estimate D2E/DX2                !
 ! A13   A(4,5,6)              120.9927         estimate D2E/DX2                !
 ! A14   A(4,5,17)             118.4352         estimate D2E/DX2                !
 ! A15   A(6,5,17)             120.5721         estimate D2E/DX2                !
 ! A16   A(1,6,5)              119.8151         estimate D2E/DX2                !
 ! A17   A(1,6,18)             119.8817         estimate D2E/DX2                !
 ! A18   A(5,6,18)             120.3029         estimate D2E/DX2                !
 ! A19   A(4,7,8)              119.3121         estimate D2E/DX2                !
 ! A20   A(4,7,23)             120.6347         estimate D2E/DX2                !
 ! A21   A(8,7,23)             120.0485         estimate D2E/DX2                !
 ! A22   A(7,8,9)              119.6036         estimate D2E/DX2                !
 ! A23   A(7,8,14)             122.0016         estimate D2E/DX2                !
 ! A24   A(9,8,14)             118.3922         estimate D2E/DX2                !
 ! A25   A(8,9,10)             119.6914         estimate D2E/DX2                !
 ! A26   A(8,9,22)             119.6432         estimate D2E/DX2                !
 ! A27   A(10,9,22)            120.6652         estimate D2E/DX2                !
 ! A28   A(9,10,11)            119.7363         estimate D2E/DX2                !
 ! A29   A(9,10,12)            119.7999         estimate D2E/DX2                !
 ! A30   A(11,10,12)           120.4636         estimate D2E/DX2                !
 ! A31   A(10,12,13)           121.2982         estimate D2E/DX2                !
 ! A32   A(10,12,19)           119.1383         estimate D2E/DX2                !
 ! A33   A(13,12,19)           119.5607         estimate D2E/DX2                !
 ! A34   A(12,13,14)           119.8584         estimate D2E/DX2                !
 ! A35   A(12,13,20)           119.9162         estimate D2E/DX2                !
 ! A36   A(14,13,20)           120.2241         estimate D2E/DX2                !
 ! A37   A(8,14,13)            120.9352         estimate D2E/DX2                !
 ! A38   A(8,14,21)            118.6489         estimate D2E/DX2                !
 ! A39   A(13,14,21)           120.4155         estimate D2E/DX2                !
 ! A40   A(3,22,9)             122.1785         estimate D2E/DX2                !
 ! A41   A(3,22,31)            118.9089         estimate D2E/DX2                !
 ! A42   A(9,22,31)            118.9126         estimate D2E/DX2                !
 ! A43   A(7,23,24)            120.1088         estimate D2E/DX2                !
 ! A44   A(7,23,25)            119.0916         estimate D2E/DX2                !
 ! A45   A(24,23,25)           120.7568         estimate D2E/DX2                !
 ! A46   A(23,24,26)           117.7911         estimate D2E/DX2                !
 ! A47   A(23,24,47)           122.7926         estimate D2E/DX2                !
 ! A48   A(26,24,47)           119.3955         estimate D2E/DX2                !
 ! A49   A(23,25,27)           120.1223         estimate D2E/DX2                !
 ! A50   A(23,25,30)           119.8146         estimate D2E/DX2                !
 ! A51   A(27,25,30)           120.047          estimate D2E/DX2                !
 ! A52   A(24,26,28)           121.5303         estimate D2E/DX2                !
 ! A53   A(24,26,52)           118.7862         estimate D2E/DX2                !
 ! A54   A(28,26,52)           119.6835         estimate D2E/DX2                !
 ! A55   A(25,27,28)           119.8672         estimate D2E/DX2                !
 ! A56   A(25,27,29)           119.7799         estimate D2E/DX2                !
 ! A57   A(28,27,29)           120.3511         estimate D2E/DX2                !
 ! A58   A(26,28,27)           119.9299         estimate D2E/DX2                !
 ! A59   A(26,28,46)           120.0246         estimate D2E/DX2                !
 ! A60   A(27,28,46)           120.0452         estimate D2E/DX2                !
 ! A61   A(22,31,32)           119.6936         estimate D2E/DX2                !
 ! A62   A(22,31,33)           119.6344         estimate D2E/DX2                !
 ! A63   A(32,31,33)           120.672          estimate D2E/DX2                !
 ! A64   A(31,32,34)           120.0305         estimate D2E/DX2                !
 ! A65   A(31,32,35)           119.9269         estimate D2E/DX2                !
 ! A66   A(34,32,35)           120.0425         estimate D2E/DX2                !
 ! A67   A(31,33,36)           119.574          estimate D2E/DX2                !
 ! A68   A(31,33,37)           120.0176         estimate D2E/DX2                !
 ! A69   A(36,33,37)           120.4084         estimate D2E/DX2                !
 ! A70   A(32,34,38)           119.8257         estimate D2E/DX2                !
 ! A71   A(32,34,39)           119.1607         estimate D2E/DX2                !
 ! A72   A(38,34,39)           121.0135         estimate D2E/DX2                !
 ! A73   A(33,36,38)           120.4462         estimate D2E/DX2                !
 ! A74   A(33,36,40)           121.2771         estimate D2E/DX2                !
 ! A75   A(38,36,40)           118.2767         estimate D2E/DX2                !
 ! A76   A(34,38,36)           119.4515         estimate D2E/DX2                !
 ! A77   A(34,38,41)           124.522          estimate D2E/DX2                !
 ! A78   A(36,38,41)           116.0265         estimate D2E/DX2                !
 ! A79   A(38,41,42)           119.8557         estimate D2E/DX2                !
 ! A80   A(41,42,43)           106.2951         estimate D2E/DX2                !
 ! A81   A(41,42,44)           111.3366         estimate D2E/DX2                !
 ! A82   A(41,42,45)           111.3417         estimate D2E/DX2                !
 ! A83   A(43,42,44)           109.2            estimate D2E/DX2                !
 ! A84   A(43,42,45)           109.1991         estimate D2E/DX2                !
 ! A85   A(44,42,45)           109.3887         estimate D2E/DX2                !
 ! A86   A(24,47,48)           123.1579         estimate D2E/DX2                !
 ! A87   A(24,47,49)           117.8437         estimate D2E/DX2                !
 ! A88   A(48,47,49)           118.9979         estimate D2E/DX2                !
 ! A89   A(47,48,50)           114.4153         estimate D2E/DX2                !
 ! A90   A(47,49,51)           113.0398         estimate D2E/DX2                !
 ! D1    D(6,1,2,3)             -0.5642         estimate D2E/DX2                !
 ! D2    D(6,1,2,16)           179.2407         estimate D2E/DX2                !
 ! D3    D(15,1,2,3)          -179.9901         estimate D2E/DX2                !
 ! D4    D(15,1,2,16)           -0.1852         estimate D2E/DX2                !
 ! D5    D(2,1,6,5)              0.8933         estimate D2E/DX2                !
 ! D6    D(2,1,6,18)          -178.9156         estimate D2E/DX2                !
 ! D7    D(15,1,6,5)          -179.683          estimate D2E/DX2                !
 ! D8    D(15,1,6,18)            0.508          estimate D2E/DX2                !
 ! D9    D(1,2,3,4)             -0.8661         estimate D2E/DX2                !
 ! D10   D(1,2,3,22)           178.3895         estimate D2E/DX2                !
 ! D11   D(16,2,3,4)           179.3275         estimate D2E/DX2                !
 ! D12   D(16,2,3,22)           -1.4169         estimate D2E/DX2                !
 ! D13   D(2,3,4,5)              1.9306         estimate D2E/DX2                !
 ! D14   D(2,3,4,7)           -179.7489         estimate D2E/DX2                !
 ! D15   D(22,3,4,5)          -177.3333         estimate D2E/DX2                !
 ! D16   D(22,3,4,7)             0.9871         estimate D2E/DX2                !
 ! D17   D(2,3,22,9)           179.639          estimate D2E/DX2                !
 ! D18   D(2,3,22,31)           -0.4025         estimate D2E/DX2                !
 ! D19   D(4,3,22,9)            -1.1055         estimate D2E/DX2                !
 ! D20   D(4,3,22,31)          178.853          estimate D2E/DX2                !
 ! D21   D(3,4,5,6)             -1.6278         estimate D2E/DX2                !
 ! D22   D(3,4,5,17)           178.313          estimate D2E/DX2                !
 ! D23   D(7,4,5,6)           -179.906          estimate D2E/DX2                !
 ! D24   D(7,4,5,17)             0.0349         estimate D2E/DX2                !
 ! D25   D(3,4,7,8)              0.2724         estimate D2E/DX2                !
 ! D26   D(3,4,7,23)          -178.9377         estimate D2E/DX2                !
 ! D27   D(5,4,7,8)            178.5298         estimate D2E/DX2                !
 ! D28   D(5,4,7,23)            -0.6802         estimate D2E/DX2                !
 ! D29   D(4,5,6,1)              0.2389         estimate D2E/DX2                !
 ! D30   D(4,5,6,18)          -179.9529         estimate D2E/DX2                !
 ! D31   D(17,5,6,1)          -179.7007         estimate D2E/DX2                !
 ! D32   D(17,5,6,18)            0.1075         estimate D2E/DX2                !
 ! D33   D(4,7,8,9)             -1.4104         estimate D2E/DX2                !
 ! D34   D(4,7,8,14)           177.9931         estimate D2E/DX2                !
 ! D35   D(23,7,8,9)           177.8044         estimate D2E/DX2                !
 ! D36   D(23,7,8,14)           -2.7921         estimate D2E/DX2                !
 ! D37   D(4,7,23,24)          112.8831         estimate D2E/DX2                !
 ! D38   D(4,7,23,25)          -69.4776         estimate D2E/DX2                !
 ! D39   D(8,7,23,24)          -66.3212         estimate D2E/DX2                !
 ! D40   D(8,7,23,25)          111.3181         estimate D2E/DX2                !
 ! D41   D(7,8,9,10)          -178.8443         estimate D2E/DX2                !
 ! D42   D(7,8,9,22)             1.3272         estimate D2E/DX2                !
 ! D43   D(14,8,9,10)            1.7307         estimate D2E/DX2                !
 ! D44   D(14,8,9,22)         -178.0978         estimate D2E/DX2                !
 ! D45   D(7,8,14,13)          178.9959         estimate D2E/DX2                !
 ! D46   D(7,8,14,21)           -1.2296         estimate D2E/DX2                !
 ! D47   D(9,8,14,13)           -1.5936         estimate D2E/DX2                !
 ! D48   D(9,8,14,21)          178.1809         estimate D2E/DX2                !
 ! D49   D(8,9,10,11)          179.4963         estimate D2E/DX2                !
 ! D50   D(8,9,10,12)           -0.6792         estimate D2E/DX2                !
 ! D51   D(22,9,10,11)          -0.6769         estimate D2E/DX2                !
 ! D52   D(22,9,10,12)         179.1475         estimate D2E/DX2                !
 ! D53   D(8,9,22,3)            -0.0503         estimate D2E/DX2                !
 ! D54   D(8,9,22,31)          179.9913         estimate D2E/DX2                !
 ! D55   D(10,9,22,3)         -179.8771         estimate D2E/DX2                !
 ! D56   D(10,9,22,31)           0.1644         estimate D2E/DX2                !
 ! D57   D(9,10,12,13)          -0.568          estimate D2E/DX2                !
 ! D58   D(9,10,12,19)        -179.952          estimate D2E/DX2                !
 ! D59   D(11,10,12,13)        179.2552         estimate D2E/DX2                !
 ! D60   D(11,10,12,19)         -0.1289         estimate D2E/DX2                !
 ! D61   D(10,12,13,14)          0.7274         estimate D2E/DX2                !
 ! D62   D(10,12,13,20)       -178.8722         estimate D2E/DX2                !
 ! D63   D(19,12,13,14)       -179.8911         estimate D2E/DX2                !
 ! D64   D(19,12,13,20)          0.5093         estimate D2E/DX2                !
 ! D65   D(12,13,14,8)           0.3867         estimate D2E/DX2                !
 ! D66   D(12,13,14,21)       -179.3839         estimate D2E/DX2                !
 ! D67   D(20,13,14,8)         179.9851         estimate D2E/DX2                !
 ! D68   D(20,13,14,21)          0.2145         estimate D2E/DX2                !
 ! D69   D(3,22,31,32)         -89.6901         estimate D2E/DX2                !
 ! D70   D(3,22,31,33)          90.3884         estimate D2E/DX2                !
 ! D71   D(9,22,31,32)          90.2698         estimate D2E/DX2                !
 ! D72   D(9,22,31,33)         -89.6517         estimate D2E/DX2                !
 ! D73   D(7,23,24,26)         177.0223         estimate D2E/DX2                !
 ! D74   D(7,23,24,47)          -4.6475         estimate D2E/DX2                !
 ! D75   D(25,23,24,26)         -0.5771         estimate D2E/DX2                !
 ! D76   D(25,23,24,47)        177.753          estimate D2E/DX2                !
 ! D77   D(7,23,25,27)        -177.2217         estimate D2E/DX2                !
 ! D78   D(7,23,25,30)           1.3202         estimate D2E/DX2                !
 ! D79   D(24,23,25,27)          0.4019         estimate D2E/DX2                !
 ! D80   D(24,23,25,30)        178.9437         estimate D2E/DX2                !
 ! D81   D(23,24,26,28)          0.4971         estimate D2E/DX2                !
 ! D82   D(23,24,26,52)       -179.4732         estimate D2E/DX2                !
 ! D83   D(47,24,26,28)       -177.8917         estimate D2E/DX2                !
 ! D84   D(47,24,26,52)          2.138          estimate D2E/DX2                !
 ! D85   D(23,24,47,48)        -39.3126         estimate D2E/DX2                !
 ! D86   D(23,24,47,49)        140.4376         estimate D2E/DX2                !
 ! D87   D(26,24,47,48)        138.9919         estimate D2E/DX2                !
 ! D88   D(26,24,47,49)        -41.2579         estimate D2E/DX2                !
 ! D89   D(23,25,27,28)         -0.1261         estimate D2E/DX2                !
 ! D90   D(23,25,27,29)        179.3915         estimate D2E/DX2                !
 ! D91   D(30,25,27,28)       -178.6645         estimate D2E/DX2                !
 ! D92   D(30,25,27,29)          0.8531         estimate D2E/DX2                !
 ! D93   D(24,26,28,27)         -0.2372         estimate D2E/DX2                !
 ! D94   D(24,26,28,46)        179.9606         estimate D2E/DX2                !
 ! D95   D(52,26,28,27)        179.7329         estimate D2E/DX2                !
 ! D96   D(52,26,28,46)         -0.0694         estimate D2E/DX2                !
 ! D97   D(25,27,28,26)          0.0425         estimate D2E/DX2                !
 ! D98   D(25,27,28,46)        179.8448         estimate D2E/DX2                !
 ! D99   D(29,27,28,26)       -179.4722         estimate D2E/DX2                !
 ! D100  D(29,27,28,46)          0.33           estimate D2E/DX2                !
 ! D101  D(22,31,32,34)       -179.9461         estimate D2E/DX2                !
 ! D102  D(22,31,32,35)         -0.0389         estimate D2E/DX2                !
 ! D103  D(33,31,32,34)         -0.0255         estimate D2E/DX2                !
 ! D104  D(33,31,32,35)        179.8817         estimate D2E/DX2                !
 ! D105  D(22,31,33,36)        179.9703         estimate D2E/DX2                !
 ! D106  D(22,31,33,37)         -0.016          estimate D2E/DX2                !
 ! D107  D(32,31,33,36)          0.0496         estimate D2E/DX2                !
 ! D108  D(32,31,33,37)       -179.9367         estimate D2E/DX2                !
 ! D109  D(31,32,34,38)         -0.0059         estimate D2E/DX2                !
 ! D110  D(31,32,34,39)        179.9693         estimate D2E/DX2                !
 ! D111  D(35,32,34,38)       -179.913          estimate D2E/DX2                !
 ! D112  D(35,32,34,39)          0.0623         estimate D2E/DX2                !
 ! D113  D(31,33,36,38)         -0.0423         estimate D2E/DX2                !
 ! D114  D(31,33,36,40)        179.9918         estimate D2E/DX2                !
 ! D115  D(37,33,36,38)        179.944          estimate D2E/DX2                !
 ! D116  D(37,33,36,40)         -0.0219         estimate D2E/DX2                !
 ! D117  D(32,34,38,36)          0.013          estimate D2E/DX2                !
 ! D118  D(32,34,38,41)       -179.9951         estimate D2E/DX2                !
 ! D119  D(39,34,38,36)       -179.9618         estimate D2E/DX2                !
 ! D120  D(39,34,38,41)          0.0301         estimate D2E/DX2                !
 ! D121  D(33,36,38,34)          0.0113         estimate D2E/DX2                !
 ! D122  D(33,36,38,41)       -179.9813         estimate D2E/DX2                !
 ! D123  D(40,36,38,34)        179.9782         estimate D2E/DX2                !
 ! D124  D(40,36,38,41)         -0.0143         estimate D2E/DX2                !
 ! D125  D(34,38,41,42)         -0.0608         estimate D2E/DX2                !
 ! D126  D(36,38,41,42)        179.9314         estimate D2E/DX2                !
 ! D127  D(38,41,42,43)       -179.9751         estimate D2E/DX2                !
 ! D128  D(38,41,42,44)        -61.157          estimate D2E/DX2                !
 ! D129  D(38,41,42,45)         61.205          estimate D2E/DX2                !
 ! D130  D(24,47,48,50)         -8.7867         estimate D2E/DX2                !
 ! D131  D(49,47,48,50)        171.4658         estimate D2E/DX2                !
 ! D132  D(24,47,49,51)        176.0594         estimate D2E/DX2                !
 ! D133  D(48,47,49,51)         -4.1797         estimate D2E/DX2                !
 --------------------------------------------------------------------------------
 Trust Radius=3.00D-01 FncErr=1.00D-07 GrdErr=1.00D-06
 Number of steps in this run=    289 maximum allowed number of steps=    312.
 GradGradGradGradGradGradGradGradGradGradGradGradGradGradGradGradGradGrad

 Leave Link  103 at Sat Mar 27 01:15:20 2021, MaxMem=  5242880000 cpu:         0.2
 (Enter /opt/nce/packages/global/g09/l202.exe)
 Symmetry turned off by external request.
 Stoichiometry    C26H21BNO3(1+)
 Framework group  C1[X(C26H21BNO3)]
 Deg. of freedom   150
 Full point group                 C1      NOp   1
                          Input orientation:                          
 ---------------------------------------------------------------------
 Center     Atomic      Atomic             Coordinates (Angstroms)
 Number     Number       Type             X           Y           Z
 ---------------------------------------------------------------------
      1          6           0       -0.646901    3.721652    0.383228
      2          6           0       -1.275038    2.515629    0.154004
      3          6           0       -0.502997    1.354404   -0.100218
      4          6           0        0.929656    1.448135   -0.135346
      5          6           0        1.534475    2.716196    0.131580
      6          6           0        0.766697    3.827290    0.382413
      7          6           0        1.700978    0.288147   -0.394804
      8          6           0        1.043387   -0.945260   -0.621226
      9          6           0       -0.389535   -1.007834   -0.554509
     10          6           0       -1.047902   -2.245585   -0.756400
     11          1           0       -2.132844   -2.295404   -0.697888
     12          6           0       -0.309572   -3.378206   -1.029301
     13          6           0        1.103447   -3.330502   -1.125021
     14          6           0        1.762243   -2.141426   -0.929535
     15          1           0       -1.253271    4.608851    0.578029
     16          1           0       -2.360536    2.447501    0.169872
     17          1           0        2.621806    2.782304    0.132719
     18          1           0        1.240084    4.789621    0.584003
     19          1           0       -0.828377   -4.326766   -1.183900
     20          1           0        1.663857   -4.236727   -1.360127
     21          1           0        2.846716   -2.092365   -1.010771
     22          7           0       -1.109617    0.136597   -0.298459
     23          6           0        3.184373    0.354287   -0.413151
     24          6           0        3.937422   -0.310873    0.584512
     25          6           0        3.824204    1.040508   -1.457573
     26          6           0        5.337947   -0.269600    0.484419
     27          6           0        5.217889    1.067011   -1.527920
     28          6           0        5.976246    0.411149   -0.554924
     29          1           0        5.709645    1.594079   -2.348282
     30          1           0        3.228115    1.533816   -2.228750
     31          6           0       -2.554964    0.055352   -0.234791
     32          6           0       -3.178542   -0.202502    0.983755
     33          6           0       -3.310504    0.235337   -1.399814
     34          6           0       -4.570761   -0.283392    1.052960
     35          1           0       -2.577336   -0.342801    1.884457
     36          6           0       -4.694321    0.156667   -1.337529
     37          1           0       -2.810567    0.435920   -2.349492
     38          6           0       -5.341076   -0.103641   -0.111062
     39          1           0       -5.043422   -0.486117    2.012807
     40          1           0       -5.309962    0.292484   -2.227793
     41          8           0       -6.678766   -0.161103   -0.152552
     42          6           0       -7.411398   -0.419612    1.033789
     43          1           0       -8.470052   -0.418075    0.748115
     44          1           0       -7.151885   -1.403804    1.459419
     45          1           0       -7.238820    0.363933    1.791042
     46          1           0        7.066928    0.427878   -0.608560
     47          5           0        3.269609   -1.052546    1.807387
     48          8           0        2.178367   -0.563843    2.474467
     49          8           0        3.807825   -2.230373    2.203326
     50          1           0        1.928497    0.333258    2.226167
     51          1           0        3.383889   -2.593842    2.993638
     52          1           0        5.934663   -0.784620    1.240442
 ---------------------------------------------------------------------
 Rotational constants (GHZ):      0.2978832      0.0890757      0.0788022
 Leave Link  202 at Sat Mar 27 01:15:21 2021, MaxMem=  5242880000 cpu:         0.1
 (Enter /opt/nce/packages/global/g09/l301.exe)
 Standard basis: def2TZVP (5D, 7F)
 Ernie: Thresh=  0.10000D-02 Tol=  0.10000D-05 Strict=F.
  1087 basis functions,  1749 primitive gaussians,  1242 cartesian basis functions
   106 alpha electrons      106 beta electrons
       nuclear repulsion energy      2874.9988380751 Hartrees.
 IExCor= 1009 DFT=T Ex=PBE Corr=PBE ExCW=0 ScaHFX=  0.000000
 ScaDFX=  1.000000  1.000000  1.000000  1.000000 ScalE2=  1.000000  1.000000
 IRadAn=      5 IRanWt=     -1 IRanGd=            0 ICorTp=0 IEmpDi=141
 NAtoms=   52 NActive=   52 NUniq=   52 SFac= 1.00D+00 NAtFMM=   60 NAOKFM=F Big=F
 Integral buffers will be    131072 words long.
 Raffenetti 2 integral format.
 Two-electron integral symmetry is turned off.
 R6Disp:  Grimme-D3(BJ) Dispersion energy=       -0.0804631945 Hartrees.
 Nuclear repulsion after empirical dispersion term =     2874.9183748805 Hartrees.
 ------------------------------------------------------------------------------
 Polarizable Continuum Model (PCM)
 =================================
 Model                : PCM (using non-symmetric T matrix).
 Atomic radii         : SMD-Coulomb.
 Polarization charges : Total charges.
 Charge compensation  : None.
 Solution method      : On-the-fly selection.
 Cavity type          : VdW (van der Waals Surface) (Alpha=1.000).
 Cavity algorithm     : GePol (No added spheres)
                        Default sphere list used, NSphG=   52.
                        Lebedev-Laikov grids with approx.  5.0 points / Ang**2.
                        Smoothing algorithm: York/Karplus (Gamma=1.0000).
                        Polarization charges: spherical gaussians, with
                                              point-specific exponents (IZeta= 3).
                        Self-potential: point-specific (ISelfS= 7).
                        Self-field    : sphere-specific E.n sum rule (ISelfD= 2).
 1st derivatives      : Analytical E(r).r(x)/FMM algorithm (CHGder, D1EAlg=3).
                        Cavity 1st derivative terms included.
 Solvent              : Acetonitrile, Eps=  35.688000 Eps(inf)=   1.806874
 ------------------------------------------------------------------------------
 GePol: Number of generator spheres                  =      52
 GePol: Total number of spheres                      =      52
 GePol: Number of exposed spheres                    =      50 ( 96.15%)
 GePol: Number of points                             =    3793
 GePol: Average weight of points                     =       0.12
 GePol: Minimum weight of points                     =   0.96D-11
 GePol: Maximum weight of points                     =    0.21559
 GePol: Number of points with low weight             =     233
 GePol: Fraction of low-weight points (<1% of avg)   =       6.14%
 GePol: Cavity surface area                          =    438.989 Ang**2
 GePol: Cavity volume                                =    445.444 Ang**3
 ------------------------------------------------------------------------------
 Atomic radii for non-electrostatic terms: SMD-CDS.
 ------------------------------------------------------------------------------
 PCM non-electrostatic energy =        -0.0084817840 Hartrees.
 Nuclear repulsion after PCM non-electrostatic terms =     2874.9098930965 Hartrees.
 Leave Link  301 at Sat Mar 27 01:15:21 2021, MaxMem=  5242880000 cpu:         6.1
 (Enter /opt/nce/packages/global/g09/l302.exe)
 NPDir=0 NMtPBC=     1 NCelOv=     1 NCel=       1 NClECP=     1 NCelD=      1
         NCelK=      1 NCelE2=     1 NClLst=     1 CellRange=     0.0.
 One-electron integrals computed using PRISM.
   1 Symmetry operations used in ECPInt.
 ECPInt:  NShTT=   90525 NPrTT=  279376 LenC2=   73614 LenP2D=  155946.
 LDataN:  DoStor=T MaxTD1= 6 Len=  172
 NBasis=  1087 RedAO= T EigKep=  4.68D-06  NBF=  1087
 NBsUse=  1087 1.00D-06 EigRej= -1.00D+00 NBFU=  1087
 Precomputing XC quadrature grid using
 IXCGrd= 4 IRadAn=           5 IRanWt=          -1 IRanGd=           0 AccXCQ= 0.00D+00.
 Generated NRdTot=       0 NPtTot=           0 NUsed=           0 NTot=          32
 NSgBfM=  1191  1191  1191  1191  1191 MxSgAt=    52 MxSgA2=    52.
 Leave Link  302 at Sat Mar 27 01:15:24 2021, MaxMem=  5242880000 cpu:        35.1
 (Enter /opt/nce/packages/global/g09/l303.exe)
 DipDrv:  MaxL=1.
 Leave Link  303 at Sat Mar 27 01:15:24 2021, MaxMem=  5242880000 cpu:         3.3
 (Enter /opt/nce/packages/global/g09/l401.exe)
 ExpMin= 6.06D-02 ExpMax= 2.70D+04 ExpMxC= 9.22D+02 IAcc=3 IRadAn=         5 AccDes= 0.00D+00
 Harris functional with IExCor= 1009 and IRadAn=       5 diagonalized for initial guess.
 HarFok:  IExCor= 1009 AccDes= 0.00D+00 IRadAn=         5 IDoV= 1 UseB2=F ITyADJ=14
 ICtDFT=  3500011 ScaDFX=  1.000000  1.000000  1.000000  1.000000
 FoFCou: FMM=F IPFlag=           0 FMFlag=      100000 FMFlg1=           0
         NFxFlg=           0 DoJE=T BraDBF=F KetDBF=T FulRan=T
         wScrn=  0.000000 ICntrl=     500 IOpCl=  0 I1Cent=   200000004 NGrid=           0
         NMat0=    1 NMatS0=      1 NMatT0=    0 NMatD0=    1 NMtDS0=    0 NMtDT0=    0
 Symmetry not used in FoFCou.
 Harris En= -1308.00344860590    
 JPrj=0 DoOrth=F DoCkMO=F.
 Leave Link  401 at Sat Mar 27 01:15:36 2021, MaxMem=  5242880000 cpu:       137.6
 (Enter /opt/nce/packages/global/g09/l502.exe)
 Closed shell SCF:
 Using DIIS extrapolation, IDIIS=  1040.
 Two-electron integral symmetry not used.
 IVT=     4668702 IEndB=     4668702 NGot=  5242880000 MDV=  5239771745
 LenX=  5239771745 LenY=  5238227939
 Requested convergence on RMS density matrix=1.00D-08 within 128 cycles.
 Requested convergence on MAX density matrix=1.00D-06.
 Requested convergence on             energy=1.00D-06.
 No special actions if energy rises.
 Fock matrices will be formed incrementally for  20 cycles.

 Cycle   1  Pass 1  IDiag  1:
 FoFJK:  IHMeth= 1 ICntrl=     500 DoSepK=F KAlg= 0 I1Cent=   0 FoldK=F
 IRaf= 700000000 NMat=   1 IRICut=       1 DoRegI=T DoRafI=F ISym2E= 0.
 FoFCou: FMM=F IPFlag=           0 FMFlag=      100000 FMFlg1=           0
         NFxFlg=           0 DoJE=T BraDBF=F KetDBF=F FulRan=T
         wScrn=  0.000000 ICntrl=     500 IOpCl=  0 I1Cent=           0 NGrid=           0
         NMat0=    1 NMatS0=      1 NMatT0=    0 NMatD0=    1 NMtDS0=    0 NMtDT0=    0
 Symmetry not used in FoFCou.
 Inv3:  Mode=1 IEnd=    43160547.
 Iteration    1 A*A^-1 deviation from unit magnitude is 7.99D-15 for   3783.
 Iteration    1 A*A^-1 deviation from orthogonality  is 4.31D-15 for   1249    678.
 Iteration    1 A^-1*A deviation from unit magnitude is 7.77D-15 for   3783.
 Iteration    1 A^-1*A deviation from orthogonality  is 1.54D-12 for   1858   1787.
 E= -1307.06838375889    
 DIIS: error= 1.57D-02 at cycle   1 NSaved=   1.
 NSaved= 1 IEnMin= 1 EnMin= -1307.06838375889     IErMin= 1 ErrMin= 1.57D-02
 ErrMax= 1.57D-02  0.00D+00 EMaxC= 1.00D-01 BMatC= 6.05D-01 BMatP= 6.05D-01
 IDIUse=3 WtCom= 8.43D-01 WtEn= 1.57D-01
 Coeff-Com:  0.100D+01
 Coeff-En:   0.100D+01
 Coeff:      0.100D+01
 Gap=     0.049 Goal=   None    Shift=    0.000
 GapD=    0.049 DampG=0.250 DampE=0.500 DampFc=0.2500 IDamp=-1.
 Damping current iteration by 2.50D-01
 RMSDP=5.85D-03 MaxDP=8.51D-01              OVMax= 4.47D-01

 Cycle   2  Pass 1  IDiag  1:
 RMSU=  1.45D-03    CP:  1.04D+00
 E= -1307.25704579012     Delta-E=       -0.188662031226 Rises=F Damp=T
 DIIS: error= 7.19D-03 at cycle   2 NSaved=   2.
 NSaved= 2 IEnMin= 2 EnMin= -1307.25704579012     IErMin= 2 ErrMin= 7.19D-03
 ErrMax= 7.19D-03  0.00D+00 EMaxC= 1.00D-01 BMatC= 1.13D-01 BMatP= 6.05D-01
 IDIUse=3 WtCom= 9.28D-01 WtEn= 7.19D-02
 Coeff-Com: -0.430D+00 0.143D+01
 Coeff-En:   0.000D+00 0.100D+01
 Coeff:     -0.399D+00 0.140D+01
 Gap=     0.152 Goal=   None    Shift=    0.000
 RMSDP=1.08D-03 MaxDP=1.02D-01 DE=-1.89D-01 OVMax= 5.78D-01

 Cycle   3  Pass 1  IDiag  1:
 RMSU=  1.04D-03    CP:  9.98D-01  8.64D-01
 E= -1307.48508080580     Delta-E=       -0.228035015682 Rises=F Damp=F
 DIIS: error= 1.53D-02 at cycle   3 NSaved=   3.
 NSaved= 3 IEnMin= 3 EnMin= -1307.48508080580     IErMin= 2 ErrMin= 7.19D-03
 ErrMax= 1.53D-02  0.00D+00 EMaxC= 1.00D-01 BMatC= 1.27D-01 BMatP= 1.13D-01
 IDIUse=2 WtCom= 0.00D+00 WtEn= 1.00D+00
 Coeff-En:   0.000D+00 0.000D+00 0.100D+01
 Coeff:      0.000D+00 0.000D+00 0.100D+01
 Gap=     0.057 Goal=   None    Shift=    0.000
 RMSDP=1.25D-03 MaxDP=2.06D-01 DE=-2.28D-01 OVMax= 4.34D-01

 Cycle   4  Pass 1  IDiag  1:
 RMSU=  9.33D-04    CP:  1.03D+00  1.18D+00  3.49D-01
 E= -1306.59953871267     Delta-E=        0.885542093127 Rises=F Damp=F
 DIIS: error= 4.58D-02 at cycle   4 NSaved=   4.
 NSaved= 4 IEnMin= 3 EnMin= -1307.48508080580     IErMin= 2 ErrMin= 7.19D-03
 ErrMax= 4.58D-02  0.00D+00 EMaxC= 1.00D-01 BMatC= 9.76D-01 BMatP= 1.13D-01
 IDIUse=2 WtCom= 0.00D+00 WtEn= 1.00D+00
 Coeff-En:   0.000D+00 0.000D+00 0.817D+00 0.183D+00
 Coeff:      0.000D+00 0.000D+00 0.817D+00 0.183D+00
 Gap=     0.058 Goal=   None    Shift=    0.000
 RMSDP=6.72D-04 MaxDP=1.10D-01 DE= 8.86D-01 OVMax= 3.77D-01

 Cycle   5  Pass 1  IDiag  1:
 RMSU=  2.17D-04    CP:  1.01D+00  9.19D-01  5.19D-01  4.98D-01
 E= -1307.53644307751     Delta-E=       -0.936904364838 Rises=F Damp=F
 DIIS: error= 1.05D-02 at cycle   5 NSaved=   5.
 NSaved= 5 IEnMin= 5 EnMin= -1307.53644307751     IErMin= 2 ErrMin= 7.19D-03
 ErrMax= 1.05D-02  0.00D+00 EMaxC= 1.00D-01 BMatC= 8.52D-02 BMatP= 1.13D-01
 IDIUse=3 WtCom= 8.95D-01 WtEn= 1.05D-01
 Coeff-Com: -0.516D-01 0.145D+00 0.397D+00-0.397D-01 0.549D+00
 Coeff-En:   0.000D+00 0.000D+00 0.420D+00 0.000D+00 0.580D+00
 Coeff:     -0.462D-01 0.130D+00 0.400D+00-0.355D-01 0.552D+00
 Gap=     0.062 Goal=   None    Shift=    0.000
 RMSDP=3.46D-04 MaxDP=5.25D-02 DE=-9.37D-01 OVMax= 1.58D-01

 Cycle   6  Pass 1  IDiag  1:
 RMSU=  8.85D-05    CP:  1.01D+00  8.72D-01  7.51D-01  2.90D-01  5.39D-01
 E= -1307.62408963604     Delta-E=       -0.087646558531 Rises=F Damp=F
 DIIS: error= 1.19D-03 at cycle   6 NSaved=   6.
 NSaved= 6 IEnMin= 6 EnMin= -1307.62408963604     IErMin= 6 ErrMin= 1.19D-03
 ErrMax= 1.19D-03  0.00D+00 EMaxC= 1.00D-01 BMatC= 2.35D-03 BMatP= 8.52D-02
 IDIUse=3 WtCom= 9.88D-01 WtEn= 1.19D-02
 Coeff-Com: -0.243D-01 0.491D-01 0.189D+00-0.535D-01 0.378D+00 0.462D+00
 Coeff-En:   0.000D+00 0.000D+00 0.000D+00 0.000D+00 0.000D+00 0.100D+01
 Coeff:     -0.240D-01 0.485D-01 0.186D+00-0.528D-01 0.374D+00 0.468D+00
 Gap=     0.067 Goal=   None    Shift=    0.000
 RMSDP=7.97D-05 MaxDP=1.50D-02 DE=-8.76D-02 OVMax= 1.54D-02

 Cycle   7  Pass 1  IDiag  1:
 RMSU=  2.84D-05    CP:  1.01D+00  8.67D-01  7.17D-01  2.77D-01  7.03D-01
                    CP:  4.01D-01
 E= -1307.62610213969     Delta-E=       -0.002012503647 Rises=F Damp=F
 DIIS: error= 4.55D-04 at cycle   7 NSaved=   7.
 NSaved= 7 IEnMin= 7 EnMin= -1307.62610213969     IErMin= 7 ErrMin= 4.55D-04
 ErrMax= 4.55D-04  0.00D+00 EMaxC= 1.00D-01 BMatC= 1.43D-04 BMatP= 2.35D-03
 IDIUse=3 WtCom= 9.95D-01 WtEn= 4.55D-03
 Coeff-Com: -0.131D-01 0.259D-01 0.762D-01-0.248D-01 0.151D+00 0.254D+00
 Coeff-Com:  0.530D+00
 Coeff-En:   0.000D+00 0.000D+00 0.000D+00 0.000D+00 0.000D+00 0.000D+00
 Coeff-En:   0.100D+01
 Coeff:     -0.130D-01 0.258D-01 0.758D-01-0.246D-01 0.150D+00 0.253D+00
 Coeff:      0.533D+00
 Gap=     0.066 Goal=   None    Shift=    0.000
 RMSDP=2.78D-05 MaxDP=6.40D-03 DE=-2.01D-03 OVMax= 1.02D-02

 Cycle   8  Pass 1  IDiag  1:
 RMSU=  1.38D-05    CP:  1.01D+00  8.76D-01  7.23D-01  2.79D-01  6.83D-01
                    CP:  5.33D-01  5.34D-01
 E= -1307.62617014073     Delta-E=       -0.000068001039 Rises=F Damp=F
 DIIS: error= 3.75D-04 at cycle   8 NSaved=   8.
 NSaved= 8 IEnMin= 8 EnMin= -1307.62617014073     IErMin= 8 ErrMin= 3.75D-04
 ErrMax= 3.75D-04  0.00D+00 EMaxC= 1.00D-01 BMatC= 6.72D-05 BMatP= 1.43D-04
 IDIUse=3 WtCom= 9.96D-01 WtEn= 3.75D-03
 Coeff-Com: -0.136D-02 0.284D-02 0.116D-01-0.336D-02 0.153D-01 0.787D-01
 Coeff-Com:  0.436D+00 0.460D+00
 Coeff-En:   0.000D+00 0.000D+00 0.000D+00 0.000D+00 0.000D+00 0.000D+00
 Coeff-En:   0.372D+00 0.628D+00
 Coeff:     -0.135D-02 0.283D-02 0.115D-01-0.335D-02 0.153D-01 0.784D-01
 Coeff:      0.436D+00 0.461D+00
 Gap=     0.066 Goal=   None    Shift=    0.000
 RMSDP=1.31D-05 MaxDP=4.29D-03 DE=-6.80D-05 OVMax= 4.47D-03

 Cycle   9  Pass 1  IDiag  1:
 RMSU=  5.12D-06    CP:  1.01D+00  8.73D-01  7.23D-01  2.77D-01  6.87D-01
                    CP:  4.89D-01  7.70D-01  4.82D-01
 E= -1307.62623827025     Delta-E=       -0.000068129520 Rises=F Damp=F
 DIIS: error= 5.82D-05 at cycle   9 NSaved=   9.
 NSaved= 9 IEnMin= 9 EnMin= -1307.62623827025     IErMin= 9 ErrMin= 5.82D-05
 ErrMax= 5.82D-05  0.00D+00 EMaxC= 1.00D-01 BMatC= 5.25D-06 BMatP= 6.72D-05
 IDIUse=1 WtCom= 1.00D+00 WtEn= 0.00D+00
 Coeff-Com:  0.136D-03-0.919D-04 0.311D-02-0.438D-03-0.441D-04 0.368D-01
 Coeff-Com:  0.259D+00 0.316D+00 0.385D+00
 Coeff:      0.136D-03-0.919D-04 0.311D-02-0.438D-03-0.441D-04 0.368D-01
 Coeff:      0.259D+00 0.316D+00 0.385D+00
 Gap=     0.066 Goal=   None    Shift=    0.000
 RMSDP=3.23D-06 MaxDP=2.23D-04 DE=-6.81D-05 OVMax= 7.77D-04

 Cycle  10  Pass 1  IDiag  1:
 RMSU=  1.52D-06    CP:  1.01D+00  8.72D-01  7.24D-01  2.77D-01  6.85D-01
                    CP:  4.94D-01  7.54D-01  5.29D-01  6.24D-01
 E= -1307.62624352320     Delta-E=       -0.000005252955 Rises=F Damp=F
 DIIS: error= 1.29D-05 at cycle  10 NSaved=  10.
 NSaved=10 IEnMin=10 EnMin= -1307.62624352320     IErMin=10 ErrMin= 1.29D-05
 ErrMax= 1.29D-05  0.00D+00 EMaxC= 1.00D-01 BMatC= 2.68D-07 BMatP= 5.25D-06
 IDIUse=1 WtCom= 1.00D+00 WtEn= 0.00D+00
 Coeff-Com:  0.254D-03-0.372D-03 0.123D-02-0.385D-05-0.117D-02 0.176D-01
 Coeff-Com:  0.128D+00 0.165D+00 0.240D+00 0.449D+00
 Coeff:      0.254D-03-0.372D-03 0.123D-02-0.385D-05-0.117D-02 0.176D-01
 Coeff:      0.128D+00 0.165D+00 0.240D+00 0.449D+00
 Gap=     0.066 Goal=   None    Shift=    0.000
 RMSDP=1.21D-06 MaxDP=2.55D-04 DE=-5.25D-06 OVMax= 2.01D-04

 Cycle  11  Pass 1  IDiag  1:
 RMSU=  6.23D-07    CP:  1.01D+00  8.72D-01  7.24D-01  2.77D-01  6.83D-01
                    CP:  4.98D-01  7.57D-01  5.24D-01  6.57D-01  7.70D-01
 E= -1307.62624376161     Delta-E=       -0.000000238413 Rises=F Damp=F
 DIIS: error= 5.12D-06 at cycle  11 NSaved=  11.
 NSaved=11 IEnMin=11 EnMin= -1307.62624376161     IErMin=11 ErrMin= 5.12D-06
 ErrMax= 5.12D-06  0.00D+00 EMaxC= 1.00D-01 BMatC= 3.64D-08 BMatP= 2.68D-07
 IDIUse=1 WtCom= 1.00D+00 WtEn= 0.00D+00
 Coeff-Com:  0.743D-04-0.573D-04 0.287D-03 0.307D-04-0.950D-03 0.618D-02
 Coeff-Com:  0.456D-01 0.619D-01 0.992D-01 0.285D+00 0.503D+00
 Coeff:      0.743D-04-0.573D-04 0.287D-03 0.307D-04-0.950D-03 0.618D-02
 Coeff:      0.456D-01 0.619D-01 0.992D-01 0.285D+00 0.503D+00
 Gap=     0.066 Goal=   None    Shift=    0.000
 RMSDP=4.24D-07 MaxDP=9.20D-05 DE=-2.38D-07 OVMax= 7.30D-05

 Cycle  12  Pass 1  IDiag  1:
 RMSU=  1.30D-07    CP:  1.01D+00  8.72D-01  7.24D-01  2.77D-01  6.84D-01
                    CP:  4.97D-01  7.57D-01  5.29D-01  6.47D-01  8.12D-01
                    CP:  6.88D-01
 E= -1307.62624379775     Delta-E=       -0.000000036137 Rises=F Damp=F
 DIIS: error= 9.86D-07 at cycle  12 NSaved=  12.
 NSaved=12 IEnMin=12 EnMin= -1307.62624379775     IErMin=12 ErrMin= 9.86D-07
 ErrMax= 9.86D-07  0.00D+00 EMaxC= 1.00D-01 BMatC= 1.91D-09 BMatP= 3.64D-08
 IDIUse=1 WtCom= 1.00D+00 WtEn= 0.00D+00
 Coeff-Com:  0.330D-04-0.224D-04 0.977D-04 0.191D-04-0.427D-03 0.231D-02
 Coeff-Com:  0.165D-01 0.231D-01 0.382D-01 0.128D+00 0.285D+00 0.507D+00
 Coeff:      0.330D-04-0.224D-04 0.977D-04 0.191D-04-0.427D-03 0.231D-02
 Coeff:      0.165D-01 0.231D-01 0.382D-01 0.128D+00 0.285D+00 0.507D+00
 Gap=     0.066 Goal=   None    Shift=    0.000
 RMSDP=1.08D-07 MaxDP=2.32D-05 DE=-3.61D-08 OVMax= 1.54D-05

 Cycle  13  Pass 1  IDiag  1:
 RMSU=  4.06D-08    CP:  1.01D+00  8.72D-01  7.24D-01  2.77D-01  6.84D-01
                    CP:  4.97D-01  7.57D-01  5.29D-01  6.52D-01  8.08D-01
                    CP:  7.34D-01  7.60D-01
 E= -1307.62624379913     Delta-E=       -0.000000001383 Rises=F Damp=F
 DIIS: error= 3.35D-07 at cycle  13 NSaved=  13.
 NSaved=13 IEnMin=13 EnMin= -1307.62624379913     IErMin=13 ErrMin= 3.35D-07
 ErrMax= 3.35D-07  0.00D+00 EMaxC= 1.00D-01 BMatC= 2.80D-10 BMatP= 1.91D-09
 IDIUse=1 WtCom= 1.00D+00 WtEn= 0.00D+00
 Coeff-Com:  0.125D-04-0.121D-04 0.208D-04 0.711D-05-0.115D-03 0.532D-03
 Coeff-Com:  0.346D-02 0.505D-02 0.873D-02 0.365D-01 0.101D+00 0.316D+00
 Coeff-Com:  0.529D+00
 Coeff:      0.125D-04-0.121D-04 0.208D-04 0.711D-05-0.115D-03 0.532D-03
 Coeff:      0.346D-02 0.505D-02 0.873D-02 0.365D-01 0.101D+00 0.316D+00
 Coeff:      0.529D+00
 Gap=     0.066 Goal=   None    Shift=    0.000
 RMSDP=3.03D-08 MaxDP=5.47D-06 DE=-1.38D-09 OVMax= 4.46D-06

 Cycle  14  Pass 1  IDiag  1:
 RMSU=  1.41D-08    CP:  1.01D+00  8.72D-01  7.24D-01  2.77D-01  6.84D-01
                    CP:  4.97D-01  7.57D-01  5.29D-01  6.52D-01  8.13D-01
                    CP:  7.27D-01  8.19D-01  6.92D-01
 E= -1307.62624379940     Delta-E=       -0.000000000266 Rises=F Damp=F
 DIIS: error= 1.62D-07 at cycle  14 NSaved=  14.
 NSaved=14 IEnMin=14 EnMin= -1307.62624379940     IErMin=14 ErrMin= 1.62D-07
 ErrMax= 1.62D-07  0.00D+00 EMaxC= 1.00D-01 BMatC= 3.39D-11 BMatP= 2.80D-10
 IDIUse=1 WtCom= 1.00D+00 WtEn= 0.00D+00
 Coeff-Com:  0.482D-05-0.546D-05 0.623D-05 0.249D-05-0.326D-04 0.142D-03
 Coeff-Com:  0.783D-03 0.120D-02 0.224D-02 0.124D-01 0.400D-01 0.158D+00
 Coeff-Com:  0.335D+00 0.451D+00
 Coeff:      0.482D-05-0.546D-05 0.623D-05 0.249D-05-0.326D-04 0.142D-03
 Coeff:      0.783D-03 0.120D-02 0.224D-02 0.124D-01 0.400D-01 0.158D+00
 Coeff:      0.335D+00 0.451D+00
 Gap=     0.066 Goal=   None    Shift=    0.000
 RMSDP=8.50D-09 MaxDP=1.44D-06 DE=-2.66D-10 OVMax= 1.76D-06

 Cycle  15  Pass 1  IDiag  1:
 RMSU=  4.75D-09    CP:  1.01D+00  8.72D-01  7.24D-01  2.77D-01  6.84D-01
                    CP:  4.97D-01  7.57D-01  5.29D-01  6.52D-01  8.14D-01
                    CP:  7.32D-01  8.15D-01  7.36D-01  8.05D-01
 E= -1307.62624379943     Delta-E=       -0.000000000025 Rises=F Damp=F
 DIIS: error= 5.17D-08 at cycle  15 NSaved=  15.
 NSaved=15 IEnMin=15 EnMin= -1307.62624379943     IErMin=15 ErrMin= 5.17D-08
 ErrMax= 5.17D-08  0.00D+00 EMaxC= 1.00D-01 BMatC= 2.90D-12 BMatP= 3.39D-11
 IDIUse=1 WtCom= 1.00D+00 WtEn= 0.00D+00
 Coeff-Com:  0.561D-06-0.818D-06-0.776D-06 0.398D-06-0.238D-05-0.318D-05
 Coeff-Com: -0.745D-04-0.830D-04-0.355D-04 0.163D-02 0.796D-02 0.428D-01
 Coeff-Com:  0.113D+00 0.258D+00 0.577D+00
 Coeff:      0.561D-06-0.818D-06-0.776D-06 0.398D-06-0.238D-05-0.318D-05
 Coeff:     -0.745D-04-0.830D-04-0.355D-04 0.163D-02 0.796D-02 0.428D-01
 Coeff:      0.113D+00 0.258D+00 0.577D+00
 Gap=     0.066 Goal=   None    Shift=    0.000
 RMSDP=3.05D-09 MaxDP=5.34D-07 DE=-2.55D-11 OVMax= 4.19D-07

 Error on total polarization charges =  0.05673
 SCF Done:  E(RPBE-PBE) =  -1307.62624380     A.U. after   15 cycles
            NFock= 15  Conv=0.31D-08     -V/T= 2.0047
 KE= 1.301458587582D+03 PE=-8.769754433402D+03 EE= 3.285759708924D+03
 SMD-CDS (non-electrostatic) energy       (kcal/mol) =      -5.32
 (included in total energy above)
 Leave Link  502 at Sat Mar 27 01:31:31 2021, MaxMem=  5242880000 cpu:     11415.2
 (Enter /opt/nce/packages/global/g09/l601.exe)
 Copying SCF densities to generalized density rwf, IOpCl= 0 IROHF=0.

 **********************************************************************

            Population analysis using the SCF density.

 **********************************************************************

 Alpha  occ. eigenvalues --  -18.79400 -18.76565 -18.76353 -14.09160  -9.97217
 Alpha  occ. eigenvalues --   -9.97174  -9.95731  -9.95267  -9.93771  -9.93622
 Alpha  occ. eigenvalues --   -9.93555  -9.92757  -9.91773  -9.91396  -9.91362
 Alpha  occ. eigenvalues --   -9.91165  -9.91098  -9.91019  -9.90994  -9.90583
 Alpha  occ. eigenvalues --   -9.90544  -9.90495  -9.90446  -9.90018  -9.89665
 Alpha  occ. eigenvalues --   -9.89637  -9.89595  -9.89558  -9.89453  -9.89058
 Alpha  occ. eigenvalues --   -6.53747  -0.99535  -0.95579  -0.94781  -0.92493
 Alpha  occ. eigenvalues --   -0.82258  -0.80940  -0.79291  -0.78357  -0.75755
 Alpha  occ. eigenvalues --   -0.72071  -0.71051  -0.70285  -0.69384  -0.68799
 Alpha  occ. eigenvalues --   -0.68436  -0.67818  -0.64241  -0.62151  -0.60606
 Alpha  occ. eigenvalues --   -0.59215  -0.56853  -0.56001  -0.55590  -0.55250
 Alpha  occ. eigenvalues --   -0.53199  -0.52332  -0.51690  -0.51131  -0.50219
 Alpha  occ. eigenvalues --   -0.49329  -0.48402  -0.46979  -0.45972  -0.45071
 Alpha  occ. eigenvalues --   -0.43639  -0.43472  -0.43370  -0.42408  -0.42161
 Alpha  occ. eigenvalues --   -0.40979  -0.40713  -0.40516  -0.40202  -0.40041
 Alpha  occ. eigenvalues --   -0.39697  -0.38770  -0.38304  -0.37706  -0.37200
 Alpha  occ. eigenvalues --   -0.36488  -0.36051  -0.35260  -0.35079  -0.34814
 Alpha  occ. eigenvalues --   -0.34019  -0.33941  -0.33274  -0.32574  -0.32529
 Alpha  occ. eigenvalues --   -0.32464  -0.32244  -0.31636  -0.30549  -0.29917
 Alpha  occ. eigenvalues --   -0.29417  -0.28875  -0.28426  -0.27830  -0.26343
 Alpha  occ. eigenvalues --   -0.25526  -0.24506  -0.24134  -0.24085  -0.22213
 Alpha  occ. eigenvalues --   -0.20936
 Alpha virt. eigenvalues --   -0.14290  -0.08180  -0.07213  -0.06571  -0.05513
 Alpha virt. eigenvalues --   -0.04980  -0.04680  -0.04326  -0.01214   0.00252
 Alpha virt. eigenvalues --    0.02227   0.02589   0.02961   0.03528   0.04025
 Alpha virt. eigenvalues --    0.04171   0.04475   0.04782   0.05647   0.06226
 Alpha virt. eigenvalues --    0.06539   0.06698   0.07240   0.07321   0.07457
 Alpha virt. eigenvalues --    0.08262   0.08380   0.08959   0.09044   0.09438
 Alpha virt. eigenvalues --    0.09582   0.09780   0.10042   0.10423   0.10690
 Alpha virt. eigenvalues --    0.11119   0.11402   0.11627   0.12394   0.12710
 Alpha virt. eigenvalues --    0.13552   0.14476   0.14662   0.14768   0.14984
 Alpha virt. eigenvalues --    0.15647   0.16333   0.16430   0.17054   0.17551
 Alpha virt. eigenvalues --    0.17820   0.18122   0.18142   0.18512   0.18717
 Alpha virt. eigenvalues --    0.19004   0.19267   0.19411   0.19704   0.19937
 Alpha virt. eigenvalues --    0.20199   0.20316   0.20447   0.21195   0.21283
 Alpha virt. eigenvalues --    0.21904   0.22195   0.22425   0.23044   0.23267
 Alpha virt. eigenvalues --    0.23603   0.23835   0.24301   0.24555   0.24591
 Alpha virt. eigenvalues --    0.24713   0.24951   0.25618   0.25785   0.26421
 Alpha virt. eigenvalues --    0.26583   0.26757   0.26999   0.27635   0.28141
 Alpha virt. eigenvalues --    0.28437   0.28629   0.28849   0.29218   0.29443
 Alpha virt. eigenvalues --    0.29721   0.30475   0.30887   0.31183   0.31446
 Alpha virt. eigenvalues --    0.31769   0.32154   0.32371   0.32764   0.32942
 Alpha virt. eigenvalues --    0.33212   0.33715   0.33759   0.33973   0.34551
 Alpha virt. eigenvalues --    0.34662   0.35269   0.35621   0.35920   0.36265
 Alpha virt. eigenvalues --    0.36950   0.37160   0.37331   0.37775   0.37831
 Alpha virt. eigenvalues --    0.38107   0.38683   0.39034   0.39186   0.39361
 Alpha virt. eigenvalues --    0.39463   0.39809   0.40036   0.40342   0.40535
 Alpha virt. eigenvalues --    0.40982   0.41251   0.41616   0.41697   0.42113
 Alpha virt. eigenvalues --    0.42136   0.42609   0.42790   0.42970   0.43040
 Alpha virt. eigenvalues --    0.43679   0.43917   0.44189   0.44631   0.44868
 Alpha virt. eigenvalues --    0.45073   0.45703   0.45839   0.45941   0.46467
 Alpha virt. eigenvalues --    0.46505   0.47230   0.47623   0.47859   0.48168
 Alpha virt. eigenvalues --    0.48615   0.49190   0.49330   0.49834   0.50704
 Alpha virt. eigenvalues --    0.50781   0.51341   0.52007   0.52578   0.52794
 Alpha virt. eigenvalues --    0.53535   0.54549   0.54791   0.55411   0.55603
 Alpha virt. eigenvalues --    0.55947   0.56370   0.56670   0.57057   0.58001
 Alpha virt. eigenvalues --    0.58183   0.58689   0.59037   0.59481   0.60045
 Alpha virt. eigenvalues --    0.60310   0.60535   0.60907   0.61069   0.61303
 Alpha virt. eigenvalues --    0.61701   0.61855   0.62080   0.62264   0.63034
 Alpha virt. eigenvalues --    0.63309   0.63473   0.63958   0.63968   0.64664
 Alpha virt. eigenvalues --    0.64958   0.65625   0.65934   0.66234   0.66559
 Alpha virt. eigenvalues --    0.67377   0.67879   0.68267   0.68551   0.69238
 Alpha virt. eigenvalues --    0.69364   0.69608   0.69631   0.70232   0.70634
 Alpha virt. eigenvalues --    0.71115   0.71477   0.71812   0.72309   0.72514
 Alpha virt. eigenvalues --    0.72934   0.73640   0.74025   0.74640   0.75012
 Alpha virt. eigenvalues --    0.75537   0.75935   0.76546   0.77134   0.77431
 Alpha virt. eigenvalues --    0.77879   0.78201   0.78918   0.79589   0.80226
 Alpha virt. eigenvalues --    0.80692   0.80859   0.81297   0.81510   0.81766
 Alpha virt. eigenvalues --    0.82734   0.82856   0.83324   0.83659   0.83934
 Alpha virt. eigenvalues --    0.84168   0.85059   0.85373   0.86032   0.86759
 Alpha virt. eigenvalues --    0.87493   0.88301   0.88490   0.88981   0.89864
 Alpha virt. eigenvalues --    0.90037   0.90364   0.91158   0.91657   0.92292
 Alpha virt. eigenvalues --    0.92739   0.93059   0.93880   0.94590   0.95613
 Alpha virt. eigenvalues --    0.95952   0.96511   0.97321   0.98236   0.98877
 Alpha virt. eigenvalues --    0.99277   0.99428   0.99711   1.00836   1.01090
 Alpha virt. eigenvalues --    1.01637   1.02527   1.02888   1.03245   1.03835
 Alpha virt. eigenvalues --    1.04318   1.04896   1.05122   1.05777   1.06110
 Alpha virt. eigenvalues --    1.06190   1.07101   1.07437   1.07846   1.08893
 Alpha virt. eigenvalues --    1.09304   1.10088   1.10889   1.11062   1.11969
 Alpha virt. eigenvalues --    1.12424   1.12644   1.13700   1.14955   1.15146
 Alpha virt. eigenvalues --    1.15755   1.16139   1.16809   1.17132   1.17901
 Alpha virt. eigenvalues --    1.18047   1.18437   1.18554   1.19252   1.19613
 Alpha virt. eigenvalues --    1.19873   1.20560   1.20903   1.21619   1.22050
 Alpha virt. eigenvalues --    1.22617   1.23547   1.23787   1.24308   1.24658
 Alpha virt. eigenvalues --    1.25029   1.25452   1.26365   1.26906   1.26945
 Alpha virt. eigenvalues --    1.27620   1.28501   1.28760   1.29919   1.30715
 Alpha virt. eigenvalues --    1.31717   1.33013   1.33307   1.34920   1.35276
 Alpha virt. eigenvalues --    1.35530   1.35860   1.36269   1.36978   1.37400
 Alpha virt. eigenvalues --    1.38027   1.38054   1.39114   1.39507   1.40150
 Alpha virt. eigenvalues --    1.40535   1.41252   1.41768   1.42275   1.42835
 Alpha virt. eigenvalues --    1.43108   1.43976   1.44345   1.44713   1.45544
 Alpha virt. eigenvalues --    1.45839   1.46148   1.46591   1.46970   1.47059
 Alpha virt. eigenvalues --    1.47360   1.47832   1.48490   1.48974   1.49787
 Alpha virt. eigenvalues --    1.50009   1.50347   1.50783   1.51183   1.51568
 Alpha virt. eigenvalues --    1.52017   1.52633   1.53355   1.53996   1.54273
 Alpha virt. eigenvalues --    1.54605   1.55095   1.55692   1.56103   1.56540
 Alpha virt. eigenvalues --    1.57037   1.57459   1.58601   1.58807   1.59263
 Alpha virt. eigenvalues --    1.59818   1.59942   1.60354   1.60730   1.61982
 Alpha virt. eigenvalues --    1.62069   1.62782   1.63030   1.63164   1.63288
 Alpha virt. eigenvalues --    1.63741   1.64174   1.64551   1.65548   1.66018
 Alpha virt. eigenvalues --    1.66736   1.66986   1.67766   1.68237   1.68656
 Alpha virt. eigenvalues --    1.69207   1.69940   1.70011   1.70322   1.70348
 Alpha virt. eigenvalues --    1.71214   1.71771   1.72373   1.73461   1.74081
 Alpha virt. eigenvalues --    1.75184   1.75722   1.76532   1.77138   1.77623
 Alpha virt. eigenvalues --    1.78083   1.79577   1.79934   1.80303   1.80701
 Alpha virt. eigenvalues --    1.81689   1.81771   1.82668   1.83450   1.83702
 Alpha virt. eigenvalues --    1.84779   1.84999   1.85799   1.86393   1.87071
 Alpha virt. eigenvalues --    1.87646   1.88242   1.89252   1.89779   1.91312
 Alpha virt. eigenvalues --    1.91338   1.91667   1.92200   1.92923   1.93929
 Alpha virt. eigenvalues --    1.94173   1.94790   1.95671   1.96402   1.96991
 Alpha virt. eigenvalues --    1.98300   1.98560   1.98726   1.99344   2.00111
 Alpha virt. eigenvalues --    2.00458   2.01106   2.01852   2.02471   2.03451
 Alpha virt. eigenvalues --    2.03730   2.03909   2.05661   2.05818   2.07092
 Alpha virt. eigenvalues --    2.07621   2.08033   2.08572   2.08946   2.09452
 Alpha virt. eigenvalues --    2.09662   2.10153   2.10320   2.11638   2.12316
 Alpha virt. eigenvalues --    2.13036   2.13483   2.14353   2.14955   2.15277
 Alpha virt. eigenvalues --    2.15784   2.16950   2.17686   2.18189   2.18480
 Alpha virt. eigenvalues --    2.19076   2.19416   2.20181   2.20439   2.22107
 Alpha virt. eigenvalues --    2.22813   2.23199   2.24341   2.24799   2.25378
 Alpha virt. eigenvalues --    2.25916   2.27089   2.27551   2.27846   2.28201
 Alpha virt. eigenvalues --    2.29799   2.31204   2.31721   2.32341   2.32843
 Alpha virt. eigenvalues --    2.33124   2.34095   2.34448   2.36185   2.37191
 Alpha virt. eigenvalues --    2.38080   2.38489   2.39184   2.39966   2.40712
 Alpha virt. eigenvalues --    2.41098   2.41781   2.42214   2.42597   2.43200
 Alpha virt. eigenvalues --    2.44901   2.45027   2.45984   2.46055   2.46443
 Alpha virt. eigenvalues --    2.46681   2.47111   2.48264   2.49314   2.49885
 Alpha virt. eigenvalues --    2.50346   2.50771   2.51498   2.52010   2.52342
 Alpha virt. eigenvalues --    2.52855   2.53158   2.53382   2.53862   2.54420
 Alpha virt. eigenvalues --    2.55383   2.55661   2.56244   2.56536   2.56958
 Alpha virt. eigenvalues --    2.57633   2.57993   2.59002   2.59150   2.59811
 Alpha virt. eigenvalues --    2.60044   2.60587   2.61042   2.61206   2.61436
 Alpha virt. eigenvalues --    2.61685   2.61973   2.62511   2.62890   2.63088
 Alpha virt. eigenvalues --    2.63399   2.64096   2.64384   2.64690   2.65192
 Alpha virt. eigenvalues --    2.65573   2.65862   2.66888   2.67633   2.67710
 Alpha virt. eigenvalues --    2.68476   2.68509   2.68990   2.69582   2.70052
 Alpha virt. eigenvalues --    2.70341   2.70607   2.71018   2.71512   2.72148
 Alpha virt. eigenvalues --    2.72709   2.73094   2.73428   2.73672   2.74709
 Alpha virt. eigenvalues --    2.75298   2.75803   2.75956   2.76231   2.76577
 Alpha virt. eigenvalues --    2.76993   2.77259   2.77945   2.79317   2.79852
 Alpha virt. eigenvalues --    2.80072   2.80258   2.80752   2.81122   2.82238
 Alpha virt. eigenvalues --    2.82522   2.82767   2.83513   2.83975   2.84648
 Alpha virt. eigenvalues --    2.85505   2.85699   2.86088   2.86615   2.87276
 Alpha virt. eigenvalues --    2.88159   2.88319   2.88735   2.89091   2.90032
 Alpha virt. eigenvalues --    2.90719   2.91223   2.92105   2.92459   2.92780
 Alpha virt. eigenvalues --    2.93362   2.94126   2.94364   2.95573   2.95830
 Alpha virt. eigenvalues --    2.96281   2.96804   2.97512   2.98173   2.98432
 Alpha virt. eigenvalues --    2.98972   2.99326   2.99525   3.00085   3.01620
 Alpha virt. eigenvalues --    3.02340   3.02600   3.02911   3.03619   3.04112
 Alpha virt. eigenvalues --    3.04166   3.04599   3.05144   3.05604   3.06225
 Alpha virt. eigenvalues --    3.06772   3.06832   3.07568   3.07892   3.08012
 Alpha virt. eigenvalues --    3.08397   3.08977   3.09396   3.09877   3.10545
 Alpha virt. eigenvalues --    3.11078   3.11237   3.11886   3.12371   3.12649
 Alpha virt. eigenvalues --    3.12727   3.13725   3.14279   3.15635   3.15750
 Alpha virt. eigenvalues --    3.16143   3.16607   3.16940   3.17918   3.18118
 Alpha virt. eigenvalues --    3.18548   3.19788   3.19882   3.20330   3.20717
 Alpha virt. eigenvalues --    3.21074   3.21262   3.22522   3.22657   3.22880
 Alpha virt. eigenvalues --    3.23114   3.23571   3.23766   3.24343   3.24484
 Alpha virt. eigenvalues --    3.25080   3.25602   3.26335   3.26465   3.26891
 Alpha virt. eigenvalues --    3.27079   3.27893   3.28300   3.28813   3.29200
 Alpha virt. eigenvalues --    3.29292   3.29784   3.30332   3.31043   3.31068
 Alpha virt. eigenvalues --    3.31608   3.31920   3.32445   3.32902   3.34226
 Alpha virt. eigenvalues --    3.34372   3.34907   3.35211   3.35578   3.36215
 Alpha virt. eigenvalues --    3.36724   3.37065   3.37720   3.37752   3.38544
 Alpha virt. eigenvalues --    3.38928   3.39186   3.39755   3.40168   3.40620
 Alpha virt. eigenvalues --    3.41006   3.41225   3.42023   3.42472   3.42784
 Alpha virt. eigenvalues --    3.43184   3.44040   3.44400   3.44718   3.45044
 Alpha virt. eigenvalues --    3.45190   3.45515   3.45663   3.46573   3.46981
 Alpha virt. eigenvalues --    3.48519   3.49018   3.49074   3.49482   3.50013
 Alpha virt. eigenvalues --    3.51037   3.51596   3.51970   3.52599   3.54063
 Alpha virt. eigenvalues --    3.54912   3.55218   3.55727   3.56730   3.58027
 Alpha virt. eigenvalues --    3.58577   3.58870   3.60106   3.60630   3.61178
 Alpha virt. eigenvalues --    3.61437   3.62313   3.64379   3.65133   3.65784
 Alpha virt. eigenvalues --    3.67104   3.67840   3.68978   3.69348   3.70508
 Alpha virt. eigenvalues --    3.71539   3.71778   3.74499   3.75121   3.75633
 Alpha virt. eigenvalues --    3.77149   3.78053   3.78677   3.79653   3.79993
 Alpha virt. eigenvalues --    3.80846   3.81494   3.82221   3.84091   3.84998
 Alpha virt. eigenvalues --    3.85790   3.86759   3.86977   3.88094   3.89489
 Alpha virt. eigenvalues --    3.90566   3.90795   3.91809   3.91887   3.92697
 Alpha virt. eigenvalues --    3.95463   3.96007   3.96405   3.97332   3.97593
 Alpha virt. eigenvalues --    3.98201   3.99149   3.99310   4.00185   4.00521
 Alpha virt. eigenvalues --    4.02967   4.03298   4.04401   4.05213   4.05430
 Alpha virt. eigenvalues --    4.05567   4.05796   4.06282   4.07243   4.07909
 Alpha virt. eigenvalues --    4.09795   4.10451   4.10815   4.11733   4.11926
 Alpha virt. eigenvalues --    4.12015   4.12264   4.12679   4.13059   4.13573
 Alpha virt. eigenvalues --    4.14067   4.14217   4.14676   4.15316   4.15995
 Alpha virt. eigenvalues --    4.16869   4.17198   4.18155   4.18754   4.19369
 Alpha virt. eigenvalues --    4.21300   4.21787   4.23129   4.23957   4.24509
 Alpha virt. eigenvalues --    4.25703   4.25993   4.28123   4.29035   4.29856
 Alpha virt. eigenvalues --    4.31819   4.33306   4.34454   4.35667   4.37514
 Alpha virt. eigenvalues --    4.38090   4.38813   4.40025   4.41650   4.42705
 Alpha virt. eigenvalues --    4.43842   4.45000   4.47429   4.48325   4.49842
 Alpha virt. eigenvalues --    4.51175   4.52190   4.52806   4.53810   4.54336
 Alpha virt. eigenvalues --    4.55882   4.57741   4.58052   4.60989   4.62203
 Alpha virt. eigenvalues --    4.63102   4.64408   4.67058   4.67655   4.69759
 Alpha virt. eigenvalues --    4.70833   4.72539   4.74376   4.74863   4.76414
 Alpha virt. eigenvalues --    4.76893   4.78700   4.81220   4.83865   4.84210
 Alpha virt. eigenvalues --    4.85427   4.86681   4.87878   4.90184   4.90861
 Alpha virt. eigenvalues --    4.92624   4.95234   4.96903   5.00082   5.01228
 Alpha virt. eigenvalues --    5.03783   5.04349   5.05609   5.07227   5.08346
 Alpha virt. eigenvalues --    5.08824   5.11033   5.13106   5.13954   5.14509
 Alpha virt. eigenvalues --    5.15049   5.17295   5.17693   5.18661   5.22024
 Alpha virt. eigenvalues --    5.23557   5.24582   5.25457   5.27709   5.28956
 Alpha virt. eigenvalues --    5.31102   5.32757   5.35344   5.36438   5.38014
 Alpha virt. eigenvalues --    5.40606   5.42850   5.43452   5.44513   5.44974
 Alpha virt. eigenvalues --    5.45642   5.49175   5.49757   5.51476   5.58847
 Alpha virt. eigenvalues --    5.61564   5.62824   5.63353   5.65643   5.66550
 Alpha virt. eigenvalues --    5.68141   5.70230   5.72533   5.73539   5.81358
 Alpha virt. eigenvalues --    5.89439   5.91421   5.98567   6.12258   6.16708
 Alpha virt. eigenvalues --    6.18748   6.24087   6.24211   6.30395   6.30589
 Alpha virt. eigenvalues --    6.39393   6.43536   6.49598   6.57724   6.60795
 Alpha virt. eigenvalues --    6.63986   6.64652   6.65697   6.72890   6.73955
 Alpha virt. eigenvalues --    6.82582   7.03629   7.11874   7.20030   7.28529
 Alpha virt. eigenvalues --   15.90432  21.96097  22.03982  22.08292  22.16402
 Alpha virt. eigenvalues --   22.21119  22.32410  22.35054  22.35543  22.37003
 Alpha virt. eigenvalues --   22.39063  22.40890  22.42855  22.45620  22.50097
 Alpha virt. eigenvalues --   22.51395  22.58196  22.62395  22.64566  22.66617
 Alpha virt. eigenvalues --   22.71814  22.82315  22.89484  23.03886  23.08907
 Alpha virt. eigenvalues --   23.10938  23.44969  32.98354  43.19655  43.36075
 Alpha virt. eigenvalues --   43.83374
          Condensed to atoms (all electrons):
 Mulliken charges:
               1
     1  C   -0.115705
     2  C   -0.167952
     3  C    0.101590
     4  C    0.118063
     5  C   -0.211384
     6  C   -0.131269
     7  C    0.004039
     8  C    0.227326
     9  C    0.047774
    10  C   -0.161923
    11  H    0.169770
    12  C   -0.121670
    13  C   -0.127854
    14  C   -0.204277
    15  H    0.161490
    16  H    0.170337
    17  H    0.169950
    18  H    0.157533
    19  H    0.160739
    20  H    0.156304
    21  H    0.169105
    22  N    0.344453
    23  C    0.015561
    24  C   -0.034618
    25  C   -0.253734
    26  C   -0.228890
    27  C   -0.113106
    28  C   -0.136300
    29  H    0.149774
    30  H    0.146284
    31  C    0.000970
    32  C   -0.206439
    33  C   -0.183373
    34  C   -0.244838
    35  H    0.150312
    36  C   -0.202462
    37  H    0.145873
    38  C    0.323746
    39  H    0.158201
    40  H    0.132931
    41  O   -0.193529
    42  C   -0.257454
    43  H    0.164000
    44  H    0.150247
    45  H    0.150076
    46  H    0.147244
    47  B    0.242493
    48  O   -0.386621
    49  O   -0.395006
    50  H    0.346817
    51  H    0.348965
    52  H    0.146435
 Sum of Mulliken charges =   1.00000
 Mulliken charges with hydrogens summed into heavy atoms:
               1
     1  C    0.045785
     2  C    0.002384
[...]
 Alpha virt. eigenvalues --    0.44993   0.45639   0.45797   0.45974   0.46411
 Alpha virt. eigenvalues --    0.46517   0.47414   0.47604   0.47818   0.48139
 Alpha virt. eigenvalues --    0.48457   0.48865   0.49552   0.49927   0.50652
 Alpha virt. eigenvalues --    0.50809   0.51658   0.52164   0.52254   0.52626
 Alpha virt. eigenvalues --    0.53718   0.54666   0.54882   0.55503   0.55603
 Alpha virt. eigenvalues --    0.55872   0.56381   0.56960   0.57198   0.58115
 Alpha virt. eigenvalues --    0.58402   0.58622   0.59265   0.59481   0.59792
 Alpha virt. eigenvalues --    0.60433   0.60636   0.60748   0.61094   0.61313
 Alpha virt. eigenvalues --    0.61523   0.62009   0.62347   0.62551   0.62805
 Alpha virt. eigenvalues --    0.63080   0.63547   0.63802   0.64153   0.64590
 Alpha virt. eigenvalues --    0.65117   0.65490   0.65768   0.66251   0.66537
 Alpha virt. eigenvalues --    0.67576   0.67825   0.68232   0.68699   0.69282
 Alpha virt. eigenvalues --    0.69466   0.69530   0.69709   0.70349   0.70402
 Alpha virt. eigenvalues --    0.71228   0.71470   0.71885   0.72309   0.72676
 Alpha virt. eigenvalues --    0.72943   0.73477   0.74010   0.74643   0.74850
 Alpha virt. eigenvalues --    0.75441   0.75799   0.76333   0.76786   0.77155
 Alpha virt. eigenvalues --    0.77791   0.78230   0.78698   0.79642   0.79904
 Alpha virt. eigenvalues --    0.80179   0.80753   0.81251   0.81329   0.81677
 Alpha virt. eigenvalues --    0.82572   0.82807   0.82953   0.83243   0.83691
 Alpha virt. eigenvalues --    0.84161   0.84504   0.85548   0.86134   0.86506
 Alpha virt. eigenvalues --    0.87105   0.88425   0.88619   0.89054   0.89558
 Alpha virt. eigenvalues --    0.89923   0.90115   0.91102   0.91447   0.92087
 Alpha virt. eigenvalues --    0.92753   0.93315   0.93821   0.94837   0.95301
 Alpha virt. eigenvalues --    0.95800   0.96679   0.97120   0.98117   0.98322
 Alpha virt. eigenvalues --    0.98965   0.99366   0.99711   1.00506   1.00816
 Alpha virt. eigenvalues --    1.01698   1.02429   1.02703   1.03093   1.03665
 Alpha virt. eigenvalues --    1.04120   1.04675   1.04894   1.05244   1.05432
 Alpha virt. eigenvalues --    1.06369   1.07307   1.07500   1.08291   1.08693
 Alpha virt. eigenvalues --    1.08935   1.09749   1.10608   1.10854   1.11545
 Alpha virt. eigenvalues --    1.12101   1.12342   1.13299   1.15070   1.15306
 Alpha virt. eigenvalues --    1.15910   1.16272   1.17299   1.17500   1.17670
 Alpha virt. eigenvalues --    1.18271   1.18347   1.18850   1.19440   1.19544
 Alpha virt. eigenvalues --    1.20247   1.20449   1.20911   1.21433   1.22064
 Alpha virt. eigenvalues --    1.22655   1.23246   1.23505   1.24274   1.24502
 Alpha virt. eigenvalues --    1.25162   1.25886   1.26283   1.26514   1.26852
 Alpha virt. eigenvalues --    1.27809   1.28672   1.28955   1.30137   1.30774
 Alpha virt. eigenvalues --    1.31820   1.32697   1.32815   1.34926   1.35286
 Alpha virt. eigenvalues --    1.35542   1.35832   1.36247   1.36931   1.37249
 Alpha virt. eigenvalues --    1.37653   1.38333   1.38541   1.39393   1.40288
 Alpha virt. eigenvalues --    1.40403   1.41194   1.41299   1.42307   1.42987
 Alpha virt. eigenvalues --    1.43011   1.43758   1.44357   1.44915   1.45497
 Alpha virt. eigenvalues --    1.45936   1.46232   1.46942   1.47021   1.47314
 Alpha virt. eigenvalues --    1.47707   1.48076   1.48385   1.49288   1.49468
 Alpha virt. eigenvalues --    1.50087   1.50395   1.50729   1.51029   1.51810
 Alpha virt. eigenvalues --    1.52123   1.52529   1.53170   1.53909   1.54145
 Alpha virt. eigenvalues --    1.54527   1.55200   1.55909   1.56218   1.56458
 Alpha virt. eigenvalues --    1.57083   1.57534   1.58478   1.58969   1.59216
 Alpha virt. eigenvalues --    1.59654   1.59869   1.60447   1.60723   1.61811
 Alpha virt. eigenvalues --    1.62171   1.62317   1.62817   1.63228   1.63418
 Alpha virt. eigenvalues --    1.63687   1.64164   1.65051   1.65870   1.66277
 Alpha virt. eigenvalues --    1.66747   1.66984   1.67616   1.68427   1.68671
 Alpha virt. eigenvalues --    1.69271   1.69772   1.70008   1.70326   1.70831
 Alpha virt. eigenvalues --    1.70962   1.71211   1.72187   1.73199   1.73717
 Alpha virt. eigenvalues --    1.75054   1.75211   1.76549   1.77085   1.77910
 Alpha virt. eigenvalues --    1.78241   1.79389   1.80082   1.80445   1.80661
 Alpha virt. eigenvalues --    1.81578   1.81720   1.82698   1.83361   1.83757
 Alpha virt. eigenvalues --    1.84756   1.85440   1.85800   1.86462   1.87296
 Alpha virt. eigenvalues --    1.87419   1.88082   1.89419   1.89715   1.90692
 Alpha virt. eigenvalues --    1.91397   1.91864   1.92323   1.93113   1.93810
 Alpha virt. eigenvalues --    1.94140   1.94502   1.96124   1.96618   1.97068
 Alpha virt. eigenvalues --    1.97853   1.98413   1.98982   1.99134   2.00227
 Alpha virt. eigenvalues --    2.00480   2.01129   2.01803   2.02256   2.03058
 Alpha virt. eigenvalues --    2.03484   2.03868   2.05078   2.05682   2.06860
 Alpha virt. eigenvalues --    2.07220   2.07775   2.08124   2.09136   2.09341
 Alpha virt. eigenvalues --    2.09682   2.09935   2.10824   2.11339   2.12277
 Alpha virt. eigenvalues --    2.13051   2.13656   2.14588   2.15064   2.15395
 Alpha virt. eigenvalues --    2.15978   2.16978   2.17527   2.17736   2.18397
 Alpha virt. eigenvalues --    2.18493   2.19595   2.20178   2.20397   2.21770
 Alpha virt. eigenvalues --    2.22510   2.23006   2.24448   2.24621   2.24719
 Alpha virt. eigenvalues --    2.26139   2.26571   2.27170   2.27827   2.28251
 Alpha virt. eigenvalues --    2.29643   2.30902   2.31206   2.31899   2.32352
 Alpha virt. eigenvalues --    2.33186   2.33949   2.34112   2.35734   2.37263
 Alpha virt. eigenvalues --    2.37658   2.38362   2.38855   2.39082   2.39971
 Alpha virt. eigenvalues --    2.40950   2.41404   2.42330   2.42491   2.42561
 Alpha virt. eigenvalues --    2.44487   2.44875   2.45765   2.46264   2.46514
 Alpha virt. eigenvalues --    2.46700   2.47152   2.48289   2.49071   2.49624
 Alpha virt. eigenvalues --    2.50356   2.50919   2.51427   2.51919   2.52319
 Alpha virt. eigenvalues --    2.52841   2.53169   2.53377   2.53829   2.54346
 Alpha virt. eigenvalues --    2.55152   2.55658   2.56228   2.56562   2.57105
 Alpha virt. eigenvalues --    2.57350   2.58109   2.58696   2.59146   2.59776
 Alpha virt. eigenvalues --    2.60054   2.60587   2.60933   2.61316   2.61647
 Alpha virt. eigenvalues --    2.61885   2.62018   2.62440   2.62572   2.62924
 Alpha virt. eigenvalues --    2.63225   2.64196   2.64410   2.64560   2.65184
 Alpha virt. eigenvalues --    2.65519   2.65599   2.66661   2.67352   2.67822
 Alpha virt. eigenvalues --    2.67929   2.68527   2.68850   2.69479   2.69816
 Alpha virt. eigenvalues --    2.70369   2.70551   2.71044   2.71672   2.71911
 Alpha virt. eigenvalues --    2.72501   2.72945   2.72985   2.73909   2.74703
 Alpha virt. eigenvalues --    2.75090   2.75547   2.75857   2.76332   2.76636
 Alpha virt. eigenvalues --    2.77063   2.77471   2.77994   2.79324   2.79797
 Alpha virt. eigenvalues --    2.79976   2.80269   2.80707   2.81083   2.82275
 Alpha virt. eigenvalues --    2.82877   2.83015   2.83298   2.84202   2.84537
 Alpha virt. eigenvalues --    2.85433   2.85620   2.86030   2.86386   2.87459
 Alpha virt. eigenvalues --    2.88057   2.88330   2.88676   2.88860   2.89953
 Alpha virt. eigenvalues --    2.89999   2.91066   2.91901   2.92310   2.92582
 Alpha virt. eigenvalues --    2.93081   2.93820   2.94221   2.95421   2.95617
 Alpha virt. eigenvalues --    2.96094   2.96596   2.97455   2.97895   2.98603
 Alpha virt. eigenvalues --    2.98693   2.99267   2.99455   3.00072   3.01167
 Alpha virt. eigenvalues --    3.02100   3.02463   3.02775   3.03564   3.03742
 Alpha virt. eigenvalues --    3.03969   3.04284   3.04818   3.05626   3.05802
 Alpha virt. eigenvalues --    3.06259   3.07036   3.07578   3.07797   3.07983
 Alpha virt. eigenvalues --    3.08344   3.09180   3.09304   3.09698   3.10301
 Alpha virt. eigenvalues --    3.10811   3.11253   3.11810   3.12130   3.12402
 Alpha virt. eigenvalues --    3.12718   3.13234   3.13998   3.15625   3.15668
 Alpha virt. eigenvalues --    3.16046   3.16394   3.16967   3.17565   3.18029
 Alpha virt. eigenvalues --    3.18760   3.19180   3.19932   3.20034   3.20756
 Alpha virt. eigenvalues --    3.20986   3.21327   3.21859   3.22668   3.23036
 Alpha virt. eigenvalues --    3.23461   3.23543   3.23579   3.24373   3.24407
 Alpha virt. eigenvalues --    3.24821   3.25685   3.26158   3.26525   3.26937
 Alpha virt. eigenvalues --    3.27239   3.27847   3.28063   3.28448   3.29245
 Alpha virt. eigenvalues --    3.29610   3.29991   3.30152   3.30720   3.30877
 Alpha virt. eigenvalues --    3.31505   3.31958   3.32476   3.32925   3.34262
 Alpha virt. eigenvalues --    3.34558   3.34828   3.35325   3.35510   3.36136
 Alpha virt. eigenvalues --    3.36575   3.36794   3.37445   3.37577   3.38358
 Alpha virt. eigenvalues --    3.38741   3.39052   3.39596   3.40343   3.40463
 Alpha virt. eigenvalues --    3.40856   3.41207   3.41894   3.42132   3.42515
 Alpha virt. eigenvalues --    3.43051   3.43662   3.44179   3.44615   3.44731
 Alpha virt. eigenvalues --    3.44866   3.45231   3.45473   3.46206   3.47078
 Alpha virt. eigenvalues --    3.48215   3.48781   3.49057   3.49542   3.50241
 Alpha virt. eigenvalues --    3.51049   3.51465   3.51940   3.52943   3.54434
 Alpha virt. eigenvalues --    3.54847   3.55084   3.55614   3.56915   3.58145
 Alpha virt. eigenvalues --    3.58463   3.59004   3.60039   3.60189   3.60592
 Alpha virt. eigenvalues --    3.61324   3.62045   3.63990   3.65131   3.65504
 Alpha virt. eigenvalues --    3.67395   3.67808   3.68642   3.69012   3.70478
 Alpha virt. eigenvalues --    3.71472   3.71797   3.74247   3.75085   3.75697
 Alpha virt. eigenvalues --    3.77176   3.77961   3.78746   3.79733   3.79938
 Alpha virt. eigenvalues --    3.80750   3.81536   3.82202   3.83950   3.84860
 Alpha virt. eigenvalues --    3.85563   3.86512   3.87297   3.88480   3.89580
 Alpha virt. eigenvalues --    3.89806   3.90862   3.91865   3.92038   3.92678
 Alpha virt. eigenvalues --    3.94911   3.95545   3.96648   3.96886   3.97726
 Alpha virt. eigenvalues --    3.98142   3.99498   3.99968   4.00279   4.00770
 Alpha virt. eigenvalues --    4.02878   4.03040   4.04333   4.05493   4.05772
 Alpha virt. eigenvalues --    4.05967   4.06131   4.06705   4.07066   4.08416
 Alpha virt. eigenvalues --    4.09563   4.10561   4.10697   4.11488   4.11999
 Alpha virt. eigenvalues --    4.12185   4.12293   4.12756   4.13256   4.13553
 Alpha virt. eigenvalues --    4.14076   4.14339   4.14568   4.15746   4.16024
 Alpha virt. eigenvalues --    4.16931   4.17543   4.18379   4.19255   4.19383
 Alpha virt. eigenvalues --    4.21364   4.22131   4.23457   4.24065   4.24487
 Alpha virt. eigenvalues --    4.25918   4.26431   4.28762   4.29453   4.30041
 Alpha virt. eigenvalues --    4.32457   4.33532   4.34421   4.35172   4.36135
 Alpha virt. eigenvalues --    4.39076   4.39087   4.40372   4.41656   4.42646
 Alpha virt. eigenvalues --    4.44113   4.45368   4.47544   4.48212   4.50275
 Alpha virt. eigenvalues --    4.51379   4.52415   4.53053   4.54015   4.54914
 Alpha virt. eigenvalues --    4.55953   4.57983   4.58340   4.61335   4.62319
 Alpha virt. eigenvalues --    4.62956   4.64324   4.67208   4.67910   4.69921
 Alpha virt. eigenvalues --    4.70552   4.72322   4.74380   4.74696   4.76953
 Alpha virt. eigenvalues --    4.77154   4.78839   4.81151   4.83893   4.84335
 Alpha virt. eigenvalues --    4.85511   4.86616   4.88288   4.90177   4.91031
 Alpha virt. eigenvalues --    4.92952   4.95421   4.97048   5.00733   5.01767
 Alpha virt. eigenvalues --    5.04108   5.04751   5.05844   5.07332   5.08494
 Alpha virt. eigenvalues --    5.09118   5.11230   5.12339   5.13915   5.14147
 Alpha virt. eigenvalues --    5.14620   5.17555   5.17590   5.18566   5.21733
 Alpha virt. eigenvalues --    5.23339   5.24631   5.25745   5.27375   5.28299
 Alpha virt. eigenvalues --    5.31319   5.32840   5.35137   5.36305   5.38540
 Alpha virt. eigenvalues --    5.39400   5.43473   5.43689   5.44061   5.44324
 Alpha virt. eigenvalues --    5.45938   5.47898   5.49214   5.49845   5.58972
 Alpha virt. eigenvalues --    5.60890   5.61355   5.63213   5.65394   5.65636
 Alpha virt. eigenvalues --    5.66534   5.69081   5.72500   5.73500   5.76117
 Alpha virt. eigenvalues --    5.86641   5.91821   5.98466   6.12512   6.13263
 Alpha virt. eigenvalues --    6.15831   6.20350   6.21760   6.28712   6.30847
 Alpha virt. eigenvalues --    6.37905   6.38322   6.49621   6.57013   6.59778
 Alpha virt. eigenvalues --    6.62892   6.63349   6.64744   6.70996   6.73350
 Alpha virt. eigenvalues --    6.81507   7.02514   7.10017   7.17982   7.27948
 Alpha virt. eigenvalues --   15.83926  21.97469  22.03268  22.05655  22.16149
 Alpha virt. eigenvalues --   22.21478  22.33116  22.35874  22.36169  22.37307
 Alpha virt. eigenvalues --   22.39250  22.41638  22.43181  22.46270  22.50021
 Alpha virt. eigenvalues --   22.51860  22.58884  22.62749  22.63865  22.65874
 Alpha virt. eigenvalues --   22.72204  22.83209  22.90561  23.02402  23.09084
 Alpha virt. eigenvalues --   23.11703  23.46191  32.98621  43.17969  43.32910
 Alpha virt. eigenvalues --   43.80950
          Condensed to atoms (all electrons):
 Mulliken charges:
               1
     1  C   -0.112280
     2  C   -0.168083
     3  C    0.104605
     4  C    0.112642
     5  C   -0.198489
     6  C   -0.132539
     7  C    0.006377
     8  C    0.219101
     9  C    0.051048
    10  C   -0.161125
    11  H    0.169894
    12  C   -0.119428
    13  C   -0.124841
    14  C   -0.206436
    15  H    0.161667
    16  H    0.170438
    17  H    0.168199
    18  H    0.157292
    19  H    0.161037
    20  H    0.156263
    21  H    0.166687
    22  N    0.346079
    23  C   -0.022232
    24  C   -0.014703
    25  C   -0.242395
    26  C   -0.215960
    27  C   -0.116940
    28  C   -0.134078
    29  H    0.149648
    30  H    0.143822
    31  C    0.002116
    32  C   -0.210515
    33  C   -0.178125
    34  C   -0.240136
    35  H    0.150835
    36  C   -0.207006
    37  H    0.146654
    38  C    0.328531
    39  H    0.158557
    40  H    0.133980
    41  O   -0.202696
    42  C   -0.258714
    43  H    0.163393
    44  H    0.152354
    45  H    0.152465
    46  H    0.147487
    47  B    0.257335
    48  O   -0.394681
    49  O   -0.418418
    50  H    0.345527
    51  H    0.350331
    52  H    0.145460
 Sum of Mulliken charges =   1.00000
 Mulliken charges with hydrogens summed into heavy atoms:
               1
     1  C    0.049386
     2  C    0.002355
     3  C    0.104605
     4  C    0.112642
     5  C   -0.030290
     6  C    0.024753
     7  C    0.006377
     8  C    0.219101
     9  C    0.051048
    10  C    0.008769
    12  C    0.041609
    13  C    0.031422
    14  C   -0.039749
    22  N    0.346079
    23  C   -0.022232
    24  C   -0.014703
    25  C   -0.098574
    26  C   -0.070500
    27  C    0.032707
    28  C    0.013409
    31  C    0.002116
    32  C   -0.059680
    33  C   -0.031472
    34  C   -0.081579
    36  C   -0.073025
    38  C    0.328531
    41  O   -0.202696
    42  C    0.209498
    47  B    0.257335
    48  O   -0.049155
    49  O   -0.068087
 Electronic spatial extent (au):  <R**2>=          13697.6553
 Charge=              1.0000 electrons
 Dipole moment (field-independent basis, Debye):
    X=             -3.5066    Y=              1.7891    Z=             -0.1046  Tot=              3.9380
 Quadrupole moment (field-independent basis, Debye-Ang):
   XX=           -113.2670   YY=           -140.8707   ZZ=           -162.4745
   XY=              8.2042   XZ=            -16.6420   YZ=              1.3787
 Traceless Quadrupole moment (field-independent basis, Debye-Ang):
   XX=             25.6038   YY=             -2.0000   ZZ=            -23.6038
   XY=              8.2042   XZ=            -16.6420   YZ=              1.3787
 Octapole moment (field-independent basis, Debye-Ang**2):
  XXX=           -175.7837  YYY=              7.0882  ZZZ=             26.0483  XYY=             -4.4461
  XXY=              9.9515  XXZ=             65.2295  XZZ=            -17.2601  YZZ=            -13.8556
  YYZ=              4.2508  XYZ=             -6.8182
 Hexadecapole moment (field-independent basis, Debye-Ang**3):
 XXXX=         -10728.5192 YYYY=          -2614.9808 ZZZZ=          -1379.3705 XXXY=            311.4467
 XXXZ=           -817.1467 YYYX=            -30.9075 YYYZ=            117.9518 ZZZX=             73.6141
 ZZZY=           -138.7954 XXYY=          -2824.2083 XXZZ=          -2216.3678 YYZZ=           -764.4592
 XXYZ=           -119.6475 YYXZ=              4.0615 ZZXY=            -21.0309
 N-N= 2.869263040840D+03 E-N=-8.758222529276D+03  KE= 1.301408259041D+03
 Leave Link  601 at Sat Mar 27 12:35:15 2021, MaxMem=  5242880000 cpu:         6.2
 (Enter /opt/nce/packages/global/g09/l9999.exe)
 1\1\GINC-CN018\SP\RPBEPBE TD-FC\Gen\C26H21B1N1O3(1+)\PNG4RJV\27-Mar-20
 21\0\\#p PBEPBE chkbasis geom=allcheck Guess=Read int=ultrafine scrf=(
 SMD,solvent=Acetonitrile) td=(NStates=30) EmpiricalDispersion=GD3BJ\\T
 itle\\1,1\C,0,-0.6370990465,3.6850786177,0.4418497583\C,0,-1.272436584
 7,2.4899312755,0.1798695315\C,0,-0.5067100338,1.3317552799,-0.08688467
 95\C,0,0.9275594564,1.4122211524,-0.102801117\C,0,1.5383445108,2.66585
 36024,0.1968699509\C,0,0.7753447228,3.777010679,0.4609928566\C,0,1.689
 254348,0.2541850792,-0.3783367929\C,0,1.0271103462,-0.9672458583,-0.63
 67901991\C,0,-0.4073668973,-1.0194792993,-0.5904126307\C,0,-1.07446423
 03,-2.2436336138,-0.8241605749\H,0,-2.1608127718,-2.2847745866,-0.7807
 464024\C,0,-0.3436190096,-3.3776932048,-1.1083197727\C,0,1.0693542314,
 -3.3408716662,-1.1809924898\C,0,1.7372346283,-2.1623326431,-0.95272299
 49\H,0,-1.2379252039,4.5723905621,0.6468406937\H,0,-2.3589099112,2.431
 2612307,0.1808473308\H,0,2.6258014958,2.7240966454,0.21400114\H,0,1.25
 39524008,4.7299815684,0.6885289758\H,0,-0.8688700877,-4.3170092956,-1.
 2877314991\H,0,1.6239439712,-4.2480979453,-1.4226451513\H,0,2.82393352
 63,-2.1221667632,-1.0142218902\N,0,-1.1203968263,0.12439495,-0.3192046
 445\C,0,3.1732817528,0.3213973075,-0.4055068139\C,0,3.9530827164,-0.27
 59918069,0.6131322962\C,0,3.7862139479,0.9601496066,-1.4935123516\C,0,
 5.3526645357,-0.2115629687,0.4861247815\C,0,5.1769071449,1.0087476533,
 -1.5898699864\C,0,5.963530224,0.4221637614,-0.5965298436\H,0,5.6427819
 303,1.503294162,-2.4439885312\H,0,3.1656626375,1.4058863951,-2.2729734
 502\C,0,-2.5679901262,0.0512122826,-0.2621668701\C,0,-3.189909932,-0.2
 110988224,0.9543485384\C,0,-3.3144726446,0.2450537279,-1.426802779\C,0
 ,-4.5820055906,-0.2821527248,1.0209017792\H,0,-2.5882473609,-0.3616000
 619,1.8520589532\C,0,-4.7000205618,0.1764619838,-1.3666365148\H,0,-2.8
 08279182,0.4494008016,-2.3714033594\C,0,-5.343854679,-0.0864572797,-0.
 1429838237\H,0,-5.0606119081,-0.4894159679,1.9764218388\H,0,-5.3043847
 096,0.325962748,-2.2624614717\O,0,-6.6990624202,-0.1317183157,-0.18417
 37098\C,0,-7.3932809054,-0.3953371131,1.0447373622\H,0,-8.459016255,-0
 .3829524663,0.7900479741\H,0,-7.122399727,-1.3828841268,1.4498934516\H
 ,0,-7.1842977269,0.3839236917,1.794299444\H,0,7.0522202031,0.458305707
 1,-0.6657918443\B,0,3.3421983516,-0.9640131651,1.8940648373\O,0,2.2210
 555173,-0.5194922815,2.5619972496\O,0,3.9924000355,-2.0657760005,2.394
 5819136\H,0,1.848325228,0.3059717673,2.2014638401\H,0,3.5709777047,-2.
 3958544439,3.2122366511\H,0,5.9733077648,-0.665292817,1.2615130401\\Ve
 rsion=ES64L-G09RevE.01\State=1-A\HF=-1307.627763\RMSD=4.746e-09\PG=C01
  [X(C26H21B1N1O3)]\\@


 TRUST EVERYONE, BUT CUT THE CARDS.
 Job cpu time:       1 days 11 hours 22 minutes 56.5 seconds.
 File lengths (MBytes):  RWF=   4611 Int=      0 D2E=      0 Chk=   1053 Scr=      1
 Normal termination of Gaussian 09 at Sat Mar 27 12:35:17 2021.
