 Entering Gaussian System, Link 0=g09
 Input=/home/png4rjv/fotokatalizis/benchmark/OPCs/BOH-Acr_o_CAM-B3LYP-D3_def2TZVP.gjf
 Output=/home/png4rjv/fotokatalizis/benchmark/OPCs/BOH-Acr_o_CAM-B3LYP-D3_def2TZVP.log
 Initial command:
 /opt/nce/packages/global/g09/l1.exe "/home/png4rjv/fotokatalizis/benchmark/OPCs/BOH-Acr_o_CAM-B3LYP-D3_def2TZVP/Gau-4097.inp" -scrdir="/home/png4rjv/fotokatalizis/benchmark/OPCs/BOH-Acr_o_CAM-B3LYP-D3_def2TZVP/"
 Default is to use a total of  12 processors:
                               12 via shared-memory
                                1 via Linda
 Entering Link 1 = /opt/nce/packages/global/g09/l1.exe PID=      4098.
  
 Copyright (c) 1988,1990,1992,1993,1995,1998,2003,2009,2015,
            Gaussian, Inc.  All Rights Reserved.
  
 This is part of the Gaussian(R) 09 program.  It is based on
 the Gaussian(R) 03 system (copyright 2003, Gaussian, Inc.),
 the Gaussian(R) 98 system (copyright 1998, Gaussian, Inc.),
 the Gaussian(R) 94 system (copyright 1995, Gaussian, Inc.),
 the Gaussian 92(TM) system (copyright 1992, Gaussian, Inc.),
 the Gaussian 90(TM) system (copyright 1990, Gaussian, Inc.),
 the Gaussian 88(TM) system (copyright 1988, Gaussian, Inc.),
 the Gaussian 86(TM) system (copyright 1986, Carnegie Mellon
 University), and the Gaussian 82(TM) system (copyright 1983,
 Carnegie Mellon University). Gaussian is a federally registered
 trademark of Gaussian, Inc.
  
 This software contains proprietary and confidential information,
 including trade secrets, belonging to Gaussian, Inc.
  
 This software is provided under written license and may be
 used, copied, transmitted, or stored only in accord with that
 written license.
  
 The following legend is applicable only to US Government
 contracts under FAR:
  
                    RESTRICTED RIGHTS LEGEND
  
 Use, reproduction and disclosure by the US Government is
 subject to restrictions as set forth in subparagraphs (a)
 and (c) of the Commercial Computer Software - Restricted
 Rights clause in FAR 52.227-19.
  
 Gaussian, Inc.
 340 Quinnipiac St., Bldg. 40, Wallingford CT 06492
  
  
 ---------------------------------------------------------------
 Warning -- This program may not be used in any manner that
 competes with the business of Gaussian, Inc. or will provide
 assistance to any competitor of Gaussian, Inc.  The licensee
 of this program is prohibited from giving any competitor of
 Gaussian, Inc. access to this program.  By using this program,
 the user acknowledges that Gaussian, Inc. is engaged in the
 business of creating and licensing software in the field of
 computational chemistry and represents and warrants to the
 licensee that it is not a competitor of Gaussian, Inc. and that
 it will not use this program in any manner prohibited above.
 ---------------------------------------------------------------
  

 Cite this work as:
 Gaussian 09, Revision E.01,
 M. J. Frisch, G. W. Trucks, H. B. Schlegel, G. E. Scuseria, 
 M. A. Robb, J. R. Cheeseman, G. Scalmani, V. Barone, B. Mennucci, 
 G. A. Petersson, H. Nakatsuji, M. Caricato, X. Li, H. P. Hratchian, 
 A. F. Izmaylov, J. Bloino, G. Zheng, J. L. Sonnenberg, M. Hada, 
 M. Ehara, K. Toyota, R. Fukuda, J. Hasegawa, M. Ishida, T. Nakajima, 
 Y. Honda, O. Kitao, H. Nakai, T. Vreven, J. A. Montgomery, Jr., 
 J. E. Peralta, F. Ogliaro, M. Bearpark, J. J. Heyd, E. Brothers, 
 K. N. Kudin, V. N. Staroverov, T. Keith, R. Kobayashi, J. Normand, 
 K. Raghavachari, A. Rendell, J. C. Burant, S. S. Iyengar, J. Tomasi, 
 M. Cossi, N. Rega, J. M. Millam, M. Klene, J. E. Knox, J. B. Cross, 
 V. Bakken, C. Adamo, J. Jaramillo, R. Gomperts, R. E. Stratmann, 
 O. Yazyev, A. J. Austin, R. Cammi, C. Pomelli, J. W. Ochterski, 
 R. L. Martin, K. Morokuma, V. G. Zakrzewski, G. A. Voth, 
 P. Salvador, J. J. Dannenberg, S. Dapprich, A. D. Daniels, 
 O. Farkas, J. B. Foresman, J. V. Ortiz, J. Cioslowski, 
 and D. J. Fox, Gaussian, Inc., Wallingford CT, 2013.
 
 ******************************************
 Gaussian 09:  ES64L-G09RevE.01 30-Nov-2015
                24-Feb-2021 
 ******************************************
 %chk=cp.chk
 Default route:  MaxDisk=500GB
 ----------------------------------------------------------------------
 #p cam-b3lyp/def2TZVP opt freq=noraman nosymm int=ultrafine scrf=(SMD,
 solvent=Acetonitrile) EmpiricalDispersion=GD3BJ
 ----------------------------------------------------------------------
 1/14=-1,18=20,19=15,26=4,38=1/1,3;
 2/9=110,12=2,15=1,17=6,18=5,40=1/2;
 3/5=44,7=101,11=2,16=1,25=1,30=1,70=32201,71=1,72=2,74=-40,75=-5,124=41/1,2,3;
 4//1;
 5/5=2,38=5,53=2/2;
 6/7=2,8=2,9=2,10=2,28=1/1;
 7/30=1/1,2,3,16;
 1/14=-1,18=20,19=15,26=4/3(2);
 2/9=110,15=1/2;
 99//99;
 2/9=110,15=1/2;
 3/5=44,7=101,11=2,16=1,25=1,30=1,70=32205,71=1,72=2,74=-40,75=-5,124=41/1,2,3;
 4/5=5,16=3,69=1/1;
 5/5=2,38=5,53=2/2;
 7/30=1/1,2,3,16;
 1/14=-1,18=20,19=15,26=4/3(-5);
 2/9=110,15=1/2;
 6/7=2,8=2,9=2,10=2,19=2,28=1/1;
 99/9=1/99;
 Leave Link    1 at Wed Feb 24 04:51:13 2021, MaxMem=           0 cpu:         1.0
 (Enter /opt/nce/packages/global/g09/l101.exe)
 -----
 Title
 -----
 Symbolic Z-matrix:
 Charge =  1 Multiplicity = 1
 C                    -0.6469    3.72165   0.38323 
 C                    -1.27504   2.51563   0.154 
 C                    -0.503     1.3544   -0.10022 
 C                     0.92966   1.44814  -0.13535 
 C                     1.53448   2.7162    0.13158 
 C                     0.7667    3.82729   0.38241 
 C                     1.70098   0.28815  -0.3948 
 C                     1.04339  -0.94526  -0.62123 
 C                    -0.38954  -1.00783  -0.55451 
 C                    -1.0479   -2.24559  -0.7564 
 H                    -2.13284  -2.2954   -0.69789 
 C                    -0.30957  -3.37821  -1.0293 
 C                     1.10345  -3.3305   -1.12502 
 C                     1.76224  -2.14143  -0.92954 
 H                    -1.25327   4.60885   0.57803 
 H                    -2.36054   2.4475    0.16987 
 H                     2.62181   2.7823    0.13272 
 H                     1.24008   4.78962   0.584 
 H                    -0.82838  -4.32677  -1.1839 
 H                     1.66386  -4.23673  -1.36013 
 H                     2.84672  -2.09237  -1.01077 
 N                    -1.10962   0.1366   -0.29846 
 C                     3.18437   0.35429  -0.41315 
 C                     3.93742  -0.31087   0.58451 
 C                     3.8242    1.04051  -1.45757 
 C                     5.33795  -0.2696    0.48442 
 C                     5.21789   1.06701  -1.52792 
 C                     5.97625   0.41115  -0.55492 
 H                     5.70965   1.59408  -2.34828 
 H                     3.22812   1.53382  -2.22875 
 C                    -2.55496   0.05535  -0.23479 
 C                    -3.17854  -0.2025    0.98376 
 C                    -3.3105    0.23534  -1.39981 
 C                    -4.57076  -0.28339   1.05296 
 H                    -2.57734  -0.3428    1.88446 
 C                    -4.69432   0.15667  -1.33753 
 H                    -2.81057   0.43592  -2.34949 
 C                    -5.34108  -0.10364  -0.11106 
 H                    -5.04342  -0.48612   2.01281 
 H                    -5.30996   0.29248  -2.22779 
 O                    -6.67877  -0.1611   -0.15255 
 C                    -7.4114   -0.41961   1.03379 
 H                    -8.47005  -0.41808   0.74812 
 H                    -7.15189  -1.4038    1.45942 
 H                    -7.23882   0.36393   1.79104 
 H                     7.06693   0.42788  -0.60856 
 B                     3.26961  -1.05255   1.80739 
 O                     2.17837  -0.56384   2.47447 
 O                     3.80783  -2.23037   2.20333 
 H                     1.9285    0.33326   2.22617 
 H                     3.38389  -2.59384   2.99364 
 H                     5.93466  -0.78462   1.24044 
 
 NAtoms=     52 NQM=       52 NQMF=       0 NMMI=      0 NMMIF=      0
                NMic=       0 NMicF=      0.
                    Isotopes and Nuclear Properties:
 (Nuclear quadrupole moments (NQMom) in fm**2, nuclear magnetic moments (NMagM)
  in nuclear magnetons)

  Atom         1           2           3           4           5           6           7           8           9          10
 IAtWgt=          12          12          12          12          12          12          12          12          12          12
 AtmWgt=  12.0000000  12.0000000  12.0000000  12.0000000  12.0000000  12.0000000  12.0000000  12.0000000  12.0000000  12.0000000
 NucSpn=           0           0           0           0           0           0           0           0           0           0
 AtZEff=   0.0000000   0.0000000   0.0000000   0.0000000   0.0000000   0.0000000   0.0000000   0.0000000   0.0000000   0.0000000
 NQMom=    0.0000000   0.0000000   0.0000000   0.0000000   0.0000000   0.0000000   0.0000000   0.0000000   0.0000000   0.0000000
 NMagM=    0.0000000   0.0000000   0.0000000   0.0000000   0.0000000   0.0000000   0.0000000   0.0000000   0.0000000   0.0000000
 AtZNuc=   6.0000000   6.0000000   6.0000000   6.0000000   6.0000000   6.0000000   6.0000000   6.0000000   6.0000000   6.0000000

  Atom        11          12          13          14          15          16          17          18          19          20
 IAtWgt=           1          12          12          12           1           1           1           1           1           1
 AtmWgt=   1.0078250  12.0000000  12.0000000  12.0000000   1.0078250   1.0078250   1.0078250   1.0078250   1.0078250   1.0078250
 NucSpn=           1           0           0           0           1           1           1           1           1           1
 AtZEff=   0.0000000   0.0000000   0.0000000   0.0000000   0.0000000   0.0000000   0.0000000   0.0000000   0.0000000   0.0000000
 NQMom=    0.0000000   0.0000000   0.0000000   0.0000000   0.0000000   0.0000000   0.0000000   0.0000000   0.0000000   0.0000000
 NMagM=    2.7928460   0.0000000   0.0000000   0.0000000   2.7928460   2.7928460   2.7928460   2.7928460   2.7928460   2.7928460
 AtZNuc=   1.0000000   6.0000000   6.0000000   6.0000000   1.0000000   1.0000000   1.0000000   1.0000000   1.0000000   1.0000000

  Atom        21          22          23          24          25          26          27          28          29          30
 IAtWgt=           1          14          12          12          12          12          12          12           1           1
 AtmWgt=   1.0078250  14.0030740  12.0000000  12.0000000  12.0000000  12.0000000  12.0000000  12.0000000   1.0078250   1.0078250
 NucSpn=           1           2           0           0           0           0           0           0           1           1
 AtZEff=   0.0000000   0.0000000   0.0000000   0.0000000   0.0000000   0.0000000   0.0000000   0.0000000   0.0000000   0.0000000
 NQMom=    0.0000000   2.0440000   0.0000000   0.0000000   0.0000000   0.0000000   0.0000000   0.0000000   0.0000000   0.0000000
 NMagM=    2.7928460   0.4037610   0.0000000   0.0000000   0.0000000   0.0000000   0.0000000   0.0000000   2.7928460   2.7928460
 AtZNuc=   1.0000000   7.0000000   6.0000000   6.0000000   6.0000000   6.0000000   6.0000000   6.0000000   1.0000000   1.0000000

  Atom        31          32          33          34          35          36          37          38          39          40
 IAtWgt=          12          12          12          12           1          12           1          12           1           1
 AtmWgt=  12.0000000  12.0000000  12.0000000  12.0000000   1.0078250  12.0000000   1.0078250  12.0000000   1.0078250   1.0078250
 NucSpn=           0           0           0           0           1           0           1           0           1           1
 AtZEff=   0.0000000   0.0000000   0.0000000   0.0000000   0.0000000   0.0000000   0.0000000   0.0000000   0.0000000   0.0000000
 NQMom=    0.0000000   0.0000000   0.0000000   0.0000000   0.0000000   0.0000000   0.0000000   0.0000000   0.0000000   0.0000000
 NMagM=    0.0000000   0.0000000   0.0000000   0.0000000   2.7928460   0.0000000   2.7928460   0.0000000   2.7928460   2.7928460
 AtZNuc=   6.0000000   6.0000000   6.0000000   6.0000000   1.0000000   6.0000000   1.0000000   6.0000000   1.0000000   1.0000000

  Atom        41          42          43          44          45          46          47          48          49          50
 IAtWgt=          16          12           1           1           1           1          11          16          16           1
 AtmWgt=  15.9949146  12.0000000   1.0078250   1.0078250   1.0078250   1.0078250  11.0093053  15.9949146  15.9949146   1.0078250
 NucSpn=           0           0           1           1           1           1           3           0           0           1
 AtZEff=   0.0000000   0.0000000   0.0000000   0.0000000   0.0000000   0.0000000   0.0000000   0.0000000   0.0000000   0.0000000
 NQMom=    0.0000000   0.0000000   0.0000000   0.0000000   0.0000000   0.0000000   4.0590000   0.0000000   0.0000000   0.0000000
 NMagM=    0.0000000   0.0000000   2.7928460   2.7928460   2.7928460   2.7928460   2.6886370   0.0000000   0.0000000   2.7928460
 AtZNuc=   8.0000000   6.0000000   1.0000000   1.0000000   1.0000000   1.0000000   5.0000000   8.0000000   8.0000000   1.0000000

  Atom        51          52
 IAtWgt=           1           1
 AtmWgt=   1.0078250   1.0078250
 NucSpn=           1           1
 AtZEff=   0.0000000   0.0000000
 NQMom=    0.0000000   0.0000000
 NMagM=    2.7928460   2.7928460
 AtZNuc=   1.0000000   1.0000000
 Leave Link  101 at Wed Feb 24 04:51:15 2021, MaxMem=  5242880000 cpu:        19.3
 (Enter /opt/nce/packages/global/g09/l103.exe)

 GradGradGradGradGradGradGradGradGradGradGradGradGradGradGradGradGradGrad
 Berny optimization.
 Initialization pass.
                           ----------------------------
                           !    Initial Parameters    !
                           ! (Angstroms and Degrees)  !
 --------------------------                            --------------------------
 ! Name  Definition              Value          Derivative Info.                !
 --------------------------------------------------------------------------------
 ! R1    R(1,2)                  1.379          estimate D2E/DX2                !
 ! R2    R(1,6)                  1.4175         estimate D2E/DX2                !
 ! R3    R(1,15)                 1.0921         estimate D2E/DX2                !
 ! R4    R(2,3)                  1.4174         estimate D2E/DX2                !
 ! R5    R(2,16)                 1.0877         estimate D2E/DX2                !
 ! R6    R(3,4)                  1.4361         estimate D2E/DX2                !
 ! R7    R(3,22)                 1.3749         estimate D2E/DX2                !
 ! R8    R(4,5)                  1.43           estimate D2E/DX2                !
 ! R9    R(4,7)                  1.417          estimate D2E/DX2                !
 ! R10   R(5,6)                  1.3737         estimate D2E/DX2                !
 ! R11   R(5,17)                 1.0893         estimate D2E/DX2                !
 ! R12   R(6,18)                 1.0912         estimate D2E/DX2                !
 ! R13   R(7,8)                  1.416          estimate D2E/DX2                !
 ! R14   R(7,23)                 1.485          estimate D2E/DX2                !
 ! R15   R(8,9)                  1.4358         estimate D2E/DX2                !
 ! R16   R(8,14)                 1.4292         estimate D2E/DX2                !
 ! R17   R(9,10)                 1.4164         estimate D2E/DX2                !
 ! R18   R(9,22)                 1.3762         estimate D2E/DX2                !
 ! R19   R(10,11)                1.0877         estimate D2E/DX2                !
 ! R20   R(10,12)                1.3793         estimate D2E/DX2                !
 ! R21   R(12,13)                1.4171         estimate D2E/DX2                !
 ! R22   R(12,19)                1.0922         estimate D2E/DX2                !
 ! R23   R(13,14)                1.3734         estimate D2E/DX2                !
 ! R24   R(13,20)                1.0911         estimate D2E/DX2                !
 ! R25   R(14,21)                1.0886         estimate D2E/DX2                !
 ! R26   R(22,31)                1.449          estimate D2E/DX2                !
 ! R27   R(23,24)                1.4159         estimate D2E/DX2                !
 ! R28   R(23,25)                1.404          estimate D2E/DX2                !
 ! R29   R(24,26)                1.4047         estimate D2E/DX2                !
 ! R30   R(24,47)                1.5784         estimate D2E/DX2                !
 ! R31   R(25,27)                1.3957         estimate D2E/DX2                !
 ! R32   R(25,30)                1.0924         estimate D2E/DX2                !
 ! R33   R(26,28)                1.3968         estimate D2E/DX2                !
 ! R34   R(26,52)                1.0922         estimate D2E/DX2                !
 ! R35   R(27,28)                1.3971         estimate D2E/DX2                !
 ! R36   R(27,29)                1.0921         estimate D2E/DX2                !
 ! R37   R(28,46)                1.0921         estimate D2E/DX2                !
 ! R38   R(31,32)                1.3929         estimate D2E/DX2                !
 ! R39   R(31,33)                1.4002         estimate D2E/DX2                !
 ! R40   R(32,34)                1.3963         estimate D2E/DX2                !
 ! R41   R(32,35)                1.092          estimate D2E/DX2                !
 ! R42   R(33,36)                1.3875         estimate D2E/DX2                !
 ! R43   R(33,37)                1.0918         estimate D2E/DX2                !
 ! R44   R(34,38)                1.4074         estimate D2E/DX2                !
 ! R45   R(34,39)                1.089          estimate D2E/DX2                !
 ! R46   R(36,38)                1.4108         estimate D2E/DX2                !
 ! R47   R(36,40)                1.0909         estimate D2E/DX2                !
 ! R48   R(38,41)                1.3396         estimate D2E/DX2                !
 ! R49   R(41,42)                1.4181         estimate D2E/DX2                !
 ! R50   R(42,43)                1.0965         estimate D2E/DX2                !
 ! R51   R(42,44)                1.1032         estimate D2E/DX2                !
 ! R52   R(42,45)                1.1032         estimate D2E/DX2                !
 ! R53   R(47,48)                1.3692         estimate D2E/DX2                !
 ! R54   R(47,49)                1.3541         estimate D2E/DX2                !
 ! R55   R(48,50)                0.9638         estimate D2E/DX2                !
 ! R56   R(49,51)                0.9677         estimate D2E/DX2                !
 ! A1    A(2,1,6)              121.2867         estimate D2E/DX2                !
 ! A2    A(2,1,15)             119.1573         estimate D2E/DX2                !
 ! A3    A(6,1,15)             119.5535         estimate D2E/DX2                !
 ! A4    A(1,2,3)              119.881          estimate D2E/DX2                !
 ! A5    A(1,2,16)             120.4587         estimate D2E/DX2                !
 ! A6    A(3,2,16)             119.6601         estimate D2E/DX2                !
 ! A7    A(2,3,4)              119.6216         estimate D2E/DX2                !
 ! A8    A(2,3,22)             120.7428         estimate D2E/DX2                !
 ! A9    A(4,3,22)             119.6315         estimate D2E/DX2                !
 ! A10   A(3,4,5)              118.3734         estimate D2E/DX2                !
 ! A11   A(3,4,7)              119.6084         estimate D2E/DX2                !
 ! A12   A(5,4,7)              121.9961         estimate D2E/DX2                !
 ! A13   A(4,5,6)              120.9927         estimate D2E/DX2                !
 ! A14   A(4,5,17)             118.4352         estimate D2E/DX2                !
 ! A15   A(6,5,17)             120.5721         estimate D2E/DX2                !
 ! A16   A(1,6,5)              119.8151         estimate D2E/DX2                !
 ! A17   A(1,6,18)             119.8817         estimate D2E/DX2                !
 ! A18   A(5,6,18)             120.3029         estimate D2E/DX2                !
 ! A19   A(4,7,8)              119.3121         estimate D2E/DX2                !
 ! A20   A(4,7,23)             120.6347         estimate D2E/DX2                !
 ! A21   A(8,7,23)             120.0485         estimate D2E/DX2                !
 ! A22   A(7,8,9)              119.6036         estimate D2E/DX2                !
 ! A23   A(7,8,14)             122.0016         estimate D2E/DX2                !
 ! A24   A(9,8,14)             118.3922         estimate D2E/DX2                !
 ! A25   A(8,9,10)             119.6914         estimate D2E/DX2                !
 ! A26   A(8,9,22)             119.6432         estimate D2E/DX2                !
 ! A27   A(10,9,22)            120.6652         estimate D2E/DX2                !
 ! A28   A(9,10,11)            119.7363         estimate D2E/DX2                !
 ! A29   A(9,10,12)            119.7999         estimate D2E/DX2                !
 ! A30   A(11,10,12)           120.4636         estimate D2E/DX2                !
 ! A31   A(10,12,13)           121.2982         estimate D2E/DX2                !
 ! A32   A(10,12,19)           119.1383         estimate D2E/DX2                !
 ! A33   A(13,12,19)           119.5607         estimate D2E/DX2                !
 ! A34   A(12,13,14)           119.8584         estimate D2E/DX2                !
 ! A35   A(12,13,20)           119.9162         estimate D2E/DX2                !
 ! A36   A(14,13,20)           120.2241         estimate D2E/DX2                !
 ! A37   A(8,14,13)            120.9352         estimate D2E/DX2                !
 ! A38   A(8,14,21)            118.6489         estimate D2E/DX2                !
 ! A39   A(13,14,21)           120.4155         estimate D2E/DX2                !
 ! A40   A(3,22,9)             122.1785         estimate D2E/DX2                !
 ! A41   A(3,22,31)            118.9089         estimate D2E/DX2                !
 ! A42   A(9,22,31)            118.9126         estimate D2E/DX2                !
 ! A43   A(7,23,24)            120.1088         estimate D2E/DX2                !
 ! A44   A(7,23,25)            119.0916         estimate D2E/DX2                !
 ! A45   A(24,23,25)           120.7568         estimate D2E/DX2                !
 ! A46   A(23,24,26)           117.7911         estimate D2E/DX2                !
 ! A47   A(23,24,47)           122.7926         estimate D2E/DX2                !
 ! A48   A(26,24,47)           119.3955         estimate D2E/DX2                !
 ! A49   A(23,25,27)           120.1223         estimate D2E/DX2                !
 ! A50   A(23,25,30)           119.8146         estimate D2E/DX2                !
 ! A51   A(27,25,30)           120.047          estimate D2E/DX2                !
 ! A52   A(24,26,28)           121.5303         estimate D2E/DX2                !
 ! A53   A(24,26,52)           118.7862         estimate D2E/DX2                !
 ! A54   A(28,26,52)           119.6835         estimate D2E/DX2                !
 ! A55   A(25,27,28)           119.8672         estimate D2E/DX2                !
 ! A56   A(25,27,29)           119.7799         estimate D2E/DX2                !
 ! A57   A(28,27,29)           120.3511         estimate D2E/DX2                !
 ! A58   A(26,28,27)           119.9299         estimate D2E/DX2                !
 ! A59   A(26,28,46)           120.0246         estimate D2E/DX2                !
 ! A60   A(27,28,46)           120.0452         estimate D2E/DX2                !
 ! A61   A(22,31,32)           119.6936         estimate D2E/DX2                !
 ! A62   A(22,31,33)           119.6344         estimate D2E/DX2                !
 ! A63   A(32,31,33)           120.672          estimate D2E/DX2                !
 ! A64   A(31,32,34)           120.0305         estimate D2E/DX2                !
 ! A65   A(31,32,35)           119.9269         estimate D2E/DX2                !
 ! A66   A(34,32,35)           120.0425         estimate D2E/DX2                !
 ! A67   A(31,33,36)           119.574          estimate D2E/DX2                !
 ! A68   A(31,33,37)           120.0176         estimate D2E/DX2                !
 ! A69   A(36,33,37)           120.4084         estimate D2E/DX2                !
 ! A70   A(32,34,38)           119.8257         estimate D2E/DX2                !
 ! A71   A(32,34,39)           119.1607         estimate D2E/DX2                !
 ! A72   A(38,34,39)           121.0135         estimate D2E/DX2                !
 ! A73   A(33,36,38)           120.4462         estimate D2E/DX2                !
 ! A74   A(33,36,40)           121.2771         estimate D2E/DX2                !
 ! A75   A(38,36,40)           118.2767         estimate D2E/DX2                !
 ! A76   A(34,38,36)           119.4515         estimate D2E/DX2                !
 ! A77   A(34,38,41)           124.522          estimate D2E/DX2                !
 ! A78   A(36,38,41)           116.0265         estimate D2E/DX2                !
 ! A79   A(38,41,42)           119.8557         estimate D2E/DX2                !
 ! A80   A(41,42,43)           106.2951         estimate D2E/DX2                !
 ! A81   A(41,42,44)           111.3366         estimate D2E/DX2                !
 ! A82   A(41,42,45)           111.3417         estimate D2E/DX2                !
 ! A83   A(43,42,44)           109.2            estimate D2E/DX2                !
 ! A84   A(43,42,45)           109.1991         estimate D2E/DX2                !
 ! A85   A(44,42,45)           109.3887         estimate D2E/DX2                !
 ! A86   A(24,47,48)           123.1579         estimate D2E/DX2                !
 ! A87   A(24,47,49)           117.8437         estimate D2E/DX2                !
 ! A88   A(48,47,49)           118.9979         estimate D2E/DX2                !
 ! A89   A(47,48,50)           114.4153         estimate D2E/DX2                !
 ! A90   A(47,49,51)           113.0398         estimate D2E/DX2                !
 ! D1    D(6,1,2,3)             -0.5642         estimate D2E/DX2                !
 ! D2    D(6,1,2,16)           179.2407         estimate D2E/DX2                !
 ! D3    D(15,1,2,3)          -179.9901         estimate D2E/DX2                !
 ! D4    D(15,1,2,16)           -0.1852         estimate D2E/DX2                !
 ! D5    D(2,1,6,5)              0.8933         estimate D2E/DX2                !
 ! D6    D(2,1,6,18)          -178.9156         estimate D2E/DX2                !
 ! D7    D(15,1,6,5)          -179.683          estimate D2E/DX2                !
 ! D8    D(15,1,6,18)            0.508          estimate D2E/DX2                !
 ! D9    D(1,2,3,4)             -0.8661         estimate D2E/DX2                !
 ! D10   D(1,2,3,22)           178.3895         estimate D2E/DX2                !
 ! D11   D(16,2,3,4)           179.3275         estimate D2E/DX2                !
 ! D12   D(16,2,3,22)           -1.4169         estimate D2E/DX2                !
 ! D13   D(2,3,4,5)              1.9306         estimate D2E/DX2                !
 ! D14   D(2,3,4,7)           -179.7489         estimate D2E/DX2                !
 ! D15   D(22,3,4,5)          -177.3333         estimate D2E/DX2                !
 ! D16   D(22,3,4,7)             0.9871         estimate D2E/DX2                !
 ! D17   D(2,3,22,9)           179.639          estimate D2E/DX2                !
 ! D18   D(2,3,22,31)           -0.4025         estimate D2E/DX2                !
 ! D19   D(4,3,22,9)            -1.1055         estimate D2E/DX2                !
 ! D20   D(4,3,22,31)          178.853          estimate D2E/DX2                !
 ! D21   D(3,4,5,6)             -1.6278         estimate D2E/DX2                !
 ! D22   D(3,4,5,17)           178.313          estimate D2E/DX2                !
 ! D23   D(7,4,5,6)           -179.906          estimate D2E/DX2                !
 ! D24   D(7,4,5,17)             0.0349         estimate D2E/DX2                !
 ! D25   D(3,4,7,8)              0.2724         estimate D2E/DX2                !
 ! D26   D(3,4,7,23)          -178.9377         estimate D2E/DX2                !
 ! D27   D(5,4,7,8)            178.5298         estimate D2E/DX2                !
 ! D28   D(5,4,7,23)            -0.6802         estimate D2E/DX2                !
 ! D29   D(4,5,6,1)              0.2389         estimate D2E/DX2                !
 ! D30   D(4,5,6,18)          -179.9529         estimate D2E/DX2                !
 ! D31   D(17,5,6,1)          -179.7007         estimate D2E/DX2                !
 ! D32   D(17,5,6,18)            0.1075         estimate D2E/DX2                !
 ! D33   D(4,7,8,9)             -1.4104         estimate D2E/DX2                !
 ! D34   D(4,7,8,14)           177.9931         estimate D2E/DX2                !
 ! D35   D(23,7,8,9)           177.8044         estimate D2E/DX2                !
 ! D36   D(23,7,8,14)           -2.7921         estimate D2E/DX2                !
 ! D37   D(4,7,23,24)          112.8831         estimate D2E/DX2                !
 ! D38   D(4,7,23,25)          -69.4776         estimate D2E/DX2                !
 ! D39   D(8,7,23,24)          -66.3212         estimate D2E/DX2                !
 ! D40   D(8,7,23,25)          111.3181         estimate D2E/DX2                !
 ! D41   D(7,8,9,10)          -178.8443         estimate D2E/DX2                !
 ! D42   D(7,8,9,22)             1.3272         estimate D2E/DX2                !
 ! D43   D(14,8,9,10)            1.7307         estimate D2E/DX2                !
 ! D44   D(14,8,9,22)         -178.0978         estimate D2E/DX2                !
 ! D45   D(7,8,14,13)          178.9959         estimate D2E/DX2                !
 ! D46   D(7,8,14,21)           -1.2296         estimate D2E/DX2                !
 ! D47   D(9,8,14,13)           -1.5936         estimate D2E/DX2                !
 ! D48   D(9,8,14,21)          178.1809         estimate D2E/DX2                !
 ! D49   D(8,9,10,11)          179.4963         estimate D2E/DX2                !
 ! D50   D(8,9,10,12)           -0.6792         estimate D2E/DX2                !
 ! D51   D(22,9,10,11)          -0.6769         estimate D2E/DX2                !
 ! D52   D(22,9,10,12)         179.1475         estimate D2E/DX2                !
 ! D53   D(8,9,22,3)            -0.0503         estimate D2E/DX2                !
 ! D54   D(8,9,22,31)          179.9913         estimate D2E/DX2                !
 ! D55   D(10,9,22,3)         -179.8771         estimate D2E/DX2                !
 ! D56   D(10,9,22,31)           0.1644         estimate D2E/DX2                !
 ! D57   D(9,10,12,13)          -0.568          estimate D2E/DX2                !
 ! D58   D(9,10,12,19)        -179.952          estimate D2E/DX2                !
 ! D59   D(11,10,12,13)        179.2552         estimate D2E/DX2                !
 ! D60   D(11,10,12,19)         -0.1289         estimate D2E/DX2                !
 ! D61   D(10,12,13,14)          0.7274         estimate D2E/DX2                !
 ! D62   D(10,12,13,20)       -178.8722         estimate D2E/DX2                !
 ! D63   D(19,12,13,14)       -179.8911         estimate D2E/DX2                !
 ! D64   D(19,12,13,20)          0.5093         estimate D2E/DX2                !
 ! D65   D(12,13,14,8)           0.3867         estimate D2E/DX2                !
 ! D66   D(12,13,14,21)       -179.3839         estimate D2E/DX2                !
 ! D67   D(20,13,14,8)         179.9851         estimate D2E/DX2                !
 ! D68   D(20,13,14,21)          0.2145         estimate D2E/DX2                !
 ! D69   D(3,22,31,32)         -89.6901         estimate D2E/DX2                !
 ! D70   D(3,22,31,33)          90.3884         estimate D2E/DX2                !
 ! D71   D(9,22,31,32)          90.2698         estimate D2E/DX2                !
 ! D72   D(9,22,31,33)         -89.6517         estimate D2E/DX2                !
 ! D73   D(7,23,24,26)         177.0223         estimate D2E/DX2                !
 ! D74   D(7,23,24,47)          -4.6475         estimate D2E/DX2                !
 ! D75   D(25,23,24,26)         -0.5771         estimate D2E/DX2                !
 ! D76   D(25,23,24,47)        177.753          estimate D2E/DX2                !
 ! D77   D(7,23,25,27)        -177.2217         estimate D2E/DX2                !
 ! D78   D(7,23,25,30)           1.3202         estimate D2E/DX2                !
 ! D79   D(24,23,25,27)          0.4019         estimate D2E/DX2                !
 ! D80   D(24,23,25,30)        178.9437         estimate D2E/DX2                !
 ! D81   D(23,24,26,28)          0.4971         estimate D2E/DX2                !
 ! D82   D(23,24,26,52)       -179.4732         estimate D2E/DX2                !
 ! D83   D(47,24,26,28)       -177.8917         estimate D2E/DX2                !
 ! D84   D(47,24,26,52)          2.138          estimate D2E/DX2                !
 ! D85   D(23,24,47,48)        -39.3126         estimate D2E/DX2                !
 ! D86   D(23,24,47,49)        140.4376         estimate D2E/DX2                !
 ! D87   D(26,24,47,48)        138.9919         estimate D2E/DX2                !
 ! D88   D(26,24,47,49)        -41.2579         estimate D2E/DX2                !
 ! D89   D(23,25,27,28)         -0.1261         estimate D2E/DX2                !
 ! D90   D(23,25,27,29)        179.3915         estimate D2E/DX2                !
 ! D91   D(30,25,27,28)       -178.6645         estimate D2E/DX2                !
 ! D92   D(30,25,27,29)          0.8531         estimate D2E/DX2                !
 ! D93   D(24,26,28,27)         -0.2372         estimate D2E/DX2                !
 ! D94   D(24,26,28,46)        179.9606         estimate D2E/DX2                !
 ! D95   D(52,26,28,27)        179.7329         estimate D2E/DX2                !
 ! D96   D(52,26,28,46)         -0.0694         estimate D2E/DX2                !
 ! D97   D(25,27,28,26)          0.0425         estimate D2E/DX2                !
 ! D98   D(25,27,28,46)        179.8448         estimate D2E/DX2                !
 ! D99   D(29,27,28,26)       -179.4722         estimate D2E/DX2                !
 ! D100  D(29,27,28,46)          0.33           estimate D2E/DX2                !
 ! D101  D(22,31,32,34)       -179.9461         estimate D2E/DX2                !
 ! D102  D(22,31,32,35)         -0.0389         estimate D2E/DX2                !
 ! D103  D(33,31,32,34)         -0.0255         estimate D2E/DX2                !
 ! D104  D(33,31,32,35)        179.8817         estimate D2E/DX2                !
 ! D105  D(22,31,33,36)        179.9703         estimate D2E/DX2                !
 ! D106  D(22,31,33,37)         -0.016          estimate D2E/DX2                !
 ! D107  D(32,31,33,36)          0.0496         estimate D2E/DX2                !
 ! D108  D(32,31,33,37)       -179.9367         estimate D2E/DX2                !
 ! D109  D(31,32,34,38)         -0.0059         estimate D2E/DX2                !
 ! D110  D(31,32,34,39)        179.9693         estimate D2E/DX2                !
 ! D111  D(35,32,34,38)       -179.913          estimate D2E/DX2                !
 ! D112  D(35,32,34,39)          0.0623         estimate D2E/DX2                !
 ! D113  D(31,33,36,38)         -0.0423         estimate D2E/DX2                !
 ! D114  D(31,33,36,40)        179.9918         estimate D2E/DX2                !
 ! D115  D(37,33,36,38)        179.944          estimate D2E/DX2                !
 ! D116  D(37,33,36,40)         -0.0219         estimate D2E/DX2                !
 ! D117  D(32,34,38,36)          0.013          estimate D2E/DX2                !
 ! D118  D(32,34,38,41)       -179.9951         estimate D2E/DX2                !
 ! D119  D(39,34,38,36)       -179.9618         estimate D2E/DX2                !
 ! D120  D(39,34,38,41)          0.0301         estimate D2E/DX2                !
 ! D121  D(33,36,38,34)          0.0113         estimate D2E/DX2                !
 ! D122  D(33,36,38,41)       -179.9813         estimate D2E/DX2                !
 ! D123  D(40,36,38,34)        179.9782         estimate D2E/DX2                !
 ! D124  D(40,36,38,41)         -0.0143         estimate D2E/DX2                !
 ! D125  D(34,38,41,42)         -0.0608         estimate D2E/DX2                !
 ! D126  D(36,38,41,42)        179.9314         estimate D2E/DX2                !
 ! D127  D(38,41,42,43)       -179.9751         estimate D2E/DX2                !
 ! D128  D(38,41,42,44)        -61.157          estimate D2E/DX2                !
 ! D129  D(38,41,42,45)         61.205          estimate D2E/DX2                !
 ! D130  D(24,47,48,50)         -8.7867         estimate D2E/DX2                !
 ! D131  D(49,47,48,50)        171.4658         estimate D2E/DX2                !
 ! D132  D(24,47,49,51)        176.0594         estimate D2E/DX2                !
 ! D133  D(48,47,49,51)         -4.1797         estimate D2E/DX2                !
 --------------------------------------------------------------------------------
 Trust Radius=3.00D-01 FncErr=1.00D-07 GrdErr=1.00D-06
 Number of steps in this run=    289 maximum allowed number of steps=    312.
 GradGradGradGradGradGradGradGradGradGradGradGradGradGradGradGradGradGrad

 Leave Link  103 at Wed Feb 24 04:51:17 2021, MaxMem=  5242880000 cpu:         3.5
 (Enter /opt/nce/packages/global/g09/l202.exe)
 Symmetry turned off by external request.
 Stoichiometry    C26H21BNO3(1+)
 Framework group  C1[X(C26H21BNO3)]
 Deg. of freedom   150
 Full point group                 C1      NOp   1
                          Input orientation:                          
 ---------------------------------------------------------------------
 Center     Atomic      Atomic             Coordinates (Angstroms)
 Number     Number       Type             X           Y           Z
 ---------------------------------------------------------------------
      1          6           0       -0.646901    3.721652    0.383228
      2          6           0       -1.275038    2.515629    0.154004
      3          6           0       -0.502997    1.354404   -0.100218
      4          6           0        0.929656    1.448135   -0.135346
      5          6           0        1.534475    2.716196    0.131580
      6          6           0        0.766697    3.827290    0.382413
      7          6           0        1.700978    0.288147   -0.394804
      8          6           0        1.043387   -0.945260   -0.621226
      9          6           0       -0.389535   -1.007834   -0.554509
     10          6           0       -1.047902   -2.245585   -0.756400
     11          1           0       -2.132844   -2.295404   -0.697888
     12          6           0       -0.309572   -3.378206   -1.029301
     13          6           0        1.103447   -3.330502   -1.125021
     14          6           0        1.762243   -2.141426   -0.929535
     15          1           0       -1.253271    4.608851    0.578029
     16          1           0       -2.360536    2.447501    0.169872
     17          1           0        2.621806    2.782304    0.132719
     18          1           0        1.240084    4.789621    0.584003
     19          1           0       -0.828377   -4.326766   -1.183900
     20          1           0        1.663857   -4.236727   -1.360127
     21          1           0        2.846716   -2.092365   -1.010771
     22          7           0       -1.109617    0.136597   -0.298459
     23          6           0        3.184373    0.354287   -0.413151
     24          6           0        3.937422   -0.310873    0.584512
     25          6           0        3.824204    1.040508   -1.457573
     26          6           0        5.337947   -0.269600    0.484419
     27          6           0        5.217889    1.067011   -1.527920
     28          6           0        5.976246    0.411149   -0.554924
     29          1           0        5.709645    1.594079   -2.348282
     30          1           0        3.228115    1.533816   -2.228750
     31          6           0       -2.554964    0.055352   -0.234791
     32          6           0       -3.178542   -0.202502    0.983755
     33          6           0       -3.310504    0.235337   -1.399814
     34          6           0       -4.570761   -0.283392    1.052960
     35          1           0       -2.577336   -0.342801    1.884457
     36          6           0       -4.694321    0.156667   -1.337529
     37          1           0       -2.810567    0.435920   -2.349492
     38          6           0       -5.341076   -0.103641   -0.111062
     39          1           0       -5.043422   -0.486117    2.012807
     40          1           0       -5.309962    0.292484   -2.227793
     41          8           0       -6.678766   -0.161103   -0.152552
     42          6           0       -7.411398   -0.419612    1.033789
     43          1           0       -8.470052   -0.418075    0.748115
     44          1           0       -7.151885   -1.403804    1.459419
     45          1           0       -7.238820    0.363933    1.791042
     46          1           0        7.066928    0.427878   -0.608560
     47          5           0        3.269609   -1.052546    1.807387
     48          8           0        2.178367   -0.563843    2.474467
     49          8           0        3.807825   -2.230373    2.203326
     50          1           0        1.928497    0.333258    2.226167
     51          1           0        3.383889   -2.593842    2.993638
     52          1           0        5.934663   -0.784620    1.240442
 ---------------------------------------------------------------------
 Rotational constants (GHZ):      0.2978832      0.0890757      0.0788022
 Leave Link  202 at Wed Feb 24 04:51:17 2021, MaxMem=  5242880000 cpu:         0.1
 (Enter /opt/nce/packages/global/g09/l301.exe)
 Standard basis: def2TZVP (5D, 7F)
 Ernie: Thresh=  0.10000D-02 Tol=  0.10000D-05 Strict=F.
  1087 basis functions,  1749 primitive gaussians,  1242 cartesian basis functions
   106 alpha electrons      106 beta electrons
       nuclear repulsion energy      2874.9988380751 Hartrees.
 IExCor=20419 DFT=T Ex+Corr=CAM-B3LYP ExCW=0 ScaHFX=  1.000000
 ScaDFX=  1.000000  1.000000  1.000000  0.810000 ScalE2=  1.000000  1.000000
 IRadAn=      5 IRanWt=     -1 IRanGd=            0 ICorTp=0 IEmpDi=141
  HFx wShort=  0.000000 wLong=  0.330000 cFull=  0.190000 cShort=  0.000000 cLong=  0.460000
  DFx wShort=  0.000000 wLong=  0.330000 cFull=  0.190000 cShort=  0.000000 cLong=  0.460000
 NAtoms=   52 NActive=   52 NUniq=   52 SFac= 1.00D+00 NAtFMM=   60 NAOKFM=F Big=F
 Integral buffers will be    131072 words long.
 Raffenetti 2 integral format.
 Two-electron integral symmetry is turned off.
 R6Disp:  Grimme-D3(BJ) Dispersion energy=       -0.0681365433 Hartrees.
 Nuclear repulsion after empirical dispersion term =     2874.9307015318 Hartrees.
 ------------------------------------------------------------------------------
 Polarizable Continuum Model (PCM)
 =================================
 Model                : PCM (using non-symmetric T matrix).
 Atomic radii         : SMD-Coulomb.
 Polarization charges : Total charges.
 Charge compensation  : None.
 Solution method      : On-the-fly selection.
 Cavity type          : VdW (van der Waals Surface) (Alpha=1.000).
 Cavity algorithm     : GePol (No added spheres)
                        Default sphere list used, NSphG=   52.
                        Lebedev-Laikov grids with approx.  5.0 points / Ang**2.
                        Smoothing algorithm: York/Karplus (Gamma=1.0000).
                        Polarization charges: spherical gaussians, with
                                              point-specific exponents (IZeta= 3).
                        Self-potential: point-specific (ISelfS= 7).
                        Self-field    : sphere-specific E.n sum rule (ISelfD= 2).
 1st derivatives      : Analytical E(r).r(x)/FMM algorithm (CHGder, D1EAlg=3).
                        Cavity 1st derivative terms included.
 Solvent              : Acetonitrile, Eps=  35.688000 Eps(inf)=   1.806874
 ------------------------------------------------------------------------------
 GePol: Number of generator spheres                  =      52
 GePol: Total number of spheres                      =      52
 GePol: Number of exposed spheres                    =      50 ( 96.15%)
 GePol: Number of points                             =    3793
 GePol: Average weight of points                     =       0.12
 GePol: Minimum weight of points                     =   0.96D-11
 GePol: Maximum weight of points                     =    0.21559
 GePol: Number of points with low weight             =     233
 GePol: Fraction of low-weight points (<1% of avg)   =       6.14%
 GePol: Cavity surface area                          =    438.989 Ang**2
 GePol: Cavity volume                                =    445.444 Ang**3
 ------------------------------------------------------------------------------
 Atomic radii for non-electrostatic terms: SMD-CDS.
 ------------------------------------------------------------------------------
 PCM non-electrostatic energy =        -0.0084817840 Hartrees.
 Nuclear repulsion after PCM non-electrostatic terms =     2874.9222197478 Hartrees.
 Leave Link  301 at Wed Feb 24 04:51:21 2021, MaxMem=  5242880000 cpu:        18.5
 (Enter /opt/nce/packages/global/g09/l302.exe)
 NPDir=0 NMtPBC=     1 NCelOv=     1 NCel=       1 NClECP=     1 NCelD=      1
         NCelK=      1 NCelE2=     1 NClLst=     1 CellRange=     0.0.
 One-electron integrals computed using PRISM.
   1 Symmetry operations used in ECPInt.
 ECPInt:  NShTT=   90525 NPrTT=  279376 LenC2=   73614 LenP2D=  155946.
 LDataN:  DoStor=T MaxTD1= 6 Len=  172
 NBasis=  1087 RedAO= T EigKep=  4.68D-06  NBF=  1087
 NBsUse=  1087 1.00D-06 EigRej= -1.00D+00 NBFU=  1087
 Precomputing XC quadrature grid using
 IXCGrd= 4 IRadAn=           5 IRanWt=          -1 IRanGd=           0 AccXCQ= 0.00D+00.
 Generated NRdTot=       0 NPtTot=           0 NUsed=           0 NTot=          32
 NSgBfM=  1191  1191  1191  1191  1191 MxSgAt=    52 MxSgA2=    52.
 Leave Link  302 at Wed Feb 24 04:51:23 2021, MaxMem=  5242880000 cpu:        33.1
 (Enter /opt/nce/packages/global/g09/l303.exe)
 DipDrv:  MaxL=1.
 Leave Link  303 at Wed Feb 24 04:51:25 2021, MaxMem=  5242880000 cpu:         5.9
 (Enter /opt/nce/packages/global/g09/l401.exe)
 ExpMin= 6.06D-02 ExpMax= 2.70D+04 ExpMxC= 9.22D+02 IAcc=3 IRadAn=         5 AccDes= 0.00D+00
 Harris functional with IExCor=20419 and IRadAn=       5 diagonalized for initial guess.
 HarFok:  IExCor=20419 AccDes= 0.00D+00 IRadAn=         5 IDoV= 1 UseB2=F ITyADJ=14
 ICtDFT=  3500011 ScaDFX=  1.000000  1.000000  1.000000  1.000000
 FoFCou: FMM=F IPFlag=           0 FMFlag=      100000 FMFlg1=           0
         NFxFlg=           0 DoJE=T BraDBF=F KetDBF=T FulRan=T
         wScrn=  0.000000 ICntrl=     500 IOpCl=  0 I1Cent=   200000004 NGrid=           0
         NMat0=    1 NMatS0=      1 NMatT0=    0 NMatD0=    1 NMtDS0=    0 NMtDT0=    0
 Symmetry not used in FoFCou.
 Harris En= -1257.67539675225    
 JPrj=0 DoOrth=F DoCkMO=F.
 Leave Link  401 at Wed Feb 24 04:51:42 2021, MaxMem=  5242880000 cpu:       168.1
 (Enter /opt/nce/packages/global/g09/l502.exe)
 Closed shell SCF:
 Using DIIS extrapolation, IDIIS=  1040.
 Two-electron integral symmetry not used.
 IVT=     4668702 IEndB=     4668702 NGot=  5242880000 MDV=  5239771745
 LenX=  5239771745 LenY=  5238227939
 Requested convergence on RMS density matrix=1.00D-08 within 128 cycles.
 Requested convergence on MAX density matrix=1.00D-06.
 Requested convergence on             energy=1.00D-06.
 No special actions if energy rises.
 Fock matrices will be formed incrementally for  20 cycles.

 Cycle   1  Pass 1  IDiag  1:
 FoFJK:  IHMeth= 1 ICntrl=       0 DoSepK=T KAlg= 0 I1Cent=   0 FoldK=F
 IRaf=         1 NMat=   1 IRICut=       1 DoRegI=T DoRafI=F ISym2E= 0.
 FoFCou: FMM=F IPFlag=           0 FMFlag=      100000 FMFlg1=           0
         NFxFlg=           0 DoJE=T BraDBF=F KetDBF=F FulRan=T
         wScrn=  0.000000 ICntrl=     500 IOpCl=  0 I1Cent=           0 NGrid=           0
         NMat0=    1 NMatS0=      1 NMatT0=    0 NMatD0=    1 NMtDS0=    0 NMtDT0=    0
 Symmetry not used in FoFCou.
 Inv3:  Mode=1 IEnd=    43160547.
 Iteration    1 A*A^-1 deviation from unit magnitude is 7.99D-15 for   3783.
 Iteration    1 A*A^-1 deviation from orthogonality  is 4.31D-15 for   1249    678.
 Iteration    1 A^-1*A deviation from unit magnitude is 7.77D-15 for   3783.
 Iteration    1 A^-1*A deviation from orthogonality  is 1.54D-12 for   1858   1787.
 E= -1308.15977641840    
 DIIS: error= 2.95D-02 at cycle   1 NSaved=   1.
 NSaved= 1 IEnMin= 1 EnMin= -1308.15977641840     IErMin= 1 ErrMin= 2.95D-02
 ErrMax= 2.95D-02  0.00D+00 EMaxC= 1.00D-01 BMatC= 2.30D+00 BMatP= 2.30D+00
 IDIUse=3 WtCom= 7.05D-01 WtEn= 2.95D-01
 Coeff-Com:  0.100D+01
 Coeff-En:   0.100D+01
 Coeff:      0.100D+01
 Gap=     0.241 Goal=   None    Shift=    0.000
 GapD=    0.241 DampG=1.000 DampE=0.500 DampFc=0.5000 IDamp=-1.
 Damping current iteration by 5.00D-01
 RMSDP=2.61D-03 MaxDP=4.36D-01              OVMax= 1.90D-01

 Cycle   2  Pass 1  IDiag  1:
 RMSU=  1.05D-03    CP:  8.78D-01
 E= -1308.32612018021     Delta-E=       -0.166343761812 Rises=F Damp=T
 DIIS: error= 1.45D-02 at cycle   2 NSaved=   2.
 NSaved= 2 IEnMin= 2 EnMin= -1308.32612018021     IErMin= 2 ErrMin= 1.45D-02
 ErrMax= 1.45D-02  0.00D+00 EMaxC= 1.00D-01 BMatC= 4.79D-01 BMatP= 2.30D+00
 IDIUse=3 WtCom= 8.55D-01 WtEn= 1.45D-01
 Coeff-Com: -0.504D+00 0.150D+01
 Coeff-En:   0.000D+00 0.100D+01
 Coeff:     -0.431D+00 0.143D+01
 Gap=     0.291 Goal=   None    Shift=    0.000
 RMSDP=9.14D-04 MaxDP=7.87D-02 DE=-1.66D-01 OVMax= 3.44D-01

 Cycle   3  Pass 1  IDiag  1:
 RMSU=  8.46D-04    CP:  8.33D-01  1.19D+00
 E= -1308.32107650555     Delta-E=        0.005043674655 Rises=F Damp=F
 DIIS: error= 1.58D-02 at cycle   3 NSaved=   3.
 NSaved= 3 IEnMin= 2 EnMin= -1308.32612018021     IErMin= 2 ErrMin= 1.45D-02
 ErrMax= 1.58D-02  0.00D+00 EMaxC= 1.00D-01 BMatC= 2.65D-01 BMatP= 4.79D-01
 IDIUse=3 WtCom= 8.42D-01 WtEn= 1.58D-01
 Coeff-Com: -0.395D+00 0.856D+00 0.539D+00
 Coeff-En:   0.000D+00 0.513D+00 0.487D+00
 Coeff:     -0.332D+00 0.802D+00 0.531D+00
 Gap=     0.233 Goal=   None    Shift=    0.000
 RMSDP=7.95D-04 MaxDP=1.68D-01 DE= 5.04D-03 OVMax= 1.51D-01

 Cycle   4  Pass 1  IDiag  1:
 RMSU=  1.98D-04    CP:  7.76D-01  1.70D+00  5.17D-01
 E= -1308.54555377609     Delta-E=       -0.224477270541 Rises=F Damp=F
 DIIS: error= 2.23D-03 at cycle   4 NSaved=   4.
 NSaved= 4 IEnMin= 4 EnMin= -1308.54555377609     IErMin= 4 ErrMin= 2.23D-03
 ErrMax= 2.23D-03  0.00D+00 EMaxC= 1.00D-01 BMatC= 7.25D-03 BMatP= 2.65D-01
 IDIUse=3 WtCom= 9.78D-01 WtEn= 2.23D-02
 Coeff-Com: -0.170D+00 0.370D+00 0.294D+00 0.507D+00
 Coeff-En:   0.000D+00 0.000D+00 0.000D+00 0.100D+01
 Coeff:     -0.167D+00 0.361D+00 0.287D+00 0.518D+00
 Gap=     0.204 Goal=   None    Shift=    0.000
 RMSDP=7.69D-05 MaxDP=2.04D-02 DE=-2.24D-01 OVMax= 2.49D-02

 Cycle   5  Pass 1  IDiag  1:
 RMSU=  6.91D-05    CP:  7.76D-01  1.71D+00  5.51D-01  9.28D-01
 E= -1308.55155111747     Delta-E=       -0.005997341374 Rises=F Damp=F
 DIIS: error= 5.01D-04 at cycle   5 NSaved=   5.
 NSaved= 5 IEnMin= 5 EnMin= -1308.55155111747     IErMin= 5 ErrMin= 5.01D-04
 ErrMax= 5.01D-04  0.00D+00 EMaxC= 1.00D-01 BMatC= 1.99D-04 BMatP= 7.25D-03
 IDIUse=3 WtCom= 9.95D-01 WtEn= 5.01D-03
 Coeff-Com:  0.211D-01-0.451D-01-0.479D-02 0.147D+00 0.882D+00
 Coeff-En:   0.000D+00 0.000D+00 0.000D+00 0.000D+00 0.100D+01
 Coeff:      0.209D-01-0.449D-01-0.477D-02 0.146D+00 0.882D+00
 Gap=     0.207 Goal=   None    Shift=    0.000
 RMSDP=3.17D-05 MaxDP=4.51D-03 DE=-6.00D-03 OVMax= 6.90D-03

 Cycle   6  Pass 1  IDiag  1:
 RMSU=  2.33D-05    CP:  7.76D-01  1.71D+00  5.68D-01  9.87D-01  8.59D-01
 E= -1308.55177088801     Delta-E=       -0.000219770539 Rises=F Damp=F
 DIIS: error= 2.16D-04 at cycle   6 NSaved=   6.
 NSaved= 6 IEnMin= 6 EnMin= -1308.55177088801     IErMin= 6 ErrMin= 2.16D-04
 ErrMax= 2.16D-04  0.00D+00 EMaxC= 1.00D-01 BMatC= 5.47D-05 BMatP= 1.99D-04
 IDIUse=3 WtCom= 9.98D-01 WtEn= 2.16D-03
 Coeff-Com:  0.187D-01-0.404D-01-0.184D-01 0.276D-01 0.431D+00 0.581D+00
 Coeff-En:   0.000D+00 0.000D+00 0.000D+00 0.000D+00 0.000D+00 0.100D+01
 Coeff:      0.186D-01-0.403D-01-0.184D-01 0.275D-01 0.430D+00 0.582D+00
 Gap=     0.207 Goal=   None    Shift=    0.000
 RMSDP=1.46D-05 MaxDP=2.49D-03 DE=-2.20D-04 OVMax= 1.55D-03

 Cycle   7  Pass 1  IDiag  1:
 RMSU=  6.74D-06    CP:  7.75D-01  1.72D+00  5.66D-01  1.00D+00  9.72D-01
                    CP:  9.04D-01
 E= -1308.55182682985     Delta-E=       -0.000055941847 Rises=F Damp=F
 DIIS: error= 6.80D-05 at cycle   7 NSaved=   7.
 NSaved= 7 IEnMin= 7 EnMin= -1308.55182682985     IErMin= 7 ErrMin= 6.80D-05
 ErrMax= 6.80D-05  0.00D+00 EMaxC= 1.00D-01 BMatC= 2.98D-06 BMatP= 5.47D-05
 IDIUse=1 WtCom= 1.00D+00 WtEn= 0.00D+00
 Coeff-Com:  0.245D-02-0.536D-02-0.464D-02-0.157D-01 0.130D-01 0.167D+00
 Coeff-Com:  0.843D+00
 Coeff:      0.245D-02-0.536D-02-0.464D-02-0.157D-01 0.130D-01 0.167D+00
 Coeff:      0.843D+00
 Gap=     0.206 Goal=   None    Shift=    0.000
 RMSDP=3.80D-06 MaxDP=5.59D-04 DE=-5.59D-05 OVMax= 1.17D-03

 Cycle   8  Pass 1  IDiag  1:
 RMSU=  2.98D-06    CP:  7.75D-01  1.72D+00  5.67D-01  1.01D+00  9.69D-01
                    CP:  9.89D-01  1.07D+00
 E= -1308.55183208487     Delta-E=       -0.000005255011 Rises=F Damp=F
 DIIS: error= 1.94D-05 at cycle   8 NSaved=   8.
 NSaved= 8 IEnMin= 8 EnMin= -1308.55183208487     IErMin= 8 ErrMin= 1.94D-05
 ErrMax= 1.94D-05  0.00D+00 EMaxC= 1.00D-01 BMatC= 5.73D-07 BMatP= 2.98D-06
 IDIUse=1 WtCom= 1.00D+00 WtEn= 0.00D+00
 Coeff-Com: -0.164D-02 0.354D-02 0.819D-03-0.122D-01-0.514D-01-0.135D-01
 Coeff-Com:  0.297D+00 0.777D+00
 Coeff:     -0.164D-02 0.354D-02 0.819D-03-0.122D-01-0.514D-01-0.135D-01
 Coeff:      0.297D+00 0.777D+00
 Gap=     0.206 Goal=   None    Shift=    0.000
 RMSDP=1.50D-06 MaxDP=2.30D-04 DE=-5.26D-06 OVMax= 4.81D-04

 Cycle   9  Pass 1  IDiag  1:
 RMSU=  9.88D-07    CP:  7.75D-01  1.72D+00  5.67D-01  1.00D+00  9.74D-01
                    CP:  1.02D+00  1.17D+00  1.06D+00
 E= -1308.55183307642     Delta-E=       -0.000000991551 Rises=F Damp=F
 DIIS: error= 1.08D-05 at cycle   9 NSaved=   9.
 NSaved= 9 IEnMin= 9 EnMin= -1308.55183307642     IErMin= 9 ErrMin= 1.08D-05
 ErrMax= 1.08D-05  0.00D+00 EMaxC= 1.00D-01 BMatC= 1.01D-07 BMatP= 5.73D-07
 IDIUse=1 WtCom= 1.00D+00 WtEn= 0.00D+00
 Coeff-Com: -0.983D-03 0.212D-02 0.106D-02-0.338D-02-0.192D-01-0.303D-01
 Coeff-Com: -0.276D-01 0.275D+00 0.803D+00
 Coeff:     -0.983D-03 0.212D-02 0.106D-02-0.338D-02-0.192D-01-0.303D-01
 Coeff:     -0.276D-01 0.275D+00 0.803D+00
 Gap=     0.206 Goal=   None    Shift=    0.000
 RMSDP=8.51D-07 MaxDP=1.16D-04 DE=-9.92D-07 OVMax= 2.63D-04

 Cycle  10  Pass 1  IDiag  1:
 RMSU=  3.91D-07    CP:  7.75D-01  1.72D+00  5.67D-01  1.00D+00  9.76D-01
                    CP:  1.03D+00  1.21D+00  1.20D+00  1.17D+00
 E= -1308.55183327214     Delta-E=       -0.000000195720 Rises=F Damp=F
 DIIS: error= 5.85D-06 at cycle  10 NSaved=  10.
 NSaved=10 IEnMin=10 EnMin= -1308.55183327214     IErMin=10 ErrMin= 5.85D-06
 ErrMax= 5.85D-06  0.00D+00 EMaxC= 1.00D-01 BMatC= 1.30D-08 BMatP= 1.01D-07
 IDIUse=1 WtCom= 1.00D+00 WtEn= 0.00D+00
 Coeff-Com: -0.818D-04 0.171D-03 0.215D-03 0.133D-03 0.139D-02-0.721D-02
 Coeff-Com: -0.486D-01-0.406D-01 0.255D+00 0.840D+00
 Coeff:     -0.818D-04 0.171D-03 0.215D-03 0.133D-03 0.139D-02-0.721D-02
 Coeff:     -0.486D-01-0.406D-01 0.255D+00 0.840D+00
 Gap=     0.206 Goal=   None    Shift=    0.000
 RMSDP=2.88D-07 MaxDP=4.86D-05 DE=-1.96D-07 OVMax= 1.38D-04

 Cycle  11  Pass 1  IDiag  1:
 RMSU=  1.41D-07    CP:  7.75D-01  1.71D+00  5.67D-01  1.00D+00  9.76D-01
                    CP:  1.03D+00  1.23D+00  1.24D+00  1.30D+00  1.19D+00
 E= -1308.55183330019     Delta-E=       -0.000000028052 Rises=F Damp=F
 DIIS: error= 2.35D-06 at cycle  11 NSaved=  11.
 NSaved=11 IEnMin=11 EnMin= -1308.55183330019     IErMin=11 ErrMin= 2.35D-06
 ErrMax= 2.35D-06  0.00D+00 EMaxC= 1.00D-01 BMatC= 1.49D-09 BMatP= 1.30D-08
 IDIUse=1 WtCom= 1.00D+00 WtEn= 0.00D+00
 Coeff-Com:  0.922D-04-0.200D-03-0.511D-04 0.449D-03 0.331D-02 0.134D-02
 Coeff-Com: -0.123D-01-0.551D-01-0.737D-02 0.271D+00 0.798D+00
 Coeff:      0.922D-04-0.200D-03-0.511D-04 0.449D-03 0.331D-02 0.134D-02
 Coeff:     -0.123D-01-0.551D-01-0.737D-02 0.271D+00 0.798D+00
 Gap=     0.206 Goal=   None    Shift=    0.000
 RMSDP=1.13D-07 MaxDP=1.26D-05 DE=-2.81D-08 OVMax= 5.51D-05

 Cycle  12  Pass 1  IDiag  1:
 RMSU=  5.81D-08    CP:  7.75D-01  1.71D+00  5.67D-01  1.00D+00  9.76D-01
                    CP:  1.03D+00  1.23D+00  1.25D+00  1.34D+00  1.30D+00
                    CP:  1.25D+00
 E= -1308.55183330429     Delta-E=       -0.000000004098 Rises=F Damp=F
 DIIS: error= 1.42D-06 at cycle  12 NSaved=  12.
 NSaved=12 IEnMin=12 EnMin= -1308.55183330429     IErMin=12 ErrMin= 1.42D-06
 ErrMax= 1.42D-06  0.00D+00 EMaxC= 1.00D-01 BMatC= 1.86D-10 BMatP= 1.49D-09
 IDIUse=1 WtCom= 1.00D+00 WtEn= 0.00D+00
 Coeff-Com:  0.348D-04-0.743D-04-0.458D-04 0.551D-04 0.681D-03 0.122D-02
 Coeff-Com:  0.545D-02-0.796D-02-0.340D-01-0.701D-01 0.173D+00 0.932D+00
 Coeff:      0.348D-04-0.743D-04-0.458D-04 0.551D-04 0.681D-03 0.122D-02
 Coeff:      0.545D-02-0.796D-02-0.340D-01-0.701D-01 0.173D+00 0.932D+00
 Gap=     0.206 Goal=   None    Shift=    0.000
 RMSDP=5.29D-08 MaxDP=6.45D-06 DE=-4.10D-09 OVMax= 3.08D-05

 Cycle  13  Pass 1  IDiag  1:
 RMSU=  2.67D-08    CP:  7.75D-01  1.71D+00  5.67D-01  1.00D+00  9.77D-01
                    CP:  1.03D+00  1.23D+00  1.25D+00  1.35D+00  1.34D+00
                    CP:  1.45D+00  1.30D+00
 E= -1308.55183330502     Delta-E=       -0.000000000738 Rises=F Damp=F
 DIIS: error= 3.45D-07 at cycle  13 NSaved=  13.
 NSaved=13 IEnMin=13 EnMin= -1308.55183330502     IErMin=13 ErrMin= 3.45D-07
 ErrMax= 3.45D-07  0.00D+00 EMaxC= 1.00D-01 BMatC= 6.22D-11 BMatP= 1.86D-10
 IDIUse=1 WtCom= 1.00D+00 WtEn= 0.00D+00
 Coeff-Com:  0.409D-05-0.852D-05-0.127D-04-0.489D-04-0.132D-03 0.172D-03
 Coeff-Com:  0.347D-02 0.387D-02-0.109D-01-0.670D-01-0.738D-01 0.355D+00
 Coeff-Com:  0.789D+00
 Coeff:      0.409D-05-0.852D-05-0.127D-04-0.489D-04-0.132D-03 0.172D-03
 Coeff:      0.347D-02 0.387D-02-0.109D-01-0.670D-01-0.738D-01 0.355D+00
 Coeff:      0.789D+00
 Gap=     0.206 Goal=   None    Shift=    0.000
 RMSDP=2.45D-08 MaxDP=4.66D-06 DE=-7.38D-10 OVMax= 1.21D-05

 Cycle  14  Pass 1  IDiag  1:
 RMSU=  1.14D-08    CP:  7.75D-01  1.71D+00  5.67D-01  1.00D+00  9.77D-01
                    CP:  1.03D+00  1.23D+00  1.25D+00  1.36D+00  1.35D+00
                    CP:  1.53D+00  1.48D+00  1.21D+00
 E= -1308.55183330515     Delta-E=       -0.000000000126 Rises=F Damp=F
 DIIS: error= 1.61D-07 at cycle  14 NSaved=  14.
 NSaved=14 IEnMin=14 EnMin= -1308.55183330515     IErMin=14 ErrMin= 1.61D-07
 ErrMax= 1.61D-07  0.00D+00 EMaxC= 1.00D-01 BMatC= 1.04D-11 BMatP= 6.22D-11
 IDIUse=1 WtCom= 1.00D+00 WtEn= 0.00D+00
 Coeff-Com: -0.517D-05 0.111D-04 0.455D-05-0.437D-04-0.189D-03-0.220D-03
 Coeff-Com:  0.362D-03 0.347D-02 0.326D-02-0.139D-01-0.698D-01-0.223D-01
 Coeff-Com:  0.303D+00 0.796D+00
 Coeff:     -0.517D-05 0.111D-04 0.455D-05-0.437D-04-0.189D-03-0.220D-03
 Coeff:      0.362D-03 0.347D-02 0.326D-02-0.139D-01-0.698D-01-0.223D-01
 Coeff:      0.303D+00 0.796D+00
 Gap=     0.206 Goal=   None    Shift=    0.000
 RMSDP=1.02D-08 MaxDP=1.04D-06 DE=-1.26D-10 OVMax= 4.94D-06

 Cycle  15  Pass 1  IDiag  1:
 RMSU=  4.05D-09    CP:  7.75D-01  1.71D+00  5.67D-01  1.00D+00  9.77D-01
                    CP:  1.03D+00  1.23D+00  1.25D+00  1.36D+00  1.35D+00
                    CP:  1.55D+00  1.57D+00  1.38D+00  1.07D+00
 E= -1308.55183330519     Delta-E=       -0.000000000044 Rises=F Damp=F
 DIIS: error= 3.53D-08 at cycle  15 NSaved=  15.
 NSaved=15 IEnMin=15 EnMin= -1308.55183330519     IErMin=15 ErrMin= 3.53D-08
 ErrMax= 3.53D-08  0.00D+00 EMaxC= 1.00D-01 BMatC= 1.49D-12 BMatP= 1.04D-11
 IDIUse=1 WtCom= 1.00D+00 WtEn= 0.00D+00
 Coeff-Com: -0.190D-05 0.403D-05 0.323D-05-0.107D-04-0.341D-04-0.101D-03
 Coeff-Com: -0.407D-03 0.572D-03 0.287D-02 0.577D-02-0.121D-01-0.592D-01
 Coeff-Com: -0.323D-01 0.270D+00 0.825D+00
 Coeff:     -0.190D-05 0.403D-05 0.323D-05-0.107D-04-0.341D-04-0.101D-03
 Coeff:     -0.407D-03 0.572D-03 0.287D-02 0.577D-02-0.121D-01-0.592D-01
 Coeff:     -0.323D-01 0.270D+00 0.825D+00
 Gap=     0.206 Goal=   None    Shift=    0.000
 RMSDP=3.71D-09 MaxDP=5.66D-07 DE=-4.37D-11 OVMax= 1.45D-06

 Error on total polarization charges =  0.05838
 SCF Done:  E(RCAM-B3LYP) =  -1308.55183331     A.U. after   15 cycles
            NFock= 15  Conv=0.37D-08     -V/T= 2.0052
 KE= 1.301772979627D+03 PE=-8.769452349248D+03 EE= 3.284205316568D+03
 SMD-CDS (non-electrostatic) energy       (kcal/mol) =      -5.32
 (included in total energy above)
 Leave Link  502 at Wed Feb 24 05:34:23 2021, MaxMem=  5242880000 cpu:     30560.9
 (Enter /opt/nce/packages/global/g09/l601.exe)
 Copying SCF densities to generalized density rwf, IOpCl= 0 IROHF=0.

 **********************************************************************

            Population analysis using the SCF density.

 **********************************************************************

 Alpha  occ. eigenvalues --  -19.23772 -19.21615 -19.21353 -14.49506 -10.34162
 Alpha  occ. eigenvalues --  -10.34107 -10.32554 -10.32470 -10.30037 -10.29867
 Alpha  occ. eigenvalues --  -10.29797 -10.29235 -10.28079 -10.27974 -10.27934
 Alpha  occ. eigenvalues --  -10.27642 -10.27567 -10.27186 -10.27166 -10.26929
 Alpha  occ. eigenvalues --  -10.26862 -10.26783 -10.26751 -10.26343 -10.26001
 Alpha  occ. eigenvalues --  -10.25938 -10.25889 -10.25779 -10.25774 -10.25167
 Alpha  occ. eigenvalues --   -6.86207  -1.16319  -1.12757  -1.11474  -1.09345
 Alpha  occ. eigenvalues --   -0.98632  -0.97108  -0.95391  -0.94307  -0.91551
 Alpha  occ. eigenvalues --   -0.87327  -0.86129  -0.85543  -0.84636  -0.83967
 Alpha  occ. eigenvalues --   -0.83681  -0.82670  -0.78536  -0.76419  -0.74405
 Alpha  occ. eigenvalues --   -0.73075  -0.70570  -0.69662  -0.69206  -0.68735
 Alpha  occ. eigenvalues --   -0.66398  -0.65118  -0.64742  -0.64141  -0.62760
 Alpha  occ. eigenvalues --   -0.62040  -0.60599  -0.59337  -0.58335  -0.57314
 Alpha  occ. eigenvalues --   -0.55847  -0.55566  -0.55358  -0.54540  -0.54370
 Alpha  occ. eigenvalues --   -0.52834  -0.52619  -0.52392  -0.52046  -0.51849
 Alpha  occ. eigenvalues --   -0.51386  -0.50422  -0.50345  -0.49234  -0.48577
 Alpha  occ. eigenvalues --   -0.47691  -0.47563  -0.46407  -0.46271  -0.45966
 Alpha  occ. eigenvalues --   -0.45601  -0.45074  -0.44725  -0.44115  -0.43469
 Alpha  occ. eigenvalues --   -0.43266  -0.43188  -0.42108  -0.41072  -0.40316
 Alpha  occ. eigenvalues --   -0.39918  -0.39766  -0.39546  -0.38162  -0.34661
 Alpha  occ. eigenvalues --   -0.32759  -0.32586  -0.32108  -0.31945  -0.29268
 Alpha  occ. eigenvalues --   -0.29138
 Alpha virt. eigenvalues --   -0.08493  -0.01426  -0.00045   0.00737   0.01970
 Alpha virt. eigenvalues --    0.02506   0.03084   0.03704   0.05991   0.07525
 Alpha virt. eigenvalues --    0.08305   0.08561   0.09381   0.09936   0.10288
 Alpha virt. eigenvalues --    0.10386   0.10727   0.11187   0.11778   0.12187
 Alpha virt. eigenvalues --    0.12515   0.12997   0.13404   0.13447   0.14351
 Alpha virt. eigenvalues --    0.14868   0.15212   0.15303   0.15743   0.15876
 Alpha virt. eigenvalues --    0.16528   0.16776   0.17104   0.17440   0.17718
 Alpha virt. eigenvalues --    0.18101   0.18374   0.18958   0.19286   0.19837
 Alpha virt. eigenvalues --    0.20733   0.20852   0.21566   0.21806   0.22468
 Alpha virt. eigenvalues --    0.23023   0.23227   0.23305   0.23843   0.24351
 Alpha virt. eigenvalues --    0.24813   0.25050   0.25196   0.25472   0.25843
 Alpha virt. eigenvalues --    0.26195   0.26542   0.26716   0.27030   0.27200
 Alpha virt. eigenvalues --    0.27660   0.27828   0.28222   0.28537   0.28636
 Alpha virt. eigenvalues --    0.29592   0.29629   0.30064   0.30350   0.30831
 Alpha virt. eigenvalues --    0.31152   0.31488   0.31823   0.32403   0.32527
 Alpha virt. eigenvalues --    0.32629   0.32959   0.33594   0.33628   0.34098
 Alpha virt. eigenvalues --    0.34290   0.34501   0.35401   0.35524   0.35853
 Alpha virt. eigenvalues --    0.36043   0.36525   0.36922   0.37658   0.37850
 Alpha virt. eigenvalues --    0.38085   0.38481   0.38923   0.39496   0.39821
 Alpha virt. eigenvalues --    0.40170   0.40455   0.40573   0.40942   0.41317
 Alpha virt. eigenvalues --    0.41371   0.42030   0.42357   0.42512   0.42766
 Alpha virt. eigenvalues --    0.43186   0.43470   0.43578   0.43789   0.44390
 Alpha virt. eigenvalues --    0.44708   0.44879   0.45196   0.45601   0.46016
 Alpha virt. eigenvalues --    0.46093   0.46581   0.46710   0.46870   0.47378
 Alpha virt. eigenvalues --    0.47842   0.47878   0.48104   0.48717   0.49066
 Alpha virt. eigenvalues --    0.49428   0.49576   0.49710   0.50084   0.50253
 Alpha virt. eigenvalues --    0.50478   0.50830   0.51124   0.51488   0.51663
 Alpha virt. eigenvalues --    0.52381   0.52583   0.52865   0.53179   0.53448
 Alpha virt. eigenvalues --    0.53621   0.53882   0.54399   0.54558   0.54823
 Alpha virt. eigenvalues --    0.55002   0.55562   0.55670   0.56488   0.57028
 Alpha virt. eigenvalues --    0.57255   0.57514   0.58111   0.58242   0.59103
 Alpha virt. eigenvalues --    0.59444   0.60088   0.60856   0.61497   0.61745
 Alpha virt. eigenvalues --    0.62830   0.63327   0.63948   0.64428   0.64669
 Alpha virt. eigenvalues --    0.64748   0.65352   0.65767   0.65982   0.66968
 Alpha virt. eigenvalues --    0.67753   0.67880   0.68162   0.68434   0.69012
 Alpha virt. eigenvalues --    0.69258   0.69643   0.69793   0.70198   0.70665
 Alpha virt. eigenvalues --    0.70838   0.71113   0.71383   0.71621   0.72177
 Alpha virt. eigenvalues --    0.72663   0.73242   0.73659   0.73977   0.74321
 Alpha virt. eigenvalues --    0.74795   0.74811   0.75398   0.75803   0.76486
 Alpha virt. eigenvalues --    0.76665   0.77137   0.77659   0.78151   0.78479
 Alpha virt. eigenvalues --    0.78627   0.79162   0.79492   0.79738   0.80151
 Alpha virt. eigenvalues --    0.80548   0.80903   0.81430   0.81635   0.82207
 Alpha virt. eigenvalues --    0.82924   0.83057   0.83964   0.84496   0.84795
 Alpha virt. eigenvalues --    0.85379   0.85880   0.86241   0.86673   0.86850
 Alpha virt. eigenvalues --    0.87681   0.88366   0.88498   0.89586   0.89889
 Alpha virt. eigenvalues --    0.90004   0.90365   0.91166   0.91535   0.92320
 Alpha virt. eigenvalues --    0.92517   0.92792   0.93112   0.93194   0.93806
 Alpha virt. eigenvalues --    0.94324   0.95027   0.95195   0.95937   0.96707
 Alpha virt. eigenvalues --    0.97059   0.97884   0.98228   0.99014   0.99669
 Alpha virt. eigenvalues --    0.99983   1.00252   1.00993   1.01913   1.02442
 Alpha virt. eigenvalues --    1.02813   1.03356   1.04013   1.04412   1.05884
 Alpha virt. eigenvalues --    1.06218   1.06873   1.07704   1.08500   1.09172
 Alpha virt. eigenvalues --    1.09559   1.09839   1.10403   1.11504   1.11777
 Alpha virt. eigenvalues --    1.12888   1.13082   1.13362   1.14160   1.14525
 Alpha virt. eigenvalues --    1.15086   1.15874   1.16124   1.16295   1.16637
 Alpha virt. eigenvalues --    1.16955   1.18166   1.18413   1.18990   1.19942
 Alpha virt. eigenvalues --    1.20390   1.21161   1.22106   1.22302   1.23098
 Alpha virt. eigenvalues --    1.23502   1.23837   1.25083   1.26120   1.26399
 Alpha virt. eigenvalues --    1.27217   1.27491   1.28186   1.28536   1.29163
 Alpha virt. eigenvalues --    1.29374   1.29719   1.29861   1.30805   1.30915
 Alpha virt. eigenvalues --    1.31432   1.31826   1.32545   1.32874   1.33367
 Alpha virt. eigenvalues --    1.34108   1.35105   1.35171   1.36097   1.36377
 Alpha virt. eigenvalues --    1.36817   1.37093   1.37482   1.38644   1.38694
 Alpha virt. eigenvalues --    1.39215   1.39930   1.40174   1.41479   1.42505
 Alpha virt. eigenvalues --    1.43098   1.44893   1.45168   1.46774   1.47053
 Alpha virt. eigenvalues --    1.47290   1.47851   1.48304   1.49267   1.49627
 Alpha virt. eigenvalues --    1.49818   1.50183   1.51312   1.51466   1.51938
 Alpha virt. eigenvalues --    1.52716   1.53393   1.53753   1.54096   1.54620
 Alpha virt. eigenvalues --    1.54951   1.56225   1.56686   1.57039   1.57453
 Alpha virt. eigenvalues --    1.58033   1.58358   1.58568   1.59301   1.59480
 Alpha virt. eigenvalues --    1.59859   1.59965   1.60672   1.61001   1.61930
 Alpha virt. eigenvalues --    1.62044   1.62778   1.63110   1.63380   1.63838
 Alpha virt. eigenvalues --    1.64020   1.64820   1.65403   1.66115   1.66502
 Alpha virt. eigenvalues --    1.66939   1.67489   1.68060   1.68430   1.68897
 Alpha virt. eigenvalues --    1.69266   1.69754   1.70775   1.71198   1.71583
 Alpha virt. eigenvalues --    1.72289   1.72408   1.73039   1.73328   1.74421
 Alpha virt. eigenvalues --    1.74719   1.75177   1.75494   1.75872   1.76025
 Alpha virt. eigenvalues --    1.76314   1.76677   1.77330   1.78189   1.78695
 Alpha virt. eigenvalues --    1.79406   1.79701   1.80634   1.81136   1.81428
 Alpha virt. eigenvalues --    1.82133   1.82850   1.83002   1.83087   1.83325
 Alpha virt. eigenvalues --    1.84137   1.84669   1.84864   1.86096   1.86937
 Alpha virt. eigenvalues --    1.88106   1.88857   1.89538   1.90178   1.90450
 Alpha virt. eigenvalues --    1.91077   1.92678   1.93060   1.93353   1.93699
 Alpha virt. eigenvalues --    1.94794   1.94923   1.95549   1.96395   1.96631
 Alpha virt. eigenvalues --    1.97850   1.98379   1.98961   1.99461   2.00573
 Alpha virt. eigenvalues --    2.00991   2.01356   2.02536   2.03188   2.04373
 Alpha virt. eigenvalues --    2.04780   2.05251   2.05604   2.06405   2.07372
 Alpha virt. eigenvalues --    2.07748   2.08131   2.09176   2.09939   2.10775
 Alpha virt. eigenvalues --    2.11831   2.11932   2.12367   2.12788   2.13532
 Alpha virt. eigenvalues --    2.14031   2.14625   2.15222   2.16123   2.17007
 Alpha virt. eigenvalues --    2.17554   2.17901   2.19210   2.19503   2.20701
 Alpha virt. eigenvalues --    2.21392   2.21928   2.22185   2.22644   2.23356
 Alpha virt. eigenvalues --    2.23505   2.23896   2.24300   2.25290   2.25967
 Alpha virt. eigenvalues --    2.26877   2.27338   2.28217   2.28722   2.29199
 Alpha virt. eigenvalues --    2.29698   2.31011   2.31893   2.32301   2.32419
 Alpha virt. eigenvalues --    2.33082   2.33632   2.34294   2.34577   2.36154
 Alpha virt. eigenvalues --    2.36532   2.37203   2.38316   2.39234   2.39515
 Alpha virt. eigenvalues --    2.39991   2.40941   2.41533   2.41826   2.42044
 Alpha virt. eigenvalues --    2.43672   2.45176   2.45741   2.46290   2.46937
 Alpha virt. eigenvalues --    2.47172   2.48128   2.48717   2.50281   2.51126
 Alpha virt. eigenvalues --    2.51943   2.52540   2.53476   2.54080   2.54688
 Alpha virt. eigenvalues --    2.54960   2.55724   2.56243   2.56734   2.57121
 Alpha virt. eigenvalues --    2.58827   2.59299   2.59905   2.59959   2.60350
 Alpha virt. eigenvalues --    2.60897   2.61315   2.62510   2.63613   2.64267
 Alpha virt. eigenvalues --    2.64506   2.64963   2.65905   2.66348   2.66617
 Alpha virt. eigenvalues --    2.67303   2.67489   2.67702   2.68178   2.68807
 Alpha virt. eigenvalues --    2.69731   2.70084   2.70512   2.71011   2.71280
 Alpha virt. eigenvalues --    2.72036   2.72570   2.73300   2.73641   2.74410
 Alpha virt. eigenvalues --    2.74655   2.74963   2.75495   2.75654   2.75858
 Alpha virt. eigenvalues --    2.76107   2.76619   2.77092   2.77255   2.77597
 Alpha virt. eigenvalues --    2.77913   2.78493   2.78981   2.79153   2.79457
 Alpha virt. eigenvalues --    2.80031   2.80360   2.81185   2.82006   2.82103
 Alpha virt. eigenvalues --    2.82780   2.82920   2.83193   2.83888   2.84333
 Alpha virt. eigenvalues --    2.84708   2.85139   2.85353   2.85937   2.86597
 Alpha virt. eigenvalues --    2.87137   2.87543   2.88163   2.88476   2.89037
 Alpha virt. eigenvalues --    2.89687   2.90254   2.90378   2.90619   2.91125
 Alpha virt. eigenvalues --    2.91410   2.91644   2.92422   2.93895   2.94191
 Alpha virt. eigenvalues --    2.94571   2.94583   2.95221   2.95589   2.96575
 Alpha virt. eigenvalues --    2.96984   2.97323   2.98005   2.98417   2.99324
 Alpha virt. eigenvalues --    3.00140   3.00287   3.00506   3.01202   3.01887
 Alpha virt. eigenvalues --    3.02657   3.02916   3.03293   3.03659   3.04663
 Alpha virt. eigenvalues --    3.05519   3.05937   3.06744   3.07067   3.07577
 Alpha virt. eigenvalues --    3.08131   3.08906   3.09354   3.10512   3.10697
 Alpha virt. eigenvalues --    3.11447   3.11664   3.12275   3.12882   3.13296
 Alpha virt. eigenvalues --    3.13881   3.14178   3.14368   3.14762   3.16306
 Alpha virt. eigenvalues --    3.17089   3.17254   3.17586   3.18453   3.18926
 Alpha virt. eigenvalues --    3.18978   3.19335   3.20105   3.20412   3.21216
 Alpha virt. eigenvalues --    3.21544   3.21719   3.22281   3.22665   3.22872
 Alpha virt. eigenvalues --    3.23073   3.23713   3.23903   3.24747   3.25359
 Alpha virt. eigenvalues --    3.25944   3.26074   3.26724   3.27121   3.27699
 Alpha virt. eigenvalues --    3.27763   3.28463   3.29214   3.30450   3.30532
 Alpha virt. eigenvalues --    3.30997   3.31518   3.31649   3.32844   3.32877
 Alpha virt. eigenvalues --    3.33388   3.34700   3.34973   3.35201   3.35501
 Alpha virt. eigenvalues --    3.35984   3.36071   3.37546   3.37727   3.37841
 Alpha virt. eigenvalues --    3.38394   3.38634   3.38807   3.39329   3.39456
 Alpha virt. eigenvalues --    3.40330   3.40455   3.41229   3.41658   3.41860
 Alpha virt. eigenvalues --    3.42366   3.42997   3.43281   3.43984   3.44213
 Alpha virt. eigenvalues --    3.44360   3.44984   3.45338   3.45928   3.46052
 Alpha virt. eigenvalues --    3.46613   3.46978   3.47472   3.48045   3.49246
 Alpha virt. eigenvalues --    3.49540   3.49920   3.50181   3.50588   3.51371
 Alpha virt. eigenvalues --    3.51825   3.52344   3.52699   3.52912   3.53524
 Alpha virt. eigenvalues --    3.54161   3.54301   3.55047   3.55318   3.55716
 Alpha virt. eigenvalues --    3.55950   3.56361   3.57218   3.57778   3.58128
 Alpha virt. eigenvalues --    3.58465   3.59291   3.59479   3.59995   3.60063
 Alpha virt. eigenvalues --    3.60522   3.60652   3.60908   3.61818   3.62176
 Alpha virt. eigenvalues --    3.63600   3.64002   3.64238   3.64652   3.65379
 Alpha virt. eigenvalues --    3.66155   3.66515   3.67009   3.67711   3.69286
 Alpha virt. eigenvalues --    3.69996   3.70471   3.70809   3.71936   3.72931
 Alpha virt. eigenvalues --    3.73484   3.73915   3.75262   3.75809   3.76343
 Alpha virt. eigenvalues --    3.76495   3.77516   3.79478   3.80368   3.80991
 Alpha virt. eigenvalues --    3.82593   3.82993   3.84510   3.84756   3.85784
 Alpha virt. eigenvalues --    3.86773   3.87247   3.90134   3.90343   3.91005
 Alpha virt. eigenvalues --    3.92692   3.93514   3.94049   3.94988   3.95398
 Alpha virt. eigenvalues --    3.96469   3.97023   3.97787   3.99761   4.00345
 Alpha virt. eigenvalues --    4.01230   4.02041   4.02450   4.03390   4.04818
 Alpha virt. eigenvalues --    4.06178   4.06703   4.07232   4.07376   4.08169
 Alpha virt. eigenvalues --    4.10981   4.11804   4.12321   4.12969   4.13280
 Alpha virt. eigenvalues --    4.13865   4.14768   4.15033   4.15991   4.16294
 Alpha virt. eigenvalues --    4.18645   4.19189   4.20266   4.20965   4.21012
 Alpha virt. eigenvalues --    4.21252   4.21541   4.21869   4.23033   4.23851
 Alpha virt. eigenvalues --    4.25607   4.26241   4.26909   4.27726   4.27849
 Alpha virt. eigenvalues --    4.27992   4.28310   4.28601   4.29154   4.29535
 Alpha virt. eigenvalues --    4.30055   4.30143   4.30697   4.31131   4.31890
 Alpha virt. eigenvalues --    4.32759   4.33077   4.34352   4.34901   4.35624
 Alpha virt. eigenvalues --    4.37270   4.37896   4.39311   4.39947   4.40617
 Alpha virt. eigenvalues --    4.41458   4.42185   4.43943   4.44955   4.45782
 Alpha virt. eigenvalues --    4.47832   4.49274   4.50529   4.51622   4.53960
 Alpha virt. eigenvalues --    4.54488   4.54862   4.56219   4.57791   4.58923
 Alpha virt. eigenvalues --    4.60132   4.61294   4.63524   4.64465   4.65830
 Alpha virt. eigenvalues --    4.67464   4.68238   4.69022   4.70241   4.70549
 Alpha virt. eigenvalues --    4.72140   4.74033   4.74115   4.77024   4.78386
 Alpha virt. eigenvalues --    4.78996   4.80274   4.83072   4.83796   4.85838
 Alpha virt. eigenvalues --    4.86639   4.88609   4.90433   4.90927   4.92527
 Alpha virt. eigenvalues --    4.92858   4.94483   4.97627   5.00083   5.00594
 Alpha virt. eigenvalues --    5.01700   5.02989   5.04096   5.06498   5.08184
 Alpha virt. eigenvalues --    5.08630   5.11188   5.12951   5.17003   5.17746
 Alpha virt. eigenvalues --    5.20396   5.21292   5.22577   5.24258   5.25225
 Alpha virt. eigenvalues --    5.25966   5.27473   5.30604   5.31244   5.31970
 Alpha virt. eigenvalues --    5.33530   5.34321   5.34532   5.36628   5.39889
 Alpha virt. eigenvalues --    5.41338   5.41354   5.42191   5.45623   5.47146
 Alpha virt. eigenvalues --    5.47412   5.49385   5.51479   5.54085   5.56510
 Alpha virt. eigenvalues --    5.58780   5.59142   5.59908   5.61129   5.61761
 Alpha virt. eigenvalues --    5.62929   5.66239   5.68483   5.70185   5.75773
 Alpha virt. eigenvalues --    5.78522   5.79668   5.82855   5.82999   5.83808
 Alpha virt. eigenvalues --    5.87040   5.87102   5.90006   5.91398   6.00914
 Alpha virt. eigenvalues --    6.08194   6.08884   6.16027   6.29817   6.36221
 Alpha virt. eigenvalues --    6.38114   6.43249   6.43553   6.48301   6.50598
 Alpha virt. eigenvalues --    6.59442   6.63018   6.70051   6.77679   6.80582
 Alpha virt. eigenvalues --    6.83848   6.84959   6.85509   6.93298   6.93942
 Alpha virt. eigenvalues --    7.02568   7.24029   7.31620   7.39645   7.48775
 Alpha virt. eigenvalues --   16.16220  22.26686  22.34586  22.38985  22.47113
 Alpha virt. eigenvalues --   22.51816  22.63255  22.65942  22.66435  22.67966
 Alpha virt. eigenvalues --   22.69983  22.71781  22.73736  22.76490  22.80912
 Alpha virt. eigenvalues --   22.82227  22.89230  22.93316  22.95560  22.97599
 Alpha virt. eigenvalues --   23.02829  23.13243  23.20046  23.34966  23.40076
 Alpha virt. eigenvalues --   23.41908  23.76090  33.35305  43.61430  43.77872
 Alpha virt. eigenvalues --   44.25946
          Condensed to atoms (all electrons):
 Mulliken charges:
               1
     1  C   -0.122270
     2  C   -0.186736
     3  C    0.147539
     4  C    0.096900
     5  C   -0.210576
     6  C   -0.159985
     7  C    0.002134
     8  C    0.204430
     9  C    0.096366
    10  C   -0.182136
    11  H    0.204446
    12  C   -0.128032
    13  C   -0.151668
    14  C   -0.221134
    15  H    0.186934
    16  H    0.204825
    17  H    0.204760
    18  H    0.181109
    19  H    0.186390
    20  H    0.180855
    21  H    0.205412
    22  N    0.157144
    23  C   -0.031047
    24  C   -0.050302
    25  C   -0.240673
    26  C   -0.213599
    27  C   -0.133329
    28  C   -0.158099
    29  H    0.174338
    30  H    0.174521
    31  C   -0.058174
    32  C   -0.204881
    33  C   -0.183565
    34  C   -0.231814
    35  H    0.178067
    36  C   -0.192334
    37  H    0.174510
    38  C    0.317565
    39  H    0.184595
    40  H    0.163522
    41  O   -0.266489
    42  C   -0.253779
    43  H    0.165942
    44  H    0.153851
    45  H    0.153665
    46  H    0.171453
    47  B    0.283152
    48  O   -0.426913
    49  O   -0.432287
    50  H    0.358380
    51  H    0.359729
    52  H    0.167288
 Sum of Mulliken charges =   1.00000
[...]
 Alpha virt. eigenvalues --    0.57341   0.58012   0.58766   0.59232   0.59639
 Alpha virt. eigenvalues --    0.59999   0.60824   0.61178   0.62023   0.62682
 Alpha virt. eigenvalues --    0.63812   0.63967   0.64495   0.64544   0.65271
 Alpha virt. eigenvalues --    0.65336   0.65597   0.66195   0.67203   0.67709
 Alpha virt. eigenvalues --    0.68277   0.68467   0.68722   0.69136   0.69300
 Alpha virt. eigenvalues --    0.69752   0.70073   0.70385   0.70506   0.71207
 Alpha virt. eigenvalues --    0.71368   0.71679   0.71869   0.72495   0.72609
 Alpha virt. eigenvalues --    0.73714   0.73827   0.74876   0.75044   0.75191
 Alpha virt. eigenvalues --    0.75452   0.75661   0.75981   0.76746   0.77179
 Alpha virt. eigenvalues --    0.77734   0.77876   0.78107   0.78900   0.79217
 Alpha virt. eigenvalues --    0.79370   0.79578   0.79915   0.80677   0.80817
 Alpha virt. eigenvalues --    0.81155   0.81540   0.82020   0.82539   0.83031
 Alpha virt. eigenvalues --    0.83266   0.83809   0.84180   0.84496   0.85123
 Alpha virt. eigenvalues --    0.85839   0.86189   0.86614   0.86861   0.87296
 Alpha virt. eigenvalues --    0.88139   0.88888   0.88970   0.89507   0.90109
 Alpha virt. eigenvalues --    0.90580   0.90649   0.91259   0.91514   0.92386
 Alpha virt. eigenvalues --    0.92849   0.92980   0.93579   0.93802   0.94210
 Alpha virt. eigenvalues --    0.94500   0.95127   0.95687   0.96562   0.96879
 Alpha virt. eigenvalues --    0.97156   0.98148   0.98559   0.99417   0.99465
 Alpha virt. eigenvalues --    1.00464   1.00896   1.01401   1.01746   1.02490
 Alpha virt. eigenvalues --    1.03296   1.03740   1.04530   1.05109   1.05846
 Alpha virt. eigenvalues --    1.06638   1.07862   1.08026   1.09044   1.09155
 Alpha virt. eigenvalues --    1.09774   1.09933   1.10927   1.11161   1.11701
 Alpha virt. eigenvalues --    1.13040   1.13559   1.13800   1.14431   1.14675
 Alpha virt. eigenvalues --    1.14947   1.15753   1.15912   1.16145   1.16819
 Alpha virt. eigenvalues --    1.17571   1.18622   1.19308   1.20204   1.20344
 Alpha virt. eigenvalues --    1.20651   1.21484   1.22121   1.22782   1.23298
 Alpha virt. eigenvalues --    1.23589   1.24117   1.24952   1.26746   1.27372
 Alpha virt. eigenvalues --    1.27553   1.28611   1.29208   1.29350   1.29593
 Alpha virt. eigenvalues --    1.29827   1.30460   1.30883   1.31457   1.31642
 Alpha virt. eigenvalues --    1.31739   1.33089   1.33114   1.33334   1.34135
 Alpha virt. eigenvalues --    1.34735   1.34986   1.35816   1.36598   1.36900
 Alpha virt. eigenvalues --    1.37588   1.38190   1.38435   1.39249   1.39528
 Alpha virt. eigenvalues --    1.40489   1.40887   1.41836   1.42648   1.43113
 Alpha virt. eigenvalues --    1.44414   1.45243   1.45818   1.46971   1.47285
 Alpha virt. eigenvalues --    1.48565   1.48886   1.49088   1.50083   1.50251
 Alpha virt. eigenvalues --    1.50545   1.51025   1.51782   1.51978   1.52749
 Alpha virt. eigenvalues --    1.53206   1.53748   1.54012   1.54814   1.55267
 Alpha virt. eigenvalues --    1.55798   1.56665   1.57601   1.57668   1.58429
 Alpha virt. eigenvalues --    1.58722   1.59109   1.59874   1.60187   1.60481
 Alpha virt. eigenvalues --    1.60707   1.61281   1.61548   1.62100   1.62562
 Alpha virt. eigenvalues --    1.62712   1.63656   1.63994   1.64196   1.64857
 Alpha virt. eigenvalues --    1.65136   1.65584   1.65936   1.66794   1.67015
 Alpha virt. eigenvalues --    1.67634   1.68376   1.68983   1.69346   1.69797
 Alpha virt. eigenvalues --    1.69896   1.70623   1.71014   1.71741   1.72219
 Alpha virt. eigenvalues --    1.72644   1.73297   1.73721   1.74171   1.74783
 Alpha virt. eigenvalues --    1.75192   1.75936   1.76036   1.76527   1.76802
 Alpha virt. eigenvalues --    1.77491   1.78047   1.78442   1.79429   1.79809
 Alpha virt. eigenvalues --    1.80050   1.80811   1.81148   1.82118   1.82500
 Alpha virt. eigenvalues --    1.82969   1.83203   1.83886   1.83991   1.84438
 Alpha virt. eigenvalues --    1.84725   1.84885   1.85857   1.86137   1.87560
 Alpha virt. eigenvalues --    1.88563   1.89055   1.90229   1.91171   1.91759
 Alpha virt. eigenvalues --    1.92218   1.93083   1.93826   1.94546   1.94706
 Alpha virt. eigenvalues --    1.95331   1.95993   1.96324   1.97014   1.97771
 Alpha virt. eigenvalues --    1.98943   1.99379   1.99980   2.00334   2.01292
 Alpha virt. eigenvalues --    2.01922   2.02265   2.03441   2.04062   2.04838
 Alpha virt. eigenvalues --    2.05421   2.06629   2.07251   2.07783   2.08428
 Alpha virt. eigenvalues --    2.09044   2.09224   2.10645   2.11294   2.11493
 Alpha virt. eigenvalues --    2.12441   2.12468   2.12909   2.13892   2.14061
 Alpha virt. eigenvalues --    2.14986   2.15722   2.16082   2.16987   2.18001
 Alpha virt. eigenvalues --    2.18446   2.18608   2.19761   2.20309   2.21319
 Alpha virt. eigenvalues --    2.21420   2.22175   2.23163   2.23971   2.24160
 Alpha virt. eigenvalues --    2.24537   2.25451   2.25692   2.26395   2.26515
 Alpha virt. eigenvalues --    2.28150   2.29119   2.29626   2.30126   2.30555
 Alpha virt. eigenvalues --    2.31360   2.32464   2.32860   2.33182   2.33621
 Alpha virt. eigenvalues --    2.34636   2.35679   2.35877   2.36450   2.36583
 Alpha virt. eigenvalues --    2.37251   2.37766   2.39110   2.39572   2.40164
 Alpha virt. eigenvalues --    2.41352   2.41832   2.42087   2.43025   2.43506
 Alpha virt. eigenvalues --    2.45106   2.45737   2.46485   2.46974   2.47757
 Alpha virt. eigenvalues --    2.48287   2.49288   2.49741   2.51151   2.51913
 Alpha virt. eigenvalues --    2.53123   2.53455   2.53943   2.54116   2.54758
 Alpha virt. eigenvalues --    2.55361   2.55863   2.56839   2.58025   2.58433
 Alpha virt. eigenvalues --    2.59336   2.60472   2.60846   2.61064   2.61704
 Alpha virt. eigenvalues --    2.62118   2.62690   2.63626   2.64515   2.64929
 Alpha virt. eigenvalues --    2.65396   2.65728   2.66540   2.68061   2.68599
 Alpha virt. eigenvalues --    2.68706   2.68851   2.69183   2.69859   2.70336
 Alpha virt. eigenvalues --    2.71034   2.71693   2.72010   2.72446   2.72786
 Alpha virt. eigenvalues --    2.72932   2.74057   2.74161   2.75005   2.75575
 Alpha virt. eigenvalues --    2.76023   2.76794   2.76901   2.76983   2.77111
 Alpha virt. eigenvalues --    2.77543   2.77835   2.78492   2.78548   2.78946
 Alpha virt. eigenvalues --    2.79350   2.79732   2.80102   2.80396   2.80755
 Alpha virt. eigenvalues --    2.81121   2.81446   2.81768   2.82758   2.83276
 Alpha virt. eigenvalues --    2.83788   2.84307   2.84628   2.84787   2.85086
 Alpha virt. eigenvalues --    2.85776   2.86251   2.86721   2.87125   2.87597
 Alpha virt. eigenvalues --    2.88242   2.88446   2.89379   2.89773   2.90208
 Alpha virt. eigenvalues --    2.90979   2.91294   2.91475   2.92039   2.92592
 Alpha virt. eigenvalues --    2.93033   2.93377   2.94025   2.94889   2.95305
 Alpha virt. eigenvalues --    2.95405   2.95858   2.96099   2.97057   2.98204
 Alpha virt. eigenvalues --    2.98428   2.99007   2.99333   2.99841   3.00498
 Alpha virt. eigenvalues --    3.01112   3.01249   3.01981   3.02849   3.03246
 Alpha virt. eigenvalues --    3.03495   3.03971   3.04175   3.04672   3.04900
 Alpha virt. eigenvalues --    3.05424   3.06766   3.07589   3.07874   3.08029
 Alpha virt. eigenvalues --    3.08682   3.09407   3.10004   3.11283   3.11598
 Alpha virt. eigenvalues --    3.12114   3.12736   3.13536   3.13719   3.14254
 Alpha virt. eigenvalues --    3.14576   3.15171   3.15571   3.16249   3.16520
 Alpha virt. eigenvalues --    3.17072   3.18041   3.18287   3.18526   3.18937
 Alpha virt. eigenvalues --    3.19193   3.20081   3.20311   3.20847   3.21509
 Alpha virt. eigenvalues --    3.22173   3.22786   3.23028   3.23344   3.23780
 Alpha virt. eigenvalues --    3.24266   3.24539   3.25081   3.25919   3.26096
 Alpha virt. eigenvalues --    3.26347   3.26740   3.27520   3.28290   3.28550
 Alpha virt. eigenvalues --    3.28906   3.29524   3.29833   3.31496   3.31508
 Alpha virt. eigenvalues --    3.31968   3.32326   3.32808   3.33180   3.33684
 Alpha virt. eigenvalues --    3.34348   3.34921   3.35450   3.35904   3.36564
 Alpha virt. eigenvalues --    3.37150   3.37285   3.38275   3.38791   3.39148
 Alpha virt. eigenvalues --    3.39323   3.39758   3.40351   3.40429   3.40956
 Alpha virt. eigenvalues --    3.41522   3.41997   3.42254   3.42331   3.43458
 Alpha virt. eigenvalues --    3.43531   3.44445   3.44785   3.45073   3.45567
 Alpha virt. eigenvalues --    3.46215   3.46501   3.46773   3.46926   3.47288
 Alpha virt. eigenvalues --    3.47868   3.48403   3.48624   3.49043   3.50486
 Alpha virt. eigenvalues --    3.50633   3.51198   3.51698   3.51965   3.52912
 Alpha virt. eigenvalues --    3.53169   3.53717   3.54191   3.54337   3.55013
 Alpha virt. eigenvalues --    3.55406   3.55818   3.56547   3.56810   3.57269
 Alpha virt. eigenvalues --    3.57702   3.58483   3.58934   3.59503   3.59694
 Alpha virt. eigenvalues --    3.59805   3.59953   3.60765   3.61117   3.61334
 Alpha virt. eigenvalues --    3.61884   3.62043   3.62587   3.63404   3.64057
 Alpha virt. eigenvalues --    3.64862   3.65300   3.65593   3.66413   3.67421
 Alpha virt. eigenvalues --    3.67697   3.67960   3.68406   3.70371   3.71343
 Alpha virt. eigenvalues --    3.71913   3.72375   3.72611   3.73771   3.73978
 Alpha virt. eigenvalues --    3.74958   3.75915   3.76198   3.77184   3.77342
 Alpha virt. eigenvalues --    3.78332   3.79588   3.80553   3.81780   3.82967
 Alpha virt. eigenvalues --    3.84901   3.85432   3.86209   3.86845   3.87515
 Alpha virt. eigenvalues --    3.89198   3.89638   3.92114   3.92471   3.92951
 Alpha virt. eigenvalues --    3.94932   3.95792   3.96994   3.97287   3.97566
 Alpha virt. eigenvalues --    3.98771   3.99080   4.00428   4.02350   4.02825
 Alpha virt. eigenvalues --    4.03160   4.03861   4.05060   4.06195   4.07453
 Alpha virt. eigenvalues --    4.08483   4.08934   4.09580   4.10322   4.10879
 Alpha virt. eigenvalues --    4.13021   4.13935   4.15093   4.15443   4.16158
 Alpha virt. eigenvalues --    4.16575   4.17191   4.18071   4.18915   4.19434
 Alpha virt. eigenvalues --    4.20116   4.21157   4.22221   4.23463   4.23925
 Alpha virt. eigenvalues --    4.24261   4.24629   4.24881   4.25505   4.27025
 Alpha virt. eigenvalues --    4.27990   4.28656   4.29624   4.30138   4.30559
 Alpha virt. eigenvalues --    4.31006   4.31273   4.31943   4.32256   4.32415
 Alpha virt. eigenvalues --    4.32701   4.33479   4.33807   4.34282   4.34860
 Alpha virt. eigenvalues --    4.35583   4.36795   4.37541   4.38341   4.38935
 Alpha virt. eigenvalues --    4.40178   4.41013   4.42416   4.43266   4.43795
 Alpha virt. eigenvalues --    4.45011   4.46035   4.46808   4.48633   4.49146
 Alpha virt. eigenvalues --    4.51934   4.52313   4.53467   4.54358   4.56731
 Alpha virt. eigenvalues --    4.57866   4.58755   4.59650   4.60734   4.61557
 Alpha virt. eigenvalues --    4.63895   4.64602   4.66626   4.67339   4.69633
 Alpha virt. eigenvalues --    4.70659   4.71292   4.72355   4.72937   4.74097
 Alpha virt. eigenvalues --    4.75381   4.76595   4.76932   4.79906   4.80381
 Alpha virt. eigenvalues --    4.82033   4.82639   4.86924   4.87284   4.88170
 Alpha virt. eigenvalues --    4.89190   4.90453   4.92646   4.93476   4.95262
 Alpha virt. eigenvalues --    4.96505   4.97420   4.99674   5.01635   5.03210
 Alpha virt. eigenvalues --    5.03944   5.04859   5.07008   5.08933   5.10872
 Alpha virt. eigenvalues --    5.11074   5.14306   5.14846   5.23023   5.23174
 Alpha virt. eigenvalues --    5.23594   5.24716   5.26981   5.27803   5.28551
 Alpha virt. eigenvalues --    5.29456   5.29998   5.32876   5.33251   5.34018
 Alpha virt. eigenvalues --    5.36043   5.37095   5.38993   5.39198   5.41521
 Alpha virt. eigenvalues --    5.42411   5.42421   5.46336   5.47273   5.47808
 Alpha virt. eigenvalues --    5.49507   5.51036   5.52964   5.55522   5.58139
 Alpha virt. eigenvalues --    5.59615   5.61746   5.62257   5.63052   5.64152
 Alpha virt. eigenvalues --    5.65593   5.68623   5.69924   5.70629   5.78522
 Alpha virt. eigenvalues --    5.80774   5.83106   5.83269   5.86340   5.86938
 Alpha virt. eigenvalues --    5.87381   5.89733   5.93464   5.94849   5.99343
 Alpha virt. eigenvalues --    6.08324   6.13455   6.18634   6.33700   6.37984
 Alpha virt. eigenvalues --    6.38818   6.44215   6.44243   6.49703   6.55118
 Alpha virt. eigenvalues --    6.58787   6.63091   6.70871   6.77516   6.81234
 Alpha virt. eigenvalues --    6.83780   6.84305   6.85845   6.92906   6.93801
 Alpha virt. eigenvalues --    7.02772   7.24468   7.32343   7.39052   7.49355
 Alpha virt. eigenvalues --   16.18026  22.32161  22.37065  22.43137  22.50163
 Alpha virt. eigenvalues --   22.56702  22.70559  22.71591  22.72132  22.75358
 Alpha virt. eigenvalues --   22.77034  22.81149  22.81849  22.84492  22.87034
 Alpha virt. eigenvalues --   22.88539  22.97374  23.00563  23.01638  23.04969
 Alpha virt. eigenvalues --   23.11410  23.20527  23.30552  23.43370  23.48937
 Alpha virt. eigenvalues --   23.51221  23.86021  33.38946  43.59176  43.74961
 Alpha virt. eigenvalues --   44.25768
          Condensed to atoms (all electrons):
 Mulliken charges:
               1
     1  C   -0.119917
     2  C   -0.184292
     3  C    0.156629
     4  C    0.064217
     5  C   -0.203636
     6  C   -0.154589
     7  C    0.059310
     8  C    0.203617
     9  C    0.102337
    10  C   -0.181976
    11  H    0.200956
    12  C   -0.124729
    13  C   -0.148079
    14  C   -0.226489
    15  H    0.184096
    16  H    0.201166
    17  H    0.198489
    18  H    0.178546
    19  H    0.183657
    20  H    0.178167
    21  H    0.199033
    22  N    0.168086
    23  C   -0.128381
    24  C    0.002739
    25  C   -0.211471
    26  C   -0.202129
    27  C   -0.138621
    28  C   -0.152294
    29  H    0.170737
    30  H    0.165635
    31  C   -0.051447
    32  C   -0.209591
    33  C   -0.183197
    34  C   -0.225954
    35  H    0.175295
    36  C   -0.191789
    37  H    0.171699
    38  C    0.330020
    39  H    0.182490
    40  H    0.161410
    41  O   -0.273691
    42  C   -0.252379
    43  H    0.164472
    44  H    0.153526
    45  H    0.153601
    46  H    0.168225
    47  B    0.283057
    48  O   -0.425279
    49  O   -0.445570
    50  H    0.354946
    51  H    0.357594
    52  H    0.161749
 Sum of Mulliken charges =   1.00000
 Mulliken charges with hydrogens summed into heavy atoms:
               1
     1  C    0.064179
     2  C    0.016874
     3  C    0.156629
     4  C    0.064217
     5  C   -0.005147
     6  C    0.023956
     7  C    0.059310
     8  C    0.203617
     9  C    0.102337
    10  C    0.018980
    12  C    0.058928
    13  C    0.030088
    14  C   -0.027456
    22  N    0.168086
    23  C   -0.128381
    24  C    0.002739
    25  C   -0.045837
    26  C   -0.040381
    27  C    0.032117
    28  C    0.015931
    31  C   -0.051447
    32  C   -0.034296
    33  C   -0.011498
    34  C   -0.043463
    36  C   -0.030380
    38  C    0.330020
    41  O   -0.273691
    42  C    0.219221
    47  B    0.283057
    48  O   -0.070333
    49  O   -0.087976
 Electronic spatial extent (au):  <R**2>=          13545.9497
 Charge=              1.0000 electrons
 Dipole moment (field-independent basis, Debye):
    X=             -3.1263    Y=              1.7532    Z=             -0.1546  Tot=              3.5877
 Quadrupole moment (field-independent basis, Debye-Ang):
   XX=           -120.0062   YY=           -142.7339   ZZ=           -162.8290
   XY=              7.8166   XZ=            -16.9947   YZ=              1.5396
 Traceless Quadrupole moment (field-independent basis, Debye-Ang):
   XX=             21.8502   YY=             -0.8775   ZZ=            -20.9726
   XY=              7.8166   XZ=            -16.9947   YZ=              1.5396
 Octapole moment (field-independent basis, Debye-Ang**2):
  XXX=           -151.9075  YYY=              6.9889  ZZZ=             28.4582  XYY=             -9.0763
  XXY=             10.3498  XXZ=             67.4115  XZZ=            -12.8710  YZZ=            -12.4115
  YYZ=              3.4518  XYZ=             -3.4547
 Hexadecapole moment (field-independent basis, Debye-Ang**3):
 XXXX=         -10961.4647 YYYY=          -2538.2298 ZZZZ=          -1393.5010 XXXY=            275.9897
 XXXZ=           -815.8598 YYYX=            -24.2644 YYYZ=            110.3771 ZZZX=             79.7199
 ZZZY=           -135.4336 XXYY=          -2818.1736 XXZZ=          -2193.2116 YYZZ=           -782.3248
 XXYZ=            -92.7425 YYXZ=              7.9480 ZZXY=            -19.7936
 N-N= 2.887428557130D+03 E-N=-8.795060254363D+03  KE= 1.302976889705D+03
 Leave Link  601 at Thu Feb 25 05:32:33 2021, MaxMem=  5242880000 cpu:        20.7
 (Enter /opt/nce/packages/global/g09/l9999.exe)
 1\1\GINC-CN044\SP\RCAM-B3LYP TD-FC\Gen\C26H21B1N1O3(1+)\PNG4RJV\25-Feb
 -2021\0\\#p cam-b3lyp chkbasis geom=allcheck Guess=Read int=ultrafine 
 scrf=(SMD,solvent=Acetonitrile) td=(NStates=30) EmpiricalDispersion=GD
 3BJ\\Title\\1,1\C,0,-0.6160508574,3.6349661757,0.4994983372\C,0,-1.252
 6476166,2.4609602682,0.2340948496\C,0,-0.4988974955,1.3058464908,-0.05
 67520047\C,0,0.9184730766,1.3825452824,-0.0818184251\C,0,1.5366464023,
 2.6282937972,0.2157835928\C,0,0.7911412108,3.7253929234,0.4977980439\C
 ,0,1.6654053596,0.2349277029,-0.3739899324\C,0,1.0055362049,-0.9686839
 35,-0.6469280202\C,0,-0.4121800008,-1.0137466839,-0.5998896834\C,0,-1.
 0787568037,-2.2284733402,-0.8579069301\H,0,-2.1548588774,-2.2721622327
 ,-0.8177002668\C,0,-0.3586886967,-3.3441752067,-1.1593265816\C,0,1.049
 3441268,-3.3143730806,-1.2266053606\C,0,1.7114542304,-2.1572874623,-0.
 9784431523\H,0,-1.2049894533,4.5149514221,0.7212649772\H,0,-2.32928836
 09,2.4127294482,0.2477177773\H,0,2.6144938703,2.6849526637,0.215017427
 8\H,0,1.2690718067,4.6686085295,0.7225539248\H,0,-0.881210077,-4.27089
 95362,-1.355873091\H,0,1.5942669322,-4.2133841645,-1.4785155195\H,0,2.
 788830251,-2.1224694603,-1.0326393302\N,0,-1.1136757825,0.116712372,-0
 .3065179458\C,0,3.1498689535,0.2968076456,-0.4105872027\C,0,3.92858994
 13,-0.2143642554,0.6344528368\C,0,3.7461589045,0.8467517321,-1.5378681
 799\C,0,5.3154015261,-0.1503464177,0.4988145785\C,0,5.1244057128,0.902
 4762195,-1.6424200756\C,0,5.9125150713,0.4050004307,-0.6189258996\H,0,
 5.5793579581,1.3322858254,-2.5250867132\H,0,3.1254790626,1.2262427597,
 -2.3391109297\C,0,-2.556554414,0.0502732719,-0.2539444659\C,0,-3.17800
 50296,-0.2433613237,0.939401835\C,0,-3.2924888681,0.2826090425,-1.4033
 971563\C,0,-4.5604016042,-0.308653579,1.0003963219\H,0,-2.5859392927,-
 0.4234870633,1.82703535\C,0,-4.6667132959,0.2200636239,-1.3502348362\H
 ,0,-2.7870683913,0.5112724665,-2.3324002975\C,0,-5.3093991626,-0.07526
 61075,-0.1479699169\H,0,-5.0381226968,-0.5405185094,1.9396239324\H,0,-
 5.2640331456,0.398596547,-2.2339826297\O,0,-6.6546525444,-0.1135770696
 ,-0.1906791918\C,0,-7.3625754768,-0.4109554974,1.0048429781\H,0,-8.416
 7311285,-0.3855010046,0.7424544752\H,0,-7.1051498255,-1.4040213274,1.3
 780849836\H,0,-7.162559184,0.334312915,1.7770034438\H,0,6.991322369,0.
 4452431343,-0.6935007461\B,0,3.3461093726,-0.8527256533,1.9478745456\O
 ,0,2.255138298,-0.3902596633,2.6238831884\O,0,3.9945100682,-1.93385304
 47,2.4587574293\H,0,1.8751437631,0.43017995,2.2912523862\H,0,3.6149294
 183,-2.2441494344,3.2910139301\H,0,5.9380431909,-0.545120587,1.2912453
 392\\Version=ES64L-G09RevE.01\State=1-A\HF=-1308.5588652\RMSD=7.519e-0
 9\PG=C01 [X(C26H21B1N1O3)]\\@


 BETTER TO HUNT IN FIELDS, FOR HEALTH UNBOUGHT
 THAN FEE THE DOCTOR FOR A NAUSEOUS DRAUGHT.
 THE WISE, FOR CURE, ON EXERCISE DEPEND;
 GOD NEVER MADE HIS WORK FOR MAN TO MEND.
     -- JOHN DRYDEN (1631-1700)
 Job cpu time:       2 days 21 hours  6 minutes 57.4 seconds.
 File lengths (MBytes):  RWF=   5851 Int=      0 D2E=      0 Chk=   1053 Scr=      1
 Normal termination of Gaussian 09 at Thu Feb 25 05:32:51 2021.
