
                                 *****************
                                 * O   R   C   A *
                                 *****************

                                            #,                                       
                                            ###                                      
                                            ####                                     
                                            #####                                    
                                            ######                                   
                                           ########,                                 
                                     ,,################,,,,,                         
                               ,,#################################,,                 
                          ,,##########################################,,             
                       ,#########################################, ''#####,          
                    ,#############################################,,   '####,        
                  ,##################################################,,,,####,       
                ,###########''''           ''''###############################       
              ,#####''   ,,,,##########,,,,          '''####'''          '####       
            ,##' ,,,,###########################,,,                        '##       
           ' ,,###''''                  '''############,,,                           
         ,,##''                                '''############,,,,        ,,,,,,###''
      ,#''                                            '''#######################'''  
     '                                                          ''''####''''         
             ,#######,   #######,   ,#######,      ##                                
            ,#'     '#,  ##    ##  ,#'     '#,    #''#        ######   ,####,        
            ##       ##  ##   ,#'  ##            #'  '#       #        #'  '#        
            ##       ##  #######   ##           ,######,      #####,   #    #        
            '#,     ,#'  ##    ##  '#,     ,#' ,#      #,         ##   #,  ,#        
             '#######'   ##     ##  '#######'  #'      '#     #####' # '####'        



                  #######################################################
                  #                        -***-                        #
                  #          Department of theory and spectroscopy      #
                  #    Directorship and core code : Frank Neese         #
                  #        Max Planck Institute fuer Kohlenforschung    #
                  #                Kaiser Wilhelm Platz 1               #
                  #                 D-45470 Muelheim/Ruhr               #
                  #                      Germany                        #
                  #                                                     #
                  #                  All rights reserved                #
                  #                        -***-                        #
                  #######################################################


                         Program Version 5.0.2 -  RELEASE  -


 With contributions from (in alphabetic order):
   Daniel Aravena         : Magnetic Suceptibility
   Michael Atanasov       : Ab Initio Ligand Field Theory (pilot matlab implementation)
   Alexander A. Auer      : GIAO ZORA, VPT2 properties, NMR spectrum
   Ute Becker             : Parallelization
   Giovanni Bistoni       : ED, misc. LED, open-shell LED, HFLD
   Martin Brehm           : Molecular dynamics
   Dmytro Bykov           : SCF Hessian
   Vijay G. Chilkuri      : MRCI spin determinant printing, contributions to CSF-ICE
   Dipayan Datta          : RHF DLPNO-CCSD density
   Achintya Kumar Dutta   : EOM-CC, STEOM-CC
   Dmitry Ganyushin       : Spin-Orbit,Spin-Spin,Magnetic field MRCI
   Miquel Garcia          : C-PCM and meta-GGA Hessian, CC/C-PCM, Gaussian charge scheme
   Yang Guo               : DLPNO-NEVPT2, F12-NEVPT2, CIM, IAO-localization
   Andreas Hansen         : Spin unrestricted coupled pair/coupled cluster methods
   Benjamin Helmich-Paris : MC-RPA, TRAH-SCF, COSX integrals
   Lee Huntington         : MR-EOM, pCC
   Robert Izsak           : Overlap fitted RIJCOSX, COSX-SCS-MP3, EOM
   Marcus Kettner         : VPT2
   Christian Kollmar      : KDIIS, OOCD, Brueckner-CCSD(T), CCSD density, CASPT2, CASPT2-K
   Simone Kossmann        : Meta GGA functionals, TD-DFT gradient, OOMP2, MP2 Hessian
   Martin Krupicka        : Initial AUTO-CI
   Lucas Lang             : DCDCAS
   Marvin Lechner         : AUTO-CI (C++ implementation), FIC-MRCC
   Dagmar Lenk            : GEPOL surface, SMD
   Dimitrios Liakos       : Extrapolation schemes; Compound Job, initial MDCI parallelization
   Dimitrios Manganas     : Further ROCIS development; embedding schemes
   Dimitrios Pantazis     : SARC Basis sets
   Anastasios Papadopoulos: AUTO-CI, single reference methods and gradients
   Taras Petrenko         : DFT Hessian,TD-DFT gradient, ASA, ECA, R-Raman, ABS, FL, XAS/XES, NRVS
   Peter Pinski           : DLPNO-MP2, DLPNO-MP2 Gradient
   Christoph Reimann      : Effective Core Potentials
   Marius Retegan         : Local ZFS, SOC
   Christoph Riplinger    : Optimizer, TS searches, QM/MM, DLPNO-CCSD(T), (RO)-DLPNO pert. Triples
   Tobias Risthaus        : Range-separated hybrids, TD-DFT gradient, RPA, STAB
   Michael Roemelt        : Original ROCIS implementation
   Masaaki Saitow         : Open-shell DLPNO-CCSD energy and density
   Barbara Sandhoefer     : DKH picture change effects
   Avijit Sen             : IP-ROCIS
   Kantharuban Sivalingam : CASSCF convergence, NEVPT2, FIC-MRCI
   Bernardo de Souza      : ESD, SOC TD-DFT
   Georgi Stoychev        : AutoAux, RI-MP2 NMR, DLPNO-MP2 response
   Willem Van den Heuvel  : Paramagnetic NMR
   Boris Wezisla          : Elementary symmetry handling
   Frank Wennmohs         : Technical directorship


 We gratefully acknowledge several colleagues who have allowed us to
 interface, adapt or use parts of their codes:
   Stefan Grimme, W. Hujo, H. Kruse, P. Pracht,  : VdW corrections, initial TS optimization,
                  C. Bannwarth, S. Ehlert          DFT functionals, gCP, sTDA/sTD-DF
   Ed Valeev, F. Pavosevic, A. Kumar             : LibInt (2-el integral package), F12 methods
   Garnet Chan, S. Sharma, J. Yang, R. Olivares  : DMRG
   Ulf Ekstrom                                   : XCFun DFT Library
   Mihaly Kallay                                 : mrcc  (arbitrary order and MRCC methods)
   Jiri Pittner, Ondrej Demel                    : Mk-CCSD
   Frank Weinhold                                : gennbo (NPA and NBO analysis)
   Christopher J. Cramer and Donald G. Truhlar   : smd solvation model
   Lars Goerigk                                  : TD-DFT with DH, B97 family of functionals
   V. Asgeirsson, H. Jonsson                     : NEB implementation
   FAccTs GmbH                                   : IRC, NEB, NEB-TS, DLPNO-Multilevel, CI-OPT
                                                   MM, QMMM, 2- and 3-layer-ONIOM, Crystal-QMMM,
                                                   LR-CPCM, SF, NACMEs, symmetry and pop. for TD-DFT,
                                                   nearIR, NL-DFT gradient (VV10), updates on ESD,
                                                   ML-optimized integration grids
   S Lehtola, MJT Oliveira, MAL Marques          : LibXC Library
   Liviu Ungur et al                             : ANISO software


 Your calculation uses the libint2 library for the computation of 2-el integrals
 For citations please refer to: http://libint.valeyev.net

 Your ORCA version has been built with support for libXC version: 5.1.0
 For citations please refer to: https://tddft.org/programs/libxc/

 This ORCA versions uses:
   CBLAS   interface :  Fast vector & matrix operations
   LAPACKE interface :  Fast linear algebra routines
   SCALAPACK package :  Parallel linear algebra routines
   Shared memory     :  Shared parallel matrices
   BLAS/LAPACK       :  OpenBLAS 0.3.15  USE64BITINT DYNAMIC_ARCH NO_AFFINITY Zen SINGLE_THREADED
        Core in use  :  Zen
   Copyright (c) 2011-2014, The OpenBLAS Project


Your calculation utilizes the atom-pairwise dispersion correction
with the Becke-Johnson damping scheme (D3BJ)
Cite in your paper:
S.Grimme, S.Ehrlich, L.Goerigk, J Comput Chem, (2011), 32, 1456–1465 
S.Grimme, J.Antony, S.Ehrlich and H.Krieg, J.Chem.Phys., 132, (2010), 154104 
   

Your calculation utilizes the SMD solvation module
Please cite in your paper:
A.V. Marenich, C.J. Cramer, D.G. Truhlar J. Phys. Chem. B, 113, (2009), 6378 

================================================================================

----- Orbital basis set information -----
Your calculation utilizes the basis: def2-TZVP
   F. Weigend and R. Ahlrichs, Phys. Chem. Chem. Phys. 7, 3297 (2005).

----- AuxJ basis set information -----
Your calculation utilizes the auxiliary basis: def2/J
   F. Weigend, Phys. Chem. Chem. Phys. 8, 1057 (2006).

----- AuxC basis set information -----
Your calculation utilizes the auxiliary basis: def2-TZVP/C
  H-La, Hf-Rn : A. Hellweg, C. Hattig, S. Hofener and W. Klopper, Theor. Chem. Acc. 117, 587 (2007).
        Ce-Lu : J. Chmela and M. E. Harding, Mol. Phys. (2018).

================================================================================
                                        WARNINGS
                       Please study these warnings very carefully!
================================================================================

INFO   : Checking CIS options ...
  ===> : (D) CORRECTION FOUND - SETTING MODE=3
  ===> : JK MODE FOUND - ACTIVATING RI-MP2 CODE
  ===> : MP2 AND CIS FOUND - CHECKING
WARNING: CIS(D) and MP2 runs must have the same orbital window
  ===> : adjusting orbital windows

WARNING: No MP2 level density has been requested!
         To caclulate MP2 level properties use
         %mp2 Density relaxed end
         or
         %mp2 Density unrelaxed end
         Otherwise for double-hybrid DFT only the energy is correct!

WARNING: The frozen-core approximation is turned on by default for 
         the MP2 part of double-hybrid DFT.

WARNING: CIS/ROCIS methods need fully converged wavefunctions
  ===> : Setting SCFConvForced true
         You can overwrite this default with %scf ConvForced false 


INFO   : the flag for use of the SHARK integral package has been found!

================================================================================
                                       INPUT FILE
================================================================================
NAME = BOH-Acr_o_M06L_def2TZVP_coords.inp
|  1> %maxcore 3200
|  2> %pal
|  3>  nprocs= 8
|  4> end
|  5> ! RI-B2PLYP D3BJ def2-TZVP def2/J def2-TZVP/C RIJCOSX CPCM TightSCF
|  6> %TDDFT DCORR 4
|  7>    NROOTS   30
|  8> 
|  9>    TDA      FALSE
| 10> END
| 11> 
| 12> %CPCM
| 13>    SMD          TRUE
| 14>    SMDsolvent   "ACETONITRILE"
| 15> END
| 16>    
| 17> 
| 18> * xyz 1 1
| 19> C                  -0.68199200    3.69212300    0.45109500
| 20> C                  -1.29772600    2.49705700    0.19805900
| 21> C                  -0.52563000    1.34919600   -0.05376000
| 22> C                   0.89842500    1.44364400   -0.07124300
| 23> C                   1.48730600    2.69973600    0.22582500
| 24> C                   0.71951400    3.79714800    0.47862600
| 25> C                   1.67020700    0.30031700   -0.34817000
| 26> C                   1.02104700   -0.92499200   -0.59013700
| 27> C                  -0.40290800   -0.99406800   -0.52766600
| 28> C                  -1.05201400   -2.22403800   -0.73464100
| 29> H                  -2.12827900   -2.27930000   -0.67436000
| 30> C                  -0.31925200   -3.34527600   -1.01281100
| 31> C                   1.08133000   -3.29123600   -1.11426000
| 32> C                   1.73155300   -2.10992900   -0.91270000
| 33> H                  -1.28875100    4.56712900    0.64432100
| 34> H                  -2.37503500    2.42932400    0.19516200
| 35> H                   2.56514000    2.77122800    0.25352500
| 36> H                   1.18453900    4.74692900    0.70456400
| 37> H                  -0.83245700   -4.28512000   -1.16891500
| 38> H                   1.63911800   -4.18408000   -1.36145400
| 39> H                   2.80673700   -2.06011500   -1.01067400
| 40> N                  -1.12546700    0.13962700   -0.27174000
| 41> C                   3.14569700    0.38732300   -0.39986500
| 42> C                   3.95586200   -0.31238100    0.51514400
| 43> C                   3.72463900    1.14686100   -1.41665300
| 44> C                   5.34093300   -0.22350900    0.35367000
| 45> C                   5.10131300    1.21534100   -1.54795700
| 46> C                   5.91389100    0.52892000   -0.65895800
| 47> H                   5.53564100    1.80205000   -2.34726300
| 48> H                   3.08512900    1.66910700   -2.11793500
| 49> C                  -2.56951200    0.05352900   -0.22339900
| 50> C                  -3.19860800   -0.18013700    0.98472300
| 51> C                  -3.30208600    0.20321600   -1.39253900
| 52> C                  -4.58111200   -0.26793400    1.03720400
| 53> H                  -2.60962600   -0.29450100    1.88601000
| 54> C                  -4.67740100    0.11745400   -1.34630600
| 55> H                  -2.79205500    0.38478400   -2.33002600
| 56> C                  -5.32696000   -0.11883200   -0.13164000
| 57> H                  -5.06612300   -0.45243400    1.98456100
| 58> H                  -5.26946900    0.23067900   -2.24474200
| 59> O                  -6.67156200   -0.18670200   -0.18612200
| 60> C                  -7.36963600   -0.42721000    1.02706200
| 61> H                  -8.42499100   -0.44121900    0.77034100
| 62> H                  -7.09260400   -1.38954200    1.46301400
| 63> H                  -7.18741700    0.36481100    1.75663300
| 64> H                   6.99099600    0.57925300   -0.75547000
| 65> B                   3.39754400   -1.14348300    1.72153900
| 66> O                   2.31006200   -0.79208700    2.47381000
| 67> O                   4.06471900   -2.28323200    2.05943000
| 68> H                   1.93286500    0.06571800    2.24961400
| 69> H                   3.68938000   -2.70780500    2.83994100
| 70> H                   5.98077500   -0.75465100    1.04846800
| 71> *
| 72> 
| 73> 
| 74>                          ****END OF INPUT****
================================================================================

                       ****************************
                       * Single Point Calculation *
                       ****************************

---------------------------------
CARTESIAN COORDINATES (ANGSTROEM)
---------------------------------
  C     -0.681992    3.692123    0.451095
  C     -1.297726    2.497057    0.198059
  C     -0.525630    1.349196   -0.053760
  C      0.898425    1.443644   -0.071243
  C      1.487306    2.699736    0.225825
  C      0.719514    3.797148    0.478626
  C      1.670207    0.300317   -0.348170
  C      1.021047   -0.924992   -0.590137
  C     -0.402908   -0.994068   -0.527666
  C     -1.052014   -2.224038   -0.734641
  H     -2.128279   -2.279300   -0.674360
  C     -0.319252   -3.345276   -1.012811
  C      1.081330   -3.291236   -1.114260
  C      1.731553   -2.109929   -0.912700
  H     -1.288751    4.567129    0.644321
  H     -2.375035    2.429324    0.195162
  H      2.565140    2.771228    0.253525
  H      1.184539    4.746929    0.704564
  H     -0.832457   -4.285120   -1.168915
  H      1.639118   -4.184080   -1.361454
  H      2.806737   -2.060115   -1.010674
  N     -1.125467    0.139627   -0.271740
  C      3.145697    0.387323   -0.399865
  C      3.955862   -0.312381    0.515144
  C      3.724639    1.146861   -1.416653
  C      5.340933   -0.223509    0.353670
  C      5.101313    1.215341   -1.547957
  C      5.913891    0.528920   -0.658958
  H      5.535641    1.802050   -2.347263
  H      3.085129    1.669107   -2.117935
  C     -2.569512    0.053529   -0.223399
  C     -3.198608   -0.180137    0.984723
  C     -3.302086    0.203216   -1.392539
  C     -4.581112   -0.267934    1.037204
  H     -2.609626   -0.294501    1.886010
  C     -4.677401    0.117454   -1.346306
  H     -2.792055    0.384784   -2.330026
  C     -5.326960   -0.118832   -0.131640
  H     -5.066123   -0.452434    1.984561
  H     -5.269469    0.230679   -2.244742
  O     -6.671562   -0.186702   -0.186122
  C     -7.369636   -0.427210    1.027062
  H     -8.424991   -0.441219    0.770341
  H     -7.092604   -1.389542    1.463014
  H     -7.187417    0.364811    1.756633
  H      6.990996    0.579253   -0.755470
  B      3.397544   -1.143483    1.721539
  O      2.310062   -0.792087    2.473810
  O      4.064719   -2.283232    2.059430
  H      1.932865    0.065718    2.249614
  H      3.689380   -2.707805    2.839941
  H      5.980775   -0.754651    1.048468

----------------------------
CARTESIAN COORDINATES (A.U.)
----------------------------
  NO LB      ZA    FRAG     MASS         X           Y           Z
   0 C     6.0000    0    12.011   -1.288778    6.977101    0.852446
   1 C     6.0000    0    12.011   -2.452347    4.718754    0.374277
   2 C     6.0000    0    12.011   -0.993297    2.549611   -0.101592
   3 C     6.0000    0    12.011    1.697777    2.728092   -0.134630
   4 C     6.0000    0    12.011    2.810601    5.101762    0.426747
   5 C     6.0000    0    12.011    1.359684    7.175570    0.904472
   6 C     6.0000    0    12.011    3.156234    0.567517   -0.657946
   7 C     6.0000    0    12.011    1.929499   -1.747982   -1.115197
   8 C     6.0000    0    12.011   -0.761386   -1.878516   -0.997144
   9 C     6.0000    0    12.011   -1.988018   -4.202823   -1.388270
  10 H     1.0000    0     1.008   -4.021864   -4.307253   -1.274356
  11 C     6.0000    0    12.011   -0.603299   -6.321655   -1.913935
  12 C     6.0000    0    12.011    2.043418   -6.219535   -2.105646
  13 C     6.0000    0    12.011    3.272161   -3.987188   -1.724753
  14 H     1.0000    0     1.008   -2.435386    8.630623    1.217590
  15 H     1.0000    0     1.008   -4.488166    4.590757    0.368803
  16 H     1.0000    0     1.008    4.847412    5.236862    0.479093
  17 H     1.0000    0     1.008    2.238454    8.970396    1.331433
  18 H     1.0000    0     1.008   -1.573116   -8.097703   -2.208929
  19 H     1.0000    0     1.008    3.097484   -7.906765   -2.572775
  20 H     1.0000    0     1.008    5.303964   -3.893053   -1.909897
  21 N     7.0000    0    14.007   -2.126824    0.263857   -0.513514
  22 C     6.0000    0    12.011    5.944506    0.731934   -0.755635
  23 C     6.0000    0    12.011    7.475496   -0.590315    0.973481
  24 C     6.0000    0    12.011    7.038548    2.167253   -2.677086
  25 C     6.0000    0    12.011   10.092901   -0.422371    0.668339
  26 C     6.0000    0    12.011    9.640084    2.296662   -2.925215
  27 C     6.0000    0    12.011   11.175634    0.999514   -1.245250
  28 H     1.0000    0     1.008   10.460845    3.405381   -4.435684
  29 H     1.0000    0     1.008    5.830049    3.154155   -4.002317
  30 C     6.0000    0    12.011   -4.855674    0.101155   -0.422163
  31 C     6.0000    0    12.011   -6.044493   -0.340410    1.860857
  32 C     6.0000    0    12.011   -6.240038    0.384023   -2.631517
  33 C     6.0000    0    12.011   -8.657047   -0.506322    1.960032
  34 H     1.0000    0     1.008   -4.931478   -0.556526    3.564042
  35 C     6.0000    0    12.011   -8.839007    0.221956   -2.544150
  36 H     1.0000    0     1.008   -5.276219    0.727136   -4.403111
  37 C     6.0000    0    12.011  -10.066496   -0.224560   -0.248764
  38 H     1.0000    0     1.008   -9.573585   -0.854976    3.750277
  39 H     1.0000    0     1.008   -9.957853    0.435920   -4.241948
  40 O     8.0000    0    15.999  -12.607425   -0.352816   -0.351720
  41 C     6.0000    0    12.011  -13.926594   -0.807310    1.940866
  42 H     1.0000    0     1.008  -15.920926   -0.833783    1.455734
  43 H     1.0000    0     1.008  -13.403079   -2.625854    2.764696
  44 H     1.0000    0     1.008  -13.582250    0.689393    3.319555
  45 H     1.0000    0     1.008   13.211068    1.094630   -1.427631
  46 B     5.0000    0    10.810    6.420428   -2.160870    3.253237
  47 O     8.0000    0    15.999    4.365385   -1.496828    4.674823
  48 O     8.0000    0    15.999    7.681206   -4.314683    3.891759
  49 H     1.0000    0     1.008    3.652586    0.124189    4.251154
  50 H     1.0000    0     1.008    6.971918   -5.117010    5.366711
  51 H     1.0000    0     1.008   11.302027   -1.426084    1.981317

--------------------------------
INTERNAL COORDINATES (ANGSTROEM)
--------------------------------
 C      0   0   0     0.000000000000     0.00000000     0.00000000
 C      1   0   0     1.367968684001     0.00000000     0.00000000
 C      2   1   0     1.406104518625   119.94256604     0.00000000
 C      3   2   1     1.427290693243   119.73782650   358.70605192
 C      4   3   2     1.418730891060   118.04449776     2.61608894
 C      5   4   3     1.362984225371   121.18955722   357.91492177
 C      4   3   2     1.406958651767   119.73175845   181.19634962
 C      7   4   3     1.407600397901   119.22490766   359.32795417
 C      8   7   4     1.426997533860   119.65728326   358.89008078
 C      9   8   7     1.406059547374   119.77298766   181.64849149
 H     10   9   8     1.079367424851   119.79430341   179.18100848
 C     10   9   8     1.368025347056   119.97457090   359.11106295
 C     12  10   9     1.405290774155   121.13133223   359.16937659
 C     13  12  10     1.363415788224   119.86482333     1.05497068
 H      1   2   3     1.082186800508   119.14479786   180.06809872
 H      2   1   3     1.079440055482   120.30038034   179.71549829
 H      5   4   3     1.080557507780   118.55322476   177.60318202
 H      6   5   4     1.081378832061   120.24380472   179.92778306
 H     12  10   9     1.082152750390   119.15220051   179.94743913
 H     13  12  10     1.081389261513   119.92266534   181.65953717
 H     14  13  12     1.080787200668   120.06405311   181.30668103
 N      3   2   1     1.367617224493   120.64444586   178.17747938
 C      7   4   3     1.478956780018   120.41996402   178.63471972
 C     23   7   4     1.408259381265   121.46690768   116.40848672
 C     23   7   4     1.394965823865   118.13553377   294.06629063
 C     24  23   7     1.397280845106   117.61835178   177.01454496
 C     25  23   7     1.384616030924   120.57679000   182.84339929
 C     26  24  23     1.385584979779   121.93091525     0.44379891
 H     27  25  23     1.082477872245   119.72009138   179.47391444
 H     25  23   7     1.083286835580   119.29792343     1.62517338
 C     22   3   2     1.447416899138   119.00361136   359.25050675
 C     31  22   3     1.381998677154   119.56433205   272.21286873
 C     31  22   3     1.387789322284   119.47800171    92.39431184
 C     32  31  22     1.386282755640   119.85251232   180.20393385
 H     32  31  22     1.082726732463   119.86293891     0.16301902
 C     33  31  22     1.378761748874   119.44535595   179.82451456
 H     33  31  22     1.082580451862   119.92955300   359.87610846
 C     34  32  31     1.394531083140   119.66169769   359.97017810
 H     34  32  31     1.080167211857   119.45969164   179.89527203
 H     36  33  31     1.081920359058   120.76479408   180.00898282
 O     38  34  32     1.347415735261   124.20988384   180.01024485
 C     41  38  34     1.420199572383   117.67757801   359.92573619
 H     42  41  38     1.086221018001   106.13230969   179.78993546
 H     42  41  38     1.092192177939   111.43880794   298.60524799
 H     42  41  38     1.092142331586   111.45826739    60.96945792
 H     28  26  24     1.082590946784   120.12038506   179.84346200
 B     24  23   7     1.567749476017   123.95221503   355.08551333
 O     47  24  23     1.368213399504   124.74995921   323.23055826
 O     47  24  23     1.363202329629   117.36562381   144.70937189
 H     48  47  24     0.963520026388   114.32233126   355.45013505
 H     49  47  24     0.964540832921   112.21920973   176.72053621
 H     26  24  23     1.083629950644   118.68739293   179.96491663

---------------------------
INTERNAL COORDINATES (A.U.)
---------------------------
 C      0   0   0     0.000000000000     0.00000000     0.00000000
 C      1   0   0     2.585086172543     0.00000000     0.00000000
 C      2   1   0     2.657152455871   119.94256604     0.00000000
 C      3   2   1     2.697188523724   119.73782650   358.70605192
 C      4   3   2     2.681012841838   118.04449776     2.61608894
 C      5   4   3     2.575666910805   121.18955722   357.91492177
 C      4   3   2     2.658766533591   119.73175845   181.19634962
 C      7   4   3     2.659979258031   119.22490766   359.32795417
 C      8   7   4     2.696634532776   119.65728326   358.89008078
 C      9   8   7     2.657067472522   119.77298766   181.64849149
 H     10   9   8     2.039708830845   119.79430341   179.18100848
 C     10   9   8     2.585193250199   119.97457090   359.11106295
 C     12  10   9     2.655614701679   121.13133223   359.16937659
 C     13  12  10     2.576482446407   119.86482333     1.05497068
 H      1   2   3     2.045036678704   119.14479786   180.06809872
 H      2   1   3     2.039846082846   120.30038034   179.71549829
 H      5   4   3     2.041957761657   118.55322476   177.60318202
 H      6   5   4     2.043509839615   120.24380472   179.92778306
 H     12  10   9     2.044972333307   119.15220051   179.94743913
 H     13  12  10     2.043529548423   119.92266534   181.65953717
 H     14  13  12     2.042391818310   120.06405311   181.30668103
 N      3   2   1     2.584422010325   120.64444586   178.17747938
 C      7   4   3     2.794823278140   120.41996402   178.63471972
 C     23   7   4     2.661224556117   121.46690768   116.40848672
 C     23   7   4     2.636103373285   118.13553377   294.06629063
 C     24  23   7     2.640478129425   117.61835178   177.01454496
 C     25  23   7     2.616545099084   120.57679000   182.84339929
 C     26  24  23     2.618376147057   121.93091525     0.44379891
 H     27  25  23     2.045586724574   119.72009138   179.47391444
 H     25  23   7     2.047115443728   119.29792343     1.62517338
 C     22   3   2     2.735221540980   119.00361136   359.25050675
 C     31  22   3     2.611599017263   119.56433205   272.21286873
 C     31  22   3     2.622541750697   119.47800171    92.39431184
 C     32  31  22     2.619694752338   119.85251232   180.20393385
 H     32  31  22     2.046057002230   119.86293891     0.16301902
 C     33  31  22     2.605482109298   119.44535595   179.82451456
 H     33  31  22     2.045780571956   119.92955300   359.87610846
 C     34  32  31     2.635281832375   119.66169769   359.97017810
 H     34  32  31     2.041220209250   119.45969164   179.89527203
 H     36  33  31     2.044533177334   120.76479408   180.00898282
 O     38  34  32     2.546246728179   124.20988384   180.01024485
 C     41  38  34     2.683788247315   117.67757801   359.92573619
 H     42  41  38     2.052660244931   106.13230969   179.78993546
 H     42  41  38     2.063944101916   111.43880794   298.60524799
 H     42  41  38     2.063849905961   111.45826739    60.96945792
 H     28  26  24     2.045800404484   120.12038506   179.84346200
 B     24  23   7     2.962617156272   123.95221503   355.08551333
 O     47  24  23     2.585548617823   124.74995921   323.23055826
 O     47  24  23     2.576079068123   117.36562381   144.70937189
 H     48  47  24     1.820788974421   114.32233126   355.45013505
 H     49  47  24     1.822718019204   112.21920973   176.72053621
 H     26  24  23     2.047763837231   118.68739293   179.96491663

---------------------
BASIS SET INFORMATION
---------------------
There are 5 groups of distinct atoms

 Group   1 Type C   : 11s6p2d1f contracted to 5s3p2d1f pattern {62111/411/11/1}
 Group   2 Type H   : 5s1p contracted to 3s1p pattern {311/1}
 Group   3 Type N   : 11s6p2d1f contracted to 5s3p2d1f pattern {62111/411/11/1}
 Group   4 Type O   : 11s6p2d1f contracted to 5s3p2d1f pattern {62111/411/11/1}
 Group   5 Type B   : 11s6p2d1f contracted to 5s3p2d1f pattern {62111/411/11/1}

Atom   0C    basis set group =>   1
Atom   1C    basis set group =>   1
Atom   2C    basis set group =>   1
Atom   3C    basis set group =>   1
Atom   4C    basis set group =>   1
Atom   5C    basis set group =>   1
Atom   6C    basis set group =>   1
Atom   7C    basis set group =>   1
Atom   8C    basis set group =>   1
Atom   9C    basis set group =>   1
Atom  10H    basis set group =>   2
Atom  11C    basis set group =>   1
Atom  12C    basis set group =>   1
Atom  13C    basis set group =>   1
Atom  14H    basis set group =>   2
Atom  15H    basis set group =>   2
Atom  16H    basis set group =>   2
Atom  17H    basis set group =>   2
Atom  18H    basis set group =>   2
Atom  19H    basis set group =>   2
Atom  20H    basis set group =>   2
Atom  21N    basis set group =>   3
Atom  22C    basis set group =>   1
Atom  23C    basis set group =>   1
Atom  24C    basis set group =>   1
Atom  25C    basis set group =>   1
Atom  26C    basis set group =>   1
Atom  27C    basis set group =>   1
Atom  28H    basis set group =>   2
Atom  29H    basis set group =>   2
Atom  30C    basis set group =>   1
Atom  31C    basis set group =>   1
Atom  32C    basis set group =>   1
Atom  33C    basis set group =>   1
Atom  34H    basis set group =>   2
Atom  35C    basis set group =>   1
Atom  36H    basis set group =>   2
Atom  37C    basis set group =>   1
Atom  38H    basis set group =>   2
Atom  39H    basis set group =>   2
Atom  40O    basis set group =>   4
Atom  41C    basis set group =>   1
Atom  42H    basis set group =>   2
Atom  43H    basis set group =>   2
Atom  44H    basis set group =>   2
Atom  45H    basis set group =>   2
Atom  46B    basis set group =>   5
Atom  47O    basis set group =>   4
Atom  48O    basis set group =>   4
Atom  49H    basis set group =>   2
Atom  50H    basis set group =>   2
Atom  51H    basis set group =>   2
---------------------------------
AUXILIARY/J BASIS SET INFORMATION
---------------------------------
There are 5 groups of distinct atoms

 Group   1 Type C   : 12s5p4d2f1g contracted to 6s4p3d1f1g pattern {711111/2111/211/2/1}
 Group   2 Type H   : 5s2p1d contracted to 3s1p1d pattern {311/2/1}
 Group   3 Type N   : 12s5p4d2f1g contracted to 6s4p3d1f1g pattern {711111/2111/211/2/1}
 Group   4 Type O   : 12s5p4d2f1g contracted to 6s4p3d1f1g pattern {711111/2111/211/2/1}
 Group   5 Type B   : 12s5p4d2f1g contracted to 6s4p3d1f1g pattern {711111/2111/211/2/1}

Atom   0C    basis set group =>   1
Atom   1C    basis set group =>   1
Atom   2C    basis set group =>   1
Atom   3C    basis set group =>   1
Atom   4C    basis set group =>   1
Atom   5C    basis set group =>   1
Atom   6C    basis set group =>   1
Atom   7C    basis set group =>   1
Atom   8C    basis set group =>   1
Atom   9C    basis set group =>   1
Atom  10H    basis set group =>   2
Atom  11C    basis set group =>   1
Atom  12C    basis set group =>   1
Atom  13C    basis set group =>   1
Atom  14H    basis set group =>   2
Atom  15H    basis set group =>   2
Atom  16H    basis set group =>   2
Atom  17H    basis set group =>   2
Atom  18H    basis set group =>   2
Atom  19H    basis set group =>   2
Atom  20H    basis set group =>   2
Atom  21N    basis set group =>   3
Atom  22C    basis set group =>   1
Atom  23C    basis set group =>   1
Atom  24C    basis set group =>   1
Atom  25C    basis set group =>   1
Atom  26C    basis set group =>   1
Atom  27C    basis set group =>   1
Atom  28H    basis set group =>   2
Atom  29H    basis set group =>   2
Atom  30C    basis set group =>   1
Atom  31C    basis set group =>   1
Atom  32C    basis set group =>   1
Atom  33C    basis set group =>   1
Atom  34H    basis set group =>   2
Atom  35C    basis set group =>   1
Atom  36H    basis set group =>   2
Atom  37C    basis set group =>   1
Atom  38H    basis set group =>   2
Atom  39H    basis set group =>   2
Atom  40O    basis set group =>   4
Atom  41C    basis set group =>   1
Atom  42H    basis set group =>   2
Atom  43H    basis set group =>   2
Atom  44H    basis set group =>   2
Atom  45H    basis set group =>   2
Atom  46B    basis set group =>   5
Atom  47O    basis set group =>   4
Atom  48O    basis set group =>   4
Atom  49H    basis set group =>   2
Atom  50H    basis set group =>   2
Atom  51H    basis set group =>   2
---------------------------------
AUXILIARY/C BASIS SET INFORMATION
---------------------------------
There are 5 groups of distinct atoms

 Group   1 Type C   : 8s6p5d3f1g contracted to 8s6p4d3f1g pattern {11111111/111111/2111/111/1}
 Group   2 Type H   : 4s3p2d contracted to 4s2p1d pattern {1111/21/2}
 Group   3 Type N   : 8s6p5d3f1g contracted to 8s6p4d3f1g pattern {11111111/111111/2111/111/1}
 Group   4 Type O   : 8s6p5d3f1g contracted to 8s6p4d3f1g pattern {11111111/111111/2111/111/1}
 Group   5 Type B   : 8s6p5d3f1g contracted to 8s6p4d3f1g pattern {11111111/111111/2111/111/1}

Atom   0C    basis set group =>   1
Atom   1C    basis set group =>   1
Atom   2C    basis set group =>   1
Atom   3C    basis set group =>   1
Atom   4C    basis set group =>   1
Atom   5C    basis set group =>   1
Atom   6C    basis set group =>   1
Atom   7C    basis set group =>   1
Atom   8C    basis set group =>   1
Atom   9C    basis set group =>   1
Atom  10H    basis set group =>   2
Atom  11C    basis set group =>   1
Atom  12C    basis set group =>   1
Atom  13C    basis set group =>   1
Atom  14H    basis set group =>   2
Atom  15H    basis set group =>   2
Atom  16H    basis set group =>   2
Atom  17H    basis set group =>   2
Atom  18H    basis set group =>   2
Atom  19H    basis set group =>   2
Atom  20H    basis set group =>   2
Atom  21N    basis set group =>   3
Atom  22C    basis set group =>   1
Atom  23C    basis set group =>   1
Atom  24C    basis set group =>   1
Atom  25C    basis set group =>   1
Atom  26C    basis set group =>   1
Atom  27C    basis set group =>   1
Atom  28H    basis set group =>   2
Atom  29H    basis set group =>   2
Atom  30C    basis set group =>   1
Atom  31C    basis set group =>   1
Atom  32C    basis set group =>   1
Atom  33C    basis set group =>   1
Atom  34H    basis set group =>   2
Atom  35C    basis set group =>   1
Atom  36H    basis set group =>   2
Atom  37C    basis set group =>   1
Atom  38H    basis set group =>   2
Atom  39H    basis set group =>   2
Atom  40O    basis set group =>   4
Atom  41C    basis set group =>   1
Atom  42H    basis set group =>   2
Atom  43H    basis set group =>   2
Atom  44H    basis set group =>   2
Atom  45H    basis set group =>   2
Atom  46B    basis set group =>   5
Atom  47O    basis set group =>   4
Atom  48O    basis set group =>   4
Atom  49H    basis set group =>   2
Atom  50H    basis set group =>   2
Atom  51H    basis set group =>   2


           ************************************************************
           *        Program running with 8 parallel MPI-processes     *
           *              working on a common directory               *
           ************************************************************
------------------------------------------------------------------------------
                           ORCA GTO INTEGRAL CALCULATION
                           -- RI-GTO INTEGRALS CHOSEN --
------------------------------------------------------------------------------
------------------------------------------------------------------------------
                   ___                                                        
                  /   \      - P O W E R E D   B Y -                         
                 /     \                                                     
                 |  |  |   _    _      __       _____    __    __             
                 |  |  |  | |  | |    /  \     |  _  \  |  |  /  |          
                  \  \/   | |  | |   /    \    | | | |  |  | /  /          
                 / \  \   | |__| |  /  /\  \   | |_| |  |  |/  /          
                |  |  |   |  __  | /  /__\  \  |    /   |      \           
                |  |  |   | |  | | |   __   |  |    \   |  |\   \          
                \     /   | |  | | |  |  |  |  | |\  \  |  | \   \       
                 \___/    |_|  |_| |__|  |__|  |_| \__\ |__|  \__/        
                                                                              
                      - O R C A' S   B I G   F R I E N D -                    
                                      &                                       
                       - I N T E G R A L  F E E D E R -                       
                                                                              
 v1 FN, 2020, v2 2021                                                         
------------------------------------------------------------------------------


Reading SHARK input file BOH-Acr_o_M06L_def2TZVP_coords.SHARKINP.tmp ... ok
----------------------
SHARK INTEGRAL PACKAGE
----------------------

Number of atoms                             ...     52
Number of basis functions                   ...   1087
Number of shells                            ...    425
Maximum angular momentum                    ...      3
Integral batch strategy                     ... SHARK/LIBINT Hybrid
RI-J (if used) integral strategy            ... SPLIT-RIJ (Revised 2003 algorithm where possible)
Printlevel                                  ...      1
Contraction scheme used                     ... SEGMENTED contraction
Coulomb Range Separation                    ... NOT USED
Exchange Range Separation                   ... NOT USED
Finite Nucleus Model                        ... NOT USED
Auxiliary Coulomb fitting basis             ... AVAILABLE
   # of basis functions in Aux-J            ...   1750
   # of shells in Aux-J                     ...    570
   Maximum angular momentum in Aux-J        ...      4
Auxiliary J/K fitting basis                 ... NOT available
Auxiliary Correlation fitting basis         ... AVAILABLE
   # of basis functions in Aux-C            ...   2671
   # of shells in Aux-C                     ...    829
   Maximum angular momentum in Aux-C        ...      4
Auxiliary 'external' fitting basis          ... NOT available
Integral threshold                          ...     2.500000e-11
Primitive cut-off                           ...     2.500000e-12
Primitive pair pre-selection threshold      ...     2.500000e-12

Calculating pre-screening integrals         ... done (  0.1 sec) Dimension = 425
Organizing shell pair data                  ... done (  0.4 sec)
Shell pair information
Total number of shell pairs                 ...     90525
Shell pairs after pre-screening             ...     58054
Total number of primitive shell pairs       ...    279376
Primitive shell pairs kept                  ...    115789
          la=0 lb=0:  14507 shell pairs
          la=1 lb=0:  16733 shell pairs
          la=1 lb=1:   4821 shell pairs
          la=2 lb=0:   8294 shell pairs
          la=2 lb=1:   4871 shell pairs
          la=2 lb=2:   1246 shell pairs
          la=3 lb=0:   3860 shell pairs
          la=3 lb=1:   2306 shell pairs
          la=3 lb=2:   1133 shell pairs
          la=3 lb=3:    283 shell pairs

Calculating one electron integrals          ... done (  0.1 sec)
Calculating RI/J V-Matrix + Cholesky decomp.... done (  0.2 sec)
Calculating RI/C V-Matrix + Cholesky decomp.... done (  0.2 sec)
Calculating Nuclear repulsion               ... done (  0.0 sec) ENN=   2885.726730784834 Eh

SHARK setup successfully completed in   1.6 seconds

Maximum memory used throughout the entire GTOINT-calculation: 94.6 MB


           ************************************************************
           *        Program running with 8 parallel MPI-processes     *
           *              working on a common directory               *
           ************************************************************
-------------------------------------------------------------------------------
                                 ORCA SCF
-------------------------------------------------------------------------------

------------
SCF SETTINGS
------------
Hamiltonian:
 Density Functional     Method          .... DFT(GTOs)
 Exchange Functional    Exchange        .... B88
   X-Alpha parameter    XAlpha          ....  0.666667
   Becke's b parameter  XBeta           ....  0.004200
 Correlation Functional Correlation     .... LYP
 LDA part of GGA corr.  LDAOpt          .... VWN-3
 Gradients option       PostSCFGGA      .... off
 Hybrid DFT is turned on
   Fraction HF Exchange ScalHFX         ....  0.530000
   Scaling of DF-GGA-X  ScalDFX         ....  0.470000
   Scaling of DF-GGA-C  ScalDFC         ....  0.730000
   Scaling of DF-LDA-C  ScalLDAC        ....  0.730000
   Perturbative correction              ....  0.270000
   Density functional embedding theory  .... OFF
   NL short-range parameter             ....  7.800000
 RI-approximation to the Coulomb term is turned on
   Number of AuxJ basis functions       .... 1750
   RIJ-COSX (HFX calculated with COS-X)).... on


General Settings:
 Integral files         IntName         .... BOH-Acr_o_M06L_def2TZVP_coords
 Hartree-Fock type      HFTyp           .... RHF
 Total Charge           Charge          ....    1
 Multiplicity           Mult            ....    1
 Number of Electrons    NEL             ....  212
 Basis Dimension        Dim             .... 1087
 Nuclear Repulsion      ENuc            ....   2885.7267307848 Eh

Convergence Acceleration:
 DIIS                   CNVDIIS         .... on
   Start iteration      DIISMaxIt       ....    12
   Startup error        DIISStart       ....  0.200000
   # of expansion vecs  DIISMaxEq       ....     5
   Bias factor          DIISBfac        ....   1.050
   Max. coefficient     DIISMaxC        ....  10.000
 Trust-Rad. Augm. Hess. CNVTRAH         .... auto
   Auto Start mean grad. ratio tolernc. ....  1.125000
   Auto Start start iteration           ....    20
   Auto Start num. interpolation iter.  ....    10
   Max. Number of Micro iterations      ....    16
   Max. Number of Macro iterations      .... Maxiter - #DIIS iter
   Number of Davidson start vectors     ....     2
   Converg. threshold I  (grad. norm)   ....   1.000e-05
   Converg. threshold II (energy diff.) ....   1.000e-08
   Grad. Scal. Fac. for Micro threshold ....   0.100
   Minimum threshold for Micro iter.    ....   0.010
   NR start threshold (gradient norm)   ....   0.001
   Initial trust radius                 ....   0.400
   Minimum AH scaling param. (alpha)    ....   1.000
   Maximum AH scaling param. (alpha)    .... 1000.000
   Orbital update algorithm             .... Taylor
   White noise on init. David. guess    .... on
   Maximum white noise                  ....   0.010
   Quad. conv. algorithm                .... NR
 SOSCF                  CNVSOSCF        .... on
   Start iteration      SOSCFMaxIt      ....   150
   Startup grad/error   SOSCFStart      ....  0.003300
 Level Shifting         CNVShift        .... on
   Level shift para.    LevelShift      ....    0.2500
   Turn off err/grad.   ShiftErr        ....    0.0010
 Zerner damping         CNVZerner       .... off
 Static damping         CNVDamp         .... on
   Fraction old density DampFac         ....    0.7000
   Max. Damping (<1)    DampMax         ....    0.9800
   Min. Damping (>=0)   DampMin         ....    0.0000
   Turn off err/grad.   DampErr         ....    0.1000
 Fernandez-Rico         CNVRico         .... off

SCF Procedure:
 Maximum # iterations   MaxIter         ....   125
 SCF integral mode      SCFMode         .... Direct
   Integral package                     .... SHARK and LIBINT hybrid scheme
 Reset frequency        DirectResetFreq ....    20
 Integral Threshold     Thresh          ....  2.500e-11 Eh
 Primitive CutOff       TCut            ....  2.500e-12 Eh

Convergence Tolerance:
 Convergence Check Mode ConvCheckMode   .... Total+1el-Energy
 Convergence forced     ConvForced      .... 1
 Energy Change          TolE            ....  1.000e-08 Eh
 1-El. energy change                    ....  1.000e-05 Eh
 Orbital Gradient       TolG            ....  1.000e-05
 Orbital Rotation angle TolX            ....  1.000e-05
 DIIS Error             TolErr          ....  5.000e-07


Diagonalization of the overlap matrix:
Smallest eigenvalue                        ... 4.221e-06
Time for diagonalization                   ...    0.218 sec
Threshold for overlap eigenvalues          ... 1.000e-08
Number of eigenvalues below threshold      ... 0
Time for construction of square roots      ...    0.106 sec
Total time needed                          ...    0.329 sec

Time for model grid setup =    0.379 sec

------------------------------
INITIAL GUESS: MODEL POTENTIAL
------------------------------
Loading Hartree-Fock densities                     ... done
Calculating cut-offs                               ... done
Initializing the effective Hamiltonian             ... done
Setting up the integral package (SHARK)            ... done
Starting the Coulomb interaction                   ... done (   0.9 sec)
Reading the grid                                   ... done
Mapping shells                                     ... done
Starting the XC term evaluation                    ... done (   0.4 sec)
  promolecular density results
     # of electrons  =    212.992761419
     EX              =   -175.128183544
     EC              =     -2.439838354
     EX+EC           =   -177.568021898
Transforming the Hamiltonian                       ... done (   0.1 sec)
Diagonalizing the Hamiltonian                      ... done (   0.1 sec)
Back transforming the eigenvectors                 ... done (   0.0 sec)
Now organizing SCF variables                       ... done
                      ------------------
                      INITIAL GUESS DONE (   1.8 sec)
                      ------------------
-------------------
DFT GRID GENERATION
-------------------

General Integration Accuracy     IntAcc      ... 4.388
Radial Grid Type                 RadialGrid  ... OptM3 with GC (2021)
Angular Grid (max. ang.)         AngularGrid ... 4 (Lebedev-302)
Angular grid pruning method      GridPruning ... 4 (adaptive)
Weight generation scheme         WeightScheme... Becke
Basis function cutoff            BFCut       ... 1.0000e-11
Integration weight cutoff        WCut        ... 1.0000e-14
Angular grids for H and He will be reduced by one unit
Partially contracted basis set               ... off
Rotationally invariant grid construction     ... off

Total number of grid points                  ...   250769
Total number of batches                      ...     3947
Average number of points per batch           ...       63
Average number of grid points per atom       ...     4822
Time for grid setup =    1.496 sec

--------------------
COSX GRID GENERATION
--------------------

GRIDX 1
-------
General Integration Accuracy     IntAcc      ... 3.816
Radial Grid Type                 RadialGrid  ... OptM3 with GC (2021)
Angular Grid (max. ang.)         AngularGrid ... 1 (Lebedev-50)
Angular grid pruning method      GridPruning ... 4 (adaptive)
Weight generation scheme         WeightScheme... Becke
Basis function cutoff            BFCut       ... 1.0000e-11
Integration weight cutoff        WCut        ... 1.0000e-14
Angular grids for H and He will be reduced by one unit
Partially contracted basis set               ... on
Rotationally invariant grid construction     ... off

Total number of grid points                  ...    31803
Total number of batches                      ...      518
Average number of points per batch           ...       61
Average number of grid points per atom       ...      612
UseSFitting                                  ... on

GRIDX 2
-------
General Integration Accuracy     IntAcc      ... 4.020
Radial Grid Type                 RadialGrid  ... OptM3 with GC (2021)
Angular Grid (max. ang.)         AngularGrid ... 2 (Lebedev-110)
Angular grid pruning method      GridPruning ... 4 (adaptive)
Weight generation scheme         WeightScheme... Becke
Basis function cutoff            BFCut       ... 1.0000e-11
Integration weight cutoff        WCut        ... 1.0000e-14
Angular grids for H and He will be reduced by one unit
Partially contracted basis set               ... on
Rotationally invariant grid construction     ... off

Total number of grid points                  ...    69071
Total number of batches                      ...     1106
Average number of points per batch           ...       62
Average number of grid points per atom       ...     1328
UseSFitting                                  ... on

GRIDX 3
-------
General Integration Accuracy     IntAcc      ... 4.338
Radial Grid Type                 RadialGrid  ... OptM3 with GC (2021)
Angular Grid (max. ang.)         AngularGrid ... 3 (Lebedev-194)
Angular grid pruning method      GridPruning ... 4 (adaptive)
Weight generation scheme         WeightScheme... Becke
Basis function cutoff            BFCut       ... 1.0000e-11
Integration weight cutoff        WCut        ... 1.0000e-14
Angular grids for H and He will be reduced by one unit
Partially contracted basis set               ... on
Rotationally invariant grid construction     ... off

Total number of grid points                  ...   150839
Total number of batches                      ...     2382
Average number of points per batch           ...       63
Average number of grid points per atom       ...     2901
UseSFitting                                  ... on

Time for X-Grid setup             =    2.070 sec


--------------------
CPCM SOLVATION MODEL
--------------------
CPCM parameters:
  Epsilon                                         ...      35.6880
  Refrac                                          ...       1.3442
  Rsolv                                           ...       1.3000
  Surface type                                    ... GAUSSIAN VDW
  Epsilon function type                           ...         CPCM
Solvent:                                     ... ACETONITRILE
SMD-CDS solvent descriptors:
  Soln                                       ...    1.3442
  Soln25                                     ...    1.3416
  Sola                                       ...    0.0700
  Solb                                       ...    0.3200
  Solg                                       ...   41.2500
  Solc                                       ...    0.0000
  Solh                                       ...    0.0000
Radii:
 Radius for C  used is    3.4960 Bohr (=   1.8500 Ang.)
 Radius for H  used is    2.2677 Bohr (=   1.2000 Ang.)
 Radius for N  used is    3.5716 Bohr (=   1.8900 Ang.)
 Radius for O  used is    4.0969 Bohr (=   2.1680 Ang.)
 Radius for B  used is    3.6283 Bohr (=   1.9200 Ang.)
Calculating surface                               ...        done! (  0.0s)
GEPOL surface points                              ...         2764
GEPOL Volume                                      ...    2956.3681
GEPOL Surface-area                                ...    1537.2451
Calculating surface distance matrix               ...        done! (  0.1s)
Performing Cholesky decomposition & store         ...        done! (  0.2s)
Overall time for CPCM initialization              ...                 0.3s
--------------
SCF ITERATIONS
--------------
ITER       Energy         Delta-E        Max-DP      RMS-DP      [F,P]     Damp
               ***  Starting incremental Fock matrix formation  ***
  0  -1305.6555937654   0.000000000000 0.14606283  0.00064765  0.3007260 0.7000
  1  -1305.9596045465  -0.304010781136 0.10749747  0.00055342  0.1527519 0.7000
                               ***Turning on DIIS***
  2  -1306.1175217818  -0.157917235327 0.17326404  0.00111208  0.0628573 0.0000
  3  -1306.3867753968  -0.269253614945 0.06494088  0.00043355  0.0710036 0.0000
  4  -1306.4207141360  -0.033938739220 0.01768400  0.00012914  0.0092142 0.0000
  5  -1306.4218851383  -0.001171002265 0.01206069  0.00006167  0.0056177 0.0000
                      *** Initiating the SOSCF procedure ***
                           *** Shutting down DIIS ***
                      *** Re-Reading the Fockian *** 
                      *** Removing any level shift *** 
ITER      Energy       Delta-E        Grad      Rot      Max-DP    RMS-DP
  6  -1306.42205211  -0.0001669722  0.000843  0.000843  0.003728  0.000032
               *** Restarting incremental Fock matrix formation ***
  7  -1306.42208099  -0.0000288816  0.000266  0.001340  0.008710  0.000111
  8  -1306.42208693  -0.0000059394  0.000322  0.001538  0.002784  0.000037
  9  -1306.42209217  -0.0000052376  0.000063  0.000422  0.002155  0.000027
 10  -1306.42209243  -0.0000002603  0.000058  0.000276  0.000796  0.000010
 11  -1306.42209263  -0.0000001974  0.000012  0.000038  0.000341  0.000004
 12  -1306.42209264  -0.0000000112  0.000006  0.000013  0.000373  0.000002
                  ***Gradient check signals convergence***
              ***Rediagonalizing the Fockian in SOSCF/NRSCF***

               *****************************************************
               *                     SUCCESS                       *
               *           SCF CONVERGED AFTER  13 CYCLES          *
               *****************************************************

Old exchange energy                            =    -94.218315531 Eh
New exchange energy                            =    -94.218362315 Eh
Exchange energy change after final integration =     -0.000046783 Eh
Total energy after final integration           =  -1306.422139456 Eh
Final COS-X integration done in                =    46.409 sec

SMD CDS free energy correction energy :                -5.52833     Kcal/mol
Total Energy after SMD CDS correction =             -1306.430949404 Eh

----------------
TOTAL SCF ENERGY
----------------

Total Energy       :        -1306.43094940 Eh          -35549.79345 eV

Components:
Nuclear Repulsion  :         2885.72673078 Eh           78524.61646 eV
Electronic Energy  :        -4192.15768019 Eh         -114074.40991 eV
One Electron Energy:        -7487.43141727 Eh         -203743.36698 eV
Two Electron Energy:         3295.27373708 Eh           89668.95707 eV
Max COSX asymmetry :            0.00000395 Eh               0.00011 eV
CPCM Dielectric    :           -0.08376391 Eh              -2.27933 eV
SMD CDS (Gcds)     :           -0.00880995 Eh              -0.23973 eV

Virial components:
Potential Energy   :        -2608.67274727 Eh          -70985.59429 eV
Kinetic Energy     :         1302.24179787 Eh           35435.80084 eV
Virial Ratio       :            2.00321688


DFT components:
N(Alpha)           :      106.000005083101 electrons
N(Beta)            :      106.000005083101 electrons
N(Total)           :      212.000010166201 electrons
E(X)               :      -83.724707631722 Eh       
E(C)               :       -5.306179758818 Eh       
E(XC)              :      -89.030887390540 Eh       
DFET-embed. en.    :        0.000000000000 Eh       
CPCM Solvation Model Properties:
Surface-charge          :           -1.05439985
Charge-correction       :            0.00550659 Eh               0.14984 eV
Free-energy (cav+disp)  :           -0.00880995 Eh              -0.23973 eV

---------------
SCF CONVERGENCE
---------------

  Last Energy change         ...   -3.4847e-08  Tolerance :   1.0000e-08
  Last MAX-Density change    ...    2.3315e-15  Tolerance :   1.0000e-07
  Last RMS-Density change    ...    1.1755e-17  Tolerance :   5.0000e-09
  Last Orbital Gradient      ...    2.0794e-06  Tolerance :   1.0000e-05
  Last Orbital Rotation      ...    1.5430e-05  Tolerance :   1.0000e-05

             **** THE GBW FILE WAS UPDATED (BOH-Acr_o_M06L_def2TZVP_coords.gbw) ****
             **** DENSITY BOH-Acr_o_M06L_def2TZVP_coords.scfp WAS UPDATED ****
             **** ENERGY FILE WAS UPDATED (BOH-Acr_o_M06L_def2TZVP_coords.en.tmp) ****
             **** THE GBW FILE WAS UPDATED (BOH-Acr_o_M06L_def2TZVP_coords.gbw) ****
             **** DENSITY BOH-Acr_o_M06L_def2TZVP_coords.scfp WAS UPDATED ****
----------------
ORBITAL ENERGIES
----------------

  NO   OCC          E(Eh)            E(eV) 
   0   2.0000     -19.760505      -537.7107 
   1   2.0000     -19.741187      -537.1850 
   2   2.0000     -19.735904      -537.0412 
   3   2.0000     -14.941472      -406.5781 
   4   2.0000     -10.709625      -291.4237 
   5   2.0000     -10.709291      -291.4146 
   6   2.0000     -10.693925      -290.9965 
   7   2.0000     -10.692235      -290.9505 
   8   2.0000     -10.666495      -290.2501 
   9   2.0000     -10.663384      -290.1654 
  10   2.0000     -10.663324      -290.1638 
  11   2.0000     -10.657380      -290.0020 
  12   2.0000     -10.648373      -289.7570 
  13   2.0000     -10.645859      -289.6885 
  14   2.0000     -10.645590      -289.6812 
  15   2.0000     -10.641986      -289.5832 
  16   2.0000     -10.641925      -289.5815 
  17   2.0000     -10.635823      -289.4155 
  18   2.0000     -10.635608      -289.4096 
  19   2.0000     -10.635144      -289.3970 
  20   2.0000     -10.634286      -289.3736 
  21   2.0000     -10.632182      -289.3164 
  22   2.0000     -10.631758      -289.3048 
  23   2.0000     -10.629384      -289.2402 
  24   2.0000     -10.626258      -289.1552 
  25   2.0000     -10.625958      -289.1470 
  26   2.0000     -10.624069      -289.0956 
  27   2.0000     -10.623698      -289.0855 
  28   2.0000     -10.622962      -289.0655 
  29   2.0000     -10.618052      -288.9319 
  30   2.0000      -7.147477      -194.4927 
  31   2.0000      -1.220769       -33.2188 
  32   2.0000      -1.188222       -32.3332 
  33   2.0000      -1.167993       -31.7827 
  34   2.0000      -1.151312       -31.3288 
  35   2.0000      -1.031288       -28.0628 
  36   2.0000      -1.015178       -27.6244 
  37   2.0000      -0.998316       -27.1655 
  38   2.0000      -0.986229       -26.8366 
  39   2.0000      -0.955524       -26.0011 
  40   2.0000      -0.907605       -24.6972 
  41   2.0000      -0.893592       -24.3159 
  42   2.0000      -0.890172       -24.2228 
  43   2.0000      -0.881260       -23.9803 
  44   2.0000      -0.873967       -23.7818 
  45   2.0000      -0.871375       -23.7113 
  46   2.0000      -0.857131       -23.3237 
  47   2.0000      -0.809175       -22.0188 
  48   2.0000      -0.789980       -21.4964 
  49   2.0000      -0.765700       -20.8358 
  50   2.0000      -0.752377       -20.4732 
  51   2.0000      -0.725750       -19.7487 
  52   2.0000      -0.715996       -19.4833 
  53   2.0000      -0.711232       -19.3536 
  54   2.0000      -0.706210       -19.2169 
  55   2.0000      -0.680033       -18.5046 
  56   2.0000      -0.662158       -18.0182 
  57   2.0000      -0.660747       -17.9798 
  58   2.0000      -0.653056       -17.7705 
  59   2.0000      -0.637426       -17.3452 
  60   2.0000      -0.628868       -17.1124 
  61   2.0000      -0.612452       -16.6657 
  62   2.0000      -0.599838       -16.3224 
  63   2.0000      -0.589328       -16.0364 
  64   2.0000      -0.581772       -15.8308 
  65   2.0000      -0.566549       -15.4166 
  66   2.0000      -0.563066       -15.3218 
  67   2.0000      -0.560305       -15.2467 
  68   2.0000      -0.549477       -14.9520 
  69   2.0000      -0.547398       -14.8955 
  70   2.0000      -0.532413       -14.4877 
  71   2.0000      -0.531463       -14.4618 
  72   2.0000      -0.528013       -14.3680 
  73   2.0000      -0.525139       -14.2897 
  74   2.0000      -0.523365       -14.2415 
  75   2.0000      -0.518298       -14.1036 
  76   2.0000      -0.509746       -13.8709 
  77   2.0000      -0.508439       -13.8353 
  78   2.0000      -0.496385       -13.5073 
  79   2.0000      -0.485950       -13.2234 
  80   2.0000      -0.477647       -12.9974 
  81   2.0000      -0.475980       -12.9521 
  82   2.0000      -0.466363       -12.6904 
  83   2.0000      -0.461277       -12.5520 
  84   2.0000      -0.457104       -12.4384 
  85   2.0000      -0.454588       -12.3700 
  86   2.0000      -0.452552       -12.3146 
  87   2.0000      -0.444022       -12.0824 
  88   2.0000      -0.440722       -11.9927 
  89   2.0000      -0.435360       -11.8467 
  90   2.0000      -0.432851       -11.7785 
  91   2.0000      -0.429079       -11.6758 
  92   2.0000      -0.415926       -11.3179 
  93   2.0000      -0.409708       -11.1487 
  94   2.0000      -0.403824       -10.9886 
  95   2.0000      -0.399930       -10.8826 
  96   2.0000      -0.394608       -10.7378 
  97   2.0000      -0.393616       -10.7108 
  98   2.0000      -0.372203       -10.1282 
  99   2.0000      -0.328720        -8.9449 
 100   2.0000      -0.309769        -8.4292 
 101   2.0000      -0.307442        -8.3659 
 102   2.0000      -0.304487        -8.2855 
 103   2.0000      -0.301709        -8.2099 
 104   2.0000      -0.278460        -7.5773 
 105   2.0000      -0.273636        -7.4460 
 106   0.0000      -0.075114        -2.0439 
 107   0.0000      -0.001549        -0.0421 
 108   0.0000       0.009148         0.2489 
 109   0.0000       0.019245         0.5237 
 110   0.0000       0.031778         0.8647 
 111   0.0000       0.038883         1.0581 
 112   0.0000       0.045140         1.2283 
 113   0.0000       0.051798         1.4095 
 114   0.0000       0.065070         1.7707 
 115   0.0000       0.086892         2.3645 
 116   0.0000       0.089670         2.4400 
 117   0.0000       0.093119         2.5339 
 118   0.0000       0.098828         2.6893 
 119   0.0000       0.103750         2.8232 
 120   0.0000       0.107764         2.9324 
 121   0.0000       0.109600         2.9824 
 122   0.0000       0.113559         3.0901 
 123   0.0000       0.119228         3.2444 
 124   0.0000       0.123445         3.3591 
 125   0.0000       0.128504         3.4968 
 126   0.0000       0.131337         3.5739 
 127   0.0000       0.136591         3.7168 
 128   0.0000       0.139158         3.7867 
 129   0.0000       0.142195         3.8693 
 130   0.0000       0.146686         3.9915 
 131   0.0000       0.155836         4.2405 
 132   0.0000       0.156948         4.2708 
 133   0.0000       0.159028         4.3274 
 134   0.0000       0.163590         4.4515 
 135   0.0000       0.165408         4.5010 
 136   0.0000       0.171772         4.6742 
 137   0.0000       0.174203         4.7403 
 138   0.0000       0.179251         4.8777 
 139   0.0000       0.185586         5.0500 
 140   0.0000       0.189385         5.1534 
 141   0.0000       0.193604         5.2682 
 142   0.0000       0.196918         5.3584 
 143   0.0000       0.199323         5.4239 
 144   0.0000       0.205851         5.6015 
 145   0.0000       0.210929         5.7397 
 146   0.0000       0.216412         5.8889 
 147   0.0000       0.218004         5.9322 
 148   0.0000       0.226778         6.1709 
 149   0.0000       0.228861         6.2276 
 150   0.0000       0.234609         6.3840 
 151   0.0000       0.243042         6.6135 
 152   0.0000       0.244038         6.6406 
 153   0.0000       0.245587         6.6828 
 154   0.0000       0.250173         6.8076 
 155   0.0000       0.253439         6.8964 
 156   0.0000       0.257493         7.0067 
 157   0.0000       0.259063         7.0495 
 158   0.0000       0.262752         7.1498 
 159   0.0000       0.265955         7.2370 
 160   0.0000       0.268810         7.3147 
 161   0.0000       0.271378         7.3846 
 162   0.0000       0.276127         7.5138 
 163   0.0000       0.279299         7.6001 
 164   0.0000       0.281415         7.6577 
 165   0.0000       0.284043         7.7292 
 166   0.0000       0.288093         7.8394 
 167   0.0000       0.290538         7.9059 
 168   0.0000       0.296428         8.0662 
 169   0.0000       0.299347         8.1456 
 170   0.0000       0.300412         8.1746 
 171   0.0000       0.306164         8.3311 
 172   0.0000       0.310645         8.4531 
 173   0.0000       0.315121         8.5749 
 174   0.0000       0.317776         8.6471 
 175   0.0000       0.321010         8.7351 
 176   0.0000       0.322754         8.7826 
 177   0.0000       0.331285         9.0147 
 178   0.0000       0.331803         9.0288 
 179   0.0000       0.338425         9.2090 
 180   0.0000       0.339193         9.2299 
 181   0.0000       0.341734         9.2990 
 182   0.0000       0.346024         9.4158 
 183   0.0000       0.349676         9.5152 
 184   0.0000       0.353180         9.6105 
 185   0.0000       0.356649         9.7049 
 186   0.0000       0.359529         9.7833 
 187   0.0000       0.361285         9.8311 
 188   0.0000       0.367990        10.0135 
 189   0.0000       0.370333        10.0773 
 190   0.0000       0.372528        10.1370 
 191   0.0000       0.374976        10.2036 
 192   0.0000       0.382242        10.4013 
 193   0.0000       0.385375        10.4866 
 194   0.0000       0.391949        10.6655 
 195   0.0000       0.394286        10.7291 
 196   0.0000       0.400841        10.9074 
 197   0.0000       0.401686        10.9304 
 198   0.0000       0.407235        11.0814 
 199   0.0000       0.411949        11.2097 
 200   0.0000       0.414179        11.2704 
 201   0.0000       0.420256        11.4357 
 202   0.0000       0.422120        11.4865 
 203   0.0000       0.423866        11.5340 
 204   0.0000       0.427710        11.6386 
 205   0.0000       0.431416        11.7394 
 206   0.0000       0.433558        11.7977 
 207   0.0000       0.438623        11.9355 
 208   0.0000       0.441811        12.0223 
 209   0.0000       0.445404        12.1201 
 210   0.0000       0.445972        12.1355 
 211   0.0000       0.452269        12.3069 
 212   0.0000       0.453088        12.3291 
 213   0.0000       0.454085        12.3563 
 214   0.0000       0.458277        12.4703 
 215   0.0000       0.461195        12.5497 
 216   0.0000       0.465524        12.6676 
 217   0.0000       0.468131        12.7385 
 218   0.0000       0.470508        12.8032 
 219   0.0000       0.473339        12.8802 
 220   0.0000       0.475909        12.9501 
 221   0.0000       0.478255        13.0140 
 222   0.0000       0.479625        13.0513 
 223   0.0000       0.484818        13.1926 
 224   0.0000       0.486390        13.2353 
 225   0.0000       0.489027        13.3071 
 226   0.0000       0.496378        13.5071 
 227   0.0000       0.497393        13.5348 
 228   0.0000       0.499912        13.6033 
 229   0.0000       0.505745        13.7620 
 230   0.0000       0.509819        13.8729 
 231   0.0000       0.510782        13.8991 
 232   0.0000       0.514355        13.9963 
 233   0.0000       0.516271        14.0485 
 234   0.0000       0.519382        14.1331 
 235   0.0000       0.522416        14.2157 
 236   0.0000       0.525873        14.3097 
 237   0.0000       0.527940        14.3660 
 238   0.0000       0.529613        14.4115 
 239   0.0000       0.536186        14.5904 
 240   0.0000       0.539804        14.6888 
 241   0.0000       0.544697        14.8220 
 242   0.0000       0.548565        14.9272 
 243   0.0000       0.550402        14.9772 
 244   0.0000       0.551858        15.0168 
 245   0.0000       0.558369        15.1940 
 246   0.0000       0.559176        15.2160 
 247   0.0000       0.563578        15.3357 
 248   0.0000       0.566984        15.4284 
 249   0.0000       0.567813        15.4510 
 250   0.0000       0.569878        15.5072 
 251   0.0000       0.571359        15.5475 
 252   0.0000       0.576955        15.6997 
 253   0.0000       0.579097        15.7580 
 254   0.0000       0.582907        15.8617 
 255   0.0000       0.588942        16.0259 
 256   0.0000       0.594497        16.1771 
 257   0.0000       0.598292        16.2804 
 258   0.0000       0.601929        16.3793 
 259   0.0000       0.610974        16.6255 
 260   0.0000       0.614395        16.7185 
 261   0.0000       0.618574        16.8323 
 262   0.0000       0.625932        17.0325 
 263   0.0000       0.629069        17.1178 
 264   0.0000       0.635993        17.3063 
 265   0.0000       0.645071        17.5533 
 266   0.0000       0.653680        17.7875 
 267   0.0000       0.656163        17.8551 
 268   0.0000       0.661284        17.9944 
 269   0.0000       0.664250        18.0752 
 270   0.0000       0.668342        18.1865 
 271   0.0000       0.672493        18.2995 
 272   0.0000       0.672571        18.3016 
 273   0.0000       0.680589        18.5198 
 274   0.0000       0.686536        18.6816 
 275   0.0000       0.690826        18.7983 
 276   0.0000       0.699212        19.0265 
 277   0.0000       0.702267        19.1096 
 278   0.0000       0.706297        19.2193 
 279   0.0000       0.710199        19.3255 
 280   0.0000       0.712921        19.3996 
 281   0.0000       0.715655        19.4740 
 282   0.0000       0.717962        19.5367 
 283   0.0000       0.722451        19.6589 
 284   0.0000       0.729546        19.8520 
 285   0.0000       0.731408        19.9026 
 286   0.0000       0.735950        20.0262 
 287   0.0000       0.738042        20.0831 
 288   0.0000       0.740855        20.1597 
 289   0.0000       0.746940        20.3253 
 290   0.0000       0.749026        20.3820 
 291   0.0000       0.758862        20.6497 
 292   0.0000       0.761897        20.7323 
 293   0.0000       0.766289        20.8518 
 294   0.0000       0.771054        20.9815 
 295   0.0000       0.775926        21.1140 
 296   0.0000       0.779374        21.2079 
 297   0.0000       0.782927        21.3045 
 298   0.0000       0.785753        21.3814 
 299   0.0000       0.787560        21.4306 
 300   0.0000       0.790510        21.5109 
 301   0.0000       0.797539        21.7022 
 302   0.0000       0.801638        21.8137 
 303   0.0000       0.804376        21.8882 
 304   0.0000       0.808294        21.9948 
 305   0.0000       0.811424        22.0800 
 306   0.0000       0.815628        22.1944 
 307   0.0000       0.817099        22.2344 
 308   0.0000       0.819054        22.2876 
 309   0.0000       0.824645        22.4397 
 310   0.0000       0.828347        22.5405 
 311   0.0000       0.830033        22.5863 
 312   0.0000       0.834244        22.7009 
 313   0.0000       0.841161        22.8892 
 314   0.0000       0.847329        23.0570 
 315   0.0000       0.848838        23.0980 
 316   0.0000       0.855450        23.2780 
 317   0.0000       0.856530        23.3074 
 318   0.0000       0.864115        23.5138 
 319   0.0000       0.871294        23.7091 
 320   0.0000       0.874203        23.7883 
 321   0.0000       0.880504        23.9597 
 322   0.0000       0.885094        24.0846 
 323   0.0000       0.891517        24.2594 
 324   0.0000       0.894665        24.3451 
 325   0.0000       0.896328        24.3903 
 326   0.0000       0.900539        24.5049 
 327   0.0000       0.906832        24.6761 
 328   0.0000       0.916638        24.9430 
 329   0.0000       0.921562        25.0770 
 330   0.0000       0.923943        25.1418 
 331   0.0000       0.929998        25.3065 
 332   0.0000       0.933889        25.4124 
 333   0.0000       0.937429        25.5087 
 334   0.0000       0.942077        25.6352 
 335   0.0000       0.946807        25.7639 
 336   0.0000       0.950548        25.8657 
 337   0.0000       0.953804        25.9543 
 338   0.0000       0.959053        26.0972 
 339   0.0000       0.961212        26.1559 
 340   0.0000       0.963844        26.2275 
 341   0.0000       0.968534        26.3552 
 342   0.0000       0.978511        26.6266 
 343   0.0000       0.978696        26.6317 
 344   0.0000       0.984863        26.7995 
 345   0.0000       0.990500        26.9529 
 346   0.0000       0.996592        27.1186 
 347   0.0000       1.005568        27.3629 
 348   0.0000       1.015027        27.6203 
 349   0.0000       1.015541        27.6343 
 350   0.0000       1.018836        27.7239 
 351   0.0000       1.027382        27.9565 
 352   0.0000       1.031846        28.0779 
 353   0.0000       1.037037        28.2192 
 354   0.0000       1.046927        28.4883 
 355   0.0000       1.048683        28.5361 
 356   0.0000       1.055922        28.7331 
 357   0.0000       1.059600        28.8332 
 358   0.0000       1.068875        29.0856 
 359   0.0000       1.074643        29.2425 
 360   0.0000       1.082464        29.4553 
 361   0.0000       1.089125        29.6366 
 362   0.0000       1.096357        29.8334 
 363   0.0000       1.106042        30.0969 
 364   0.0000       1.112192        30.2643 
 365   0.0000       1.116689        30.3867 
 366   0.0000       1.123523        30.5726 
 367   0.0000       1.125829        30.6354 
 368   0.0000       1.136516        30.9262 
 369   0.0000       1.143696        31.1215 
 370   0.0000       1.152142        31.3514 
 371   0.0000       1.158695        31.5297 
 372   0.0000       1.159778        31.5592 
 373   0.0000       1.168218        31.7888 
 374   0.0000       1.175374        31.9836 
 375   0.0000       1.177736        32.0478 
 376   0.0000       1.183415        32.2024 
 377   0.0000       1.189268        32.3616 
 378   0.0000       1.193367        32.4732 
 379   0.0000       1.195940        32.5432 
 380   0.0000       1.199652        32.6442 
 381   0.0000       1.205933        32.8151 
 382   0.0000       1.213855        33.0307 
 383   0.0000       1.221059        33.2267 
 384   0.0000       1.228347        33.4250 
 385   0.0000       1.231274        33.5047 
 386   0.0000       1.237746        33.6808 
 387   0.0000       1.246490        33.9187 
 388   0.0000       1.255206        34.1559 
 389   0.0000       1.258118        34.2351 
 390   0.0000       1.264507        34.4090 
 391   0.0000       1.270526        34.5728 
 392   0.0000       1.277293        34.7569 
 393   0.0000       1.286581        35.0096 
 394   0.0000       1.296162        35.2704 
 395   0.0000       1.300943        35.4005 
 396   0.0000       1.308274        35.5999 
 397   0.0000       1.312350        35.7108 
 398   0.0000       1.320220        35.9250 
 399   0.0000       1.323682        36.0192 
 400   0.0000       1.326021        36.0829 
 401   0.0000       1.332175        36.2503 
 402   0.0000       1.334194        36.3053 
 403   0.0000       1.341361        36.5003 
 404   0.0000       1.342181        36.5226 
 405   0.0000       1.349296        36.7162 
 406   0.0000       1.353544        36.8318 
 407   0.0000       1.356687        36.9173 
 408   0.0000       1.364805        37.1382 
 409   0.0000       1.369482        37.2655 
 410   0.0000       1.371597        37.3230 
 411   0.0000       1.377469        37.4828 
 412   0.0000       1.386372        37.7251 
 413   0.0000       1.389588        37.8126 
 414   0.0000       1.403044        38.1788 
 415   0.0000       1.404022        38.2054 
 416   0.0000       1.407275        38.2939 
 417   0.0000       1.409014        38.3412 
 418   0.0000       1.414906        38.5016 
 419   0.0000       1.420624        38.6572 
 420   0.0000       1.430314        38.9208 
 421   0.0000       1.433252        39.0008 
 422   0.0000       1.440762        39.2051 
 423   0.0000       1.443863        39.2895 
 424   0.0000       1.458664        39.6923 
 425   0.0000       1.470101        40.0035 
 426   0.0000       1.475357        40.1465 
 427   0.0000       1.492911        40.6242 
 428   0.0000       1.498710        40.7820 
 429   0.0000       1.511457        41.1288 
 430   0.0000       1.512282        41.1513 
 431   0.0000       1.517956        41.3057 
 432   0.0000       1.523678        41.4614 
 433   0.0000       1.530430        41.6451 
 434   0.0000       1.540101        41.9083 
 435   0.0000       1.544810        42.0364 
 436   0.0000       1.548820        42.1455 
 437   0.0000       1.550226        42.1838 
 438   0.0000       1.560927        42.4750 
 439   0.0000       1.562868        42.5278 
 440   0.0000       1.566178        42.6179 
 441   0.0000       1.572962        42.8025 
 442   0.0000       1.584101        43.1056 
 443   0.0000       1.588141        43.2155 
 444   0.0000       1.590007        43.2663 
 445   0.0000       1.591872        43.3171 
 446   0.0000       1.601966        43.5917 
 447   0.0000       1.614072        43.9211 
 448   0.0000       1.615182        43.9513 
 449   0.0000       1.620165        44.0869 
 450   0.0000       1.622466        44.1495 
 451   0.0000       1.628106        44.3030 
 452   0.0000       1.632341        44.4183 
 453   0.0000       1.636374        44.5280 
 454   0.0000       1.639788        44.6209 
 455   0.0000       1.648172        44.8490 
 456   0.0000       1.649928        44.8968 
 457   0.0000       1.655024        45.0355 
 458   0.0000       1.656018        45.0625 
 459   0.0000       1.657905        45.1139 
 460   0.0000       1.666216        45.3400 
 461   0.0000       1.671386        45.4807 
 462   0.0000       1.676293        45.6142 
 463   0.0000       1.682062        45.7712 
 464   0.0000       1.684464        45.8366 
 465   0.0000       1.686067        45.8802 
 466   0.0000       1.691530        46.0289 
 467   0.0000       1.696455        46.1629 
 468   0.0000       1.703662        46.3590 
 469   0.0000       1.715453        46.6799 
 470   0.0000       1.717152        46.7261 
 471   0.0000       1.722554        46.8731 
 472   0.0000       1.726685        46.9855 
 473   0.0000       1.731156        47.1072 
 474   0.0000       1.731809        47.1249 
 475   0.0000       1.737072        47.2681 
 476   0.0000       1.748054        47.5670 
 477   0.0000       1.750799        47.6417 
 478   0.0000       1.761776        47.9404 
 479   0.0000       1.767202        48.0880 
 480   0.0000       1.769339        48.1462 
 481   0.0000       1.774769        48.2939 
 482   0.0000       1.779839        48.4319 
 483   0.0000       1.788246        48.6607 
 484   0.0000       1.790934        48.7338 
 485   0.0000       1.797747        48.9192 
 486   0.0000       1.805894        49.1409 
 487   0.0000       1.806480        49.1568 
 488   0.0000       1.809415        49.2367 
 489   0.0000       1.812647        49.3246 
 490   0.0000       1.818808        49.4923 
 491   0.0000       1.820908        49.5494 
 492   0.0000       1.826113        49.6911 
 493   0.0000       1.832398        49.8621 
 494   0.0000       1.835695        49.9518 
 495   0.0000       1.845820        50.2273 
 496   0.0000       1.853618        50.4395 
 497   0.0000       1.856034        50.5053 
 498   0.0000       1.861679        50.6589 
 499   0.0000       1.864008        50.7222 
 500   0.0000       1.870145        50.8892 
 501   0.0000       1.873380        50.9773 
 502   0.0000       1.883662        51.2570 
 503   0.0000       1.884721        51.2859 
 504   0.0000       1.887045        51.3491 
 505   0.0000       1.893788        51.5326 
 506   0.0000       1.895406        51.5766 
 507   0.0000       1.900511        51.7155 
 508   0.0000       1.906843        51.8878 
 509   0.0000       1.913477        52.0684 
 510   0.0000       1.921559        52.2883 
 511   0.0000       1.935285        52.6618 
 512   0.0000       1.940180        52.7950 
 513   0.0000       1.953900        53.1683 
 514   0.0000       1.956416        53.2368 
 515   0.0000       1.965886        53.4945 
[...]
    97a -> 106a  :     0.033477 
    98a -> 106a  :     0.050635 
    99a -> 107a  :     0.023636 
   100a -> 107a  :     0.095162 
   101a -> 107a  :     0.067518 
   102a -> 108a  :     0.046806 
   102a -> 109a  :     0.047889 
   103a -> 107a  :     0.150440 
   103a -> 110a  :     0.010254 
   105a -> 107a  :     0.012054 
   105a -> 108a  :     0.110070 
   105a -> 109a  :     0.118828 
   105a -> 110a  :     0.019383 

STATE 20:  E=   0.211096 au      5.744 eV    46330.1 cm**-1 <S**2> =   0.000000
    93a -> 106a  :     0.010161 
   100a -> 108a  :     0.019346 
   100a -> 109a  :     0.016641 
   101a -> 108a  :     0.010489 
   102a -> 107a  :     0.443833 
   102a -> 109a  :     0.029799 
   103a -> 107a  :     0.019076 
   103a -> 108a  :     0.036469 
   103a -> 109a  :     0.073432 
   103a -> 110a  :     0.015501 
   103a -> 113a  :     0.016420 
   105a -> 107a  :     0.029327 
   105a -> 110a  :     0.162319 

STATE 21:  E=   0.212573 au      5.784 eV    46654.3 cm**-1 <S**2> =   0.000000
   101a -> 107a  :     0.021408 
   101a -> 108a  :     0.014614 
   102a -> 107a  :     0.224342 
   102a -> 108a  :     0.075466 
   103a -> 109a  :     0.040592 
   104a -> 110a  :     0.010797 
   105a -> 108a  :     0.020756 
   105a -> 110a  :     0.392465 
   105a -> 113a  :     0.084501 

STATE 22:  E=   0.221349 au      6.023 eV    48580.6 cm**-1 <S**2> =   0.000000
    98a -> 106a  :     0.010829 
   100a -> 107a  :     0.119121 
   100a -> 108a  :     0.023939 
   100a -> 110a  :     0.019440 
   101a -> 107a  :     0.029300 
   101a -> 108a  :     0.012520 
   101a -> 109a  :     0.059194 
   102a -> 109a  :     0.070621 
   102a -> 110a  :     0.051570 
   103a -> 107a  :     0.014424 
   103a -> 108a  :     0.093219 
   104a -> 108a  :     0.017550 
   104a -> 111a  :     0.024254 
   105a -> 109a  :     0.021290 
   105a -> 110a  :     0.029958 
   105a -> 111a  :     0.252627 
   105a -> 113a  :     0.019876 

STATE 23:  E=   0.218327 au      5.941 eV    47917.1 cm**-1 <S**2> =   0.000000
   100a -> 107a  :     0.051064 
   101a -> 108a  :     0.032578 
   102a -> 107a  :     0.023805 
   102a -> 108a  :     0.020626 
   102a -> 109a  :     0.024073 
   103a -> 107a  :     0.034817 
   103a -> 109a  :     0.048843 
   103a -> 110a  :     0.030647 
   104a -> 111a  :     0.068622 
   105a -> 108a  :     0.016546 
   105a -> 110a  :     0.043162 
   105a -> 111a  :     0.457472 
   105a -> 112a  :     0.016245 
   105a -> 113a  :     0.012463 

STATE 24:  E=   0.218289 au      5.940 eV    47908.9 cm**-1 <S**2> =   0.000000
    89a -> 106a  :     0.016288 
    93a -> 106a  :     0.052930 
    95a -> 106a  :     0.013407 
    97a -> 106a  :     0.059018 
    99a -> 107a  :     0.021341 
   100a -> 108a  :     0.064235 
   100a -> 109a  :     0.060961 
   100a -> 110a  :     0.011818 
   101a -> 107a  :     0.096157 
   101a -> 110a  :     0.013745 
   101a -> 111a  :     0.018435 
   101a -> 112a  :     0.024914 
   102a -> 108a  :     0.026257 
   102a -> 109a  :     0.026047 
   102a -> 110a  :     0.010222 
   103a -> 107a  :     0.116987 
   103a -> 110a  :     0.012527 
   104a -> 108a  :     0.103869 
   104a -> 111a  :     0.092002 
   105a -> 111a  :     0.035423 
   105a -> 113a  :     0.024927 

STATE 25:  E=   0.221020 au      6.014 eV    48508.3 cm**-1 <S**2> =   0.000000
    93a -> 106a  :     0.011435 
   100a -> 107a  :     0.025181 
   100a -> 108a  :     0.029784 
   100a -> 109a  :     0.013509 
   100a -> 113a  :     0.017200 
   101a -> 107a  :     0.018620 
   101a -> 108a  :     0.063476 
   101a -> 109a  :     0.010668 
   101a -> 113a  :     0.020600 
   102a -> 108a  :     0.069741 
   102a -> 110a  :     0.048679 
   103a -> 108a  :     0.105231 
   103a -> 109a  :     0.075272 
   103a -> 110a  :     0.025350 
   104a -> 108a  :     0.037218 
   104a -> 112a  :     0.012247 
   105a -> 107a  :     0.010633 
   105a -> 110a  :     0.031039 
   105a -> 111a  :     0.102224 
   105a -> 112a  :     0.032729 
   105a -> 113a  :     0.085601 

STATE 26:  E=   0.210148 au      5.718 eV    46122.1 cm**-1 <S**2> =   0.000000
   100a -> 107a  :     0.020400 
   100a -> 108a  :     0.019234 
   100a -> 109a  :     0.011105 
   100a -> 111a  :     0.043354 
   101a -> 107a  :     0.031533 
   101a -> 111a  :     0.040417 
   101a -> 112a  :     0.026509 
   103a -> 107a  :     0.023666 
   103a -> 109a  :     0.015305 
   104a -> 108a  :     0.470918 
   104a -> 112a  :     0.101035 
   104a -> 113a  :     0.034779 
   105a -> 108a  :     0.016036 
   105a -> 112a  :     0.018176 

STATE 27:  E=   0.215134 au      5.854 eV    47216.4 cm**-1 <S**2> =   0.000000
    89a -> 106a  :     0.093438 
    92a -> 106a  :     0.037608 
    93a -> 106a  :     0.072580 
    94a -> 106a  :     0.017674 
    97a -> 106a  :     0.171422 
   100a -> 107a  :     0.011039 
   100a -> 108a  :     0.018653 
   101a -> 108a  :     0.026904 
   102a -> 107a  :     0.023411 
   102a -> 108a  :     0.041090 
   105a -> 110a  :     0.029580 
   105a -> 111a  :     0.013445 
   105a -> 112a  :     0.121141 
   105a -> 113a  :     0.162298 

STATE 28:  E=   0.217444 au      5.917 eV    47723.4 cm**-1 <S**2> =   0.000000
    89a -> 106a  :     0.037522 
    93a -> 106a  :     0.054958 
    97a -> 106a  :     0.117101 
    99a -> 108a  :     0.013238 
   100a -> 107a  :     0.068953 
   100a -> 108a  :     0.024868 
   101a -> 107a  :     0.021796 
   101a -> 108a  :     0.016353 
   103a -> 107a  :     0.050524 
   103a -> 108a  :     0.033712 
   103a -> 109a  :     0.019386 
   104a -> 112a  :     0.016993 
   105a -> 108a  :     0.017199 
   105a -> 109a  :     0.013367 
   105a -> 110a  :     0.012378 
   105a -> 111a  :     0.012054 
   105a -> 112a  :     0.307918 
   105a -> 113a  :     0.012997 

STATE 29:  E=   0.215075 au      5.852 eV    47203.5 cm**-1 <S**2> =   0.000000
    89a -> 106a  :     0.095753 
    96a -> 106a  :     0.037684 
   100a -> 108a  :     0.022192 
   100a -> 109a  :     0.018097 
   100a -> 111a  :     0.058292 
   101a -> 108a  :     0.012408 
   101a -> 111a  :     0.072402 
   102a -> 108a  :     0.031946 
   104a -> 108a  :     0.028045 
   104a -> 109a  :     0.325979 
   104a -> 111a  :     0.016064 
   104a -> 112a  :     0.020830 
   104a -> 113a  :     0.070191 
   105a -> 113a  :     0.019754 

STATE 30:  E=   0.220236 au      5.993 eV    48336.3 cm**-1 <S**2> =   0.000000
    89a -> 106a  :     0.089984 
    92a -> 106a  :     0.033748 
    95a -> 106a  :     0.016400 
   100a -> 107a  :     0.030586 
   100a -> 109a  :     0.027844 
   100a -> 111a  :     0.014577 
   101a -> 108a  :     0.023280 
   101a -> 111a  :     0.020691 
   102a -> 108a  :     0.108448 
   102a -> 110a  :     0.014069 
   103a -> 107a  :     0.049916 
   103a -> 108a  :     0.062722 
   103a -> 109a  :     0.055042 
   103a -> 110a  :     0.068976 
   104a -> 109a  :     0.112981 
   104a -> 113a  :     0.015838 
   105a -> 110a  :     0.039458 
   105a -> 112a  :     0.050671 


-------------------------
TD-DFT-EXCITATION SPECTRA
-------------------------

Center of mass = (  0.0573, -0.0075, -0.0021)
Calculating the Dipole integrals                  ... done
Transforming integrals                            ... done
Calculating the Linear Momentum integrals         ... done
Transforming integrals                            ... done
Calculating angular momentum integrals            ... done
Transforming integrals                            ... done

-----------------------------------------------------------------------------
         ABSORPTION SPECTRUM VIA TRANSITION ELECTRIC DIPOLE MOMENTS
-----------------------------------------------------------------------------
State   Energy    Wavelength  fosc         T2        TX        TY        TZ  
        (cm-1)      (nm)                 (au**2)    (au)      (au)      (au) 
-----------------------------------------------------------------------------
   1   23213.4    430.8   0.217680821   3.08714   1.75354   0.10549  -0.03346
   2   23834.4    419.6   0.000342118   0.00473  -0.01272   0.06460   0.01977
   3   29381.3    340.4   0.319875423   3.58414  -0.04950   1.85434   0.37830
   4   28790.9    347.3   0.058692048   0.67112   0.81069  -0.10942  -0.04397
   5   29679.6    336.9   0.002720641   0.03018  -0.03128   0.15113  -0.07974
   6   31005.8    322.5   0.027332732   0.29021   0.08359  -0.43680  -0.30403
   7   32879.2    304.1   0.016212273   0.16233  -0.02859   0.37967   0.13177
   8   38562.6    259.3   0.285667542   2.43877   0.14143  -1.34073  -0.78816
   9   38772.8    257.9   0.912740179   7.74989  -0.22877   2.75219   0.35075
  10   40104.4    249.3   0.090852593   0.74580  -0.41540  -0.73668  -0.17478
  11   43515.2    229.8   0.040040616   0.30293   0.30012  -0.36737   0.27909
  12   45870.8    218.0   0.180484059   1.29532   1.03811   0.28937  -0.36594
  13   41937.0    238.5   0.072910367   0.57236   0.69557   0.28114  -0.09746
  14   43939.0    227.6   0.029850986   0.22366   0.24017  -0.38147  -0.14302
  15   45066.9    221.9   0.049663875   0.36279   0.41235   0.40100  -0.17878
  16   40246.9    248.5   0.000853018   0.00698  -0.03157   0.07681  -0.00902
  17   45155.2    221.5   0.002543489   0.01854  -0.11844   0.05083  -0.04397
  18   43946.3    227.6   0.052061311   0.39000   0.55317  -0.13350   0.25726
  19   45270.0    220.9   0.411285009   2.99094  -1.72075   0.14277   0.09788
  20   46330.1    215.8   0.095213758   0.67657  -0.08929   0.32664  -0.74960
  21   46654.3    214.3   0.306627255   2.16369   1.44266  -0.13826   0.25160
  22   48580.6    205.8   0.958777729   6.49727  -2.49419  -0.24890   0.46298
  23   47917.1    208.7   0.331981964   2.28086  -1.48968  -0.13744  -0.20697
  24   47908.9    208.7   0.075061698   0.51580  -0.70104   0.04108  -0.15049
  25   48508.3    206.2   0.093573614   0.63506   0.07159   0.09572  -0.78789
  26   46122.1    216.8   0.080940895   0.57774   0.70339  -0.06399  -0.28087
  27   47216.4    211.8   0.057173103   0.39863  -0.19092  -0.52548   0.29335
  28   47723.4    209.5   0.023087703   0.15927  -0.06903   0.16545  -0.35655
  29   47203.5    211.8   0.053257016   0.37143  -0.07965  -0.44738  -0.40613
  30   48336.3    206.9   0.187535212   1.27728   0.20433  -0.85297   0.71272

-----------------------------------------------------------------------------
         ABSORPTION SPECTRUM VIA TRANSITION VELOCITY DIPOLE MOMENTS
-----------------------------------------------------------------------------
State   Energy    Wavelength   fosc        P2         PX        PY        PZ  
        (cm-1)      (nm)                 (au**2)     (au)      (au)      (au) 
-----------------------------------------------------------------------------
   1   23213.4    430.8   0.283519101   0.04498  -0.21166  -0.01277   0.00411
   2   23834.4    419.6   0.000571528   0.00009   0.00175  -0.00907  -0.00278
   3   29381.3    340.4   0.377132135   0.07573   0.00726  -0.26955  -0.05495
   4   28790.9    347.3   0.076819781   0.01512  -0.12167   0.01640   0.00666
   5   29679.6    336.9   0.003916596   0.00079   0.00492  -0.02483   0.01240
   6   31005.8    322.5   0.036645791   0.00777  -0.01363   0.07127   0.05000
   7   32879.2    304.1   0.023933312   0.00538   0.00515  -0.06917  -0.02382
   8   38562.6    259.3   0.350697603   0.09243  -0.02914   0.26033   0.15430
   9   38772.8    257.9   1.112699257   0.29486   0.04400  -0.53698  -0.06765
  10   40104.4    249.3   0.108159450   0.02965   0.08357   0.14640   0.03508
  11   43515.2    229.8   0.044233088   0.01316  -0.06294   0.07663  -0.05764
  12   45870.8    218.0   0.190624357   0.05976  -0.22291  -0.06220   0.07876
  13   41937.0    238.5   0.091378936   0.02619  -0.14855  -0.06072   0.02089
  14   43939.0    227.6   0.035131993   0.01055  -0.05144   0.08338   0.03086
  15   45066.9    221.9   0.056579834   0.01743  -0.09103  -0.08741   0.03873
  16   40246.9    248.5   0.001210154   0.00033   0.00758  -0.01659   0.00040
  17   45155.2    221.5   0.002794225   0.00086   0.02538  -0.01141   0.00938
  18   43946.3    227.6   0.067376325   0.02024  -0.12632   0.03030  -0.05797
  19   45270.0    220.9   0.510233878   0.15787   0.39534  -0.03276  -0.02233
  20   46330.1    215.8   0.120325818   0.03810   0.02108  -0.07735   0.17797
  21   46654.3    214.3   0.389583170   0.12422  -0.34546   0.03328  -0.06143
  22   48580.6    205.8   1.142658599   0.37939   0.60260   0.06010  -0.11246
  23   47917.1    208.7   0.407876128   0.13358   0.36054   0.03299   0.04998
  24   47908.9    208.7   0.093340042   0.03056   0.17070  -0.01005   0.03639
  25   48508.3    206.2   0.114593802   0.03799  -0.01668  -0.02325   0.19280
  26   46122.1    216.8   0.110351291   0.03479  -0.17286   0.01577   0.06824
  27   47216.4    211.8   0.074515108   0.02405   0.04615   0.12898  -0.07267
  28   47723.4    209.5   0.030072296   0.00981   0.01669  -0.04146   0.08838
  29   47203.5    211.8   0.071226328   0.02298   0.01918   0.11164   0.10073
  30   48336.3    206.9   0.241048385   0.07963  -0.05102   0.21291  -0.17803

-------------------------------------------------------------------
                             CD SPECTRUM
-------------------------------------------------------------------
State  Energy     Wavelength     R         MX        MY        MZ   
       (cm-1)       (nm)     (1e40*cgs)   (au)      (au)      (au)  
-------------------------------------------------------------------
   1   23213.4    430.8     30.17895   0.03996  -0.07805  -0.06509
   2   23834.4    419.6      0.24818  -0.02315  -0.00975   0.04357
   3   29381.3    340.4      7.74131   0.11680  -0.05182   0.31268
   4   28790.9    347.3     19.64947   0.03768  -0.05590  -0.11407
   5   29679.6    336.9     29.42332  -0.01634   0.21248  -0.37354
   6   31005.8    322.5    -70.01766  -0.03404   0.11867   0.30864
   7   32879.2    304.1     -5.04528   0.03010   0.00146  -0.07889
   8   38562.6    259.3    151.48599  -0.10248  -0.23009  -0.03467
   9   38772.8    257.9    -164.01431   0.19153  -0.11312   0.02066
  10   40104.4    249.3    -37.74685  -0.08315   0.11090   0.18826
  11   43515.2    229.8     -9.66124   0.06324  -0.32359  -0.56739
  12   45870.8    218.0    -44.75053   0.02605  -0.16320   0.20423
  13   41937.0    238.5     -8.59482   0.02770   0.02169   0.44733
  14   43939.0    227.6     12.79050  -0.06974   0.21286  -0.87457
  15   45066.9    221.9     29.21489   0.06432   0.30131   0.47757
  16   40246.9    248.5     -1.67215   0.01231  -0.03771   0.02903
  17   45155.2    221.5      0.27459  -0.01465   0.00405   0.03090
  18   43946.3    227.6    -10.16430  -0.00342  -0.24946  -0.20590
  19   45270.0    220.9    -29.92306   0.05066   0.05422   0.16307
  20   46330.1    215.8      5.90955  -0.06021   0.97508   0.41535
  21   46654.3    214.3     -2.84950   0.05014  -0.50511  -0.58906
  22   48580.6    205.8    113.26241  -0.10394  -0.29320  -0.19865
  23   47917.1    208.7    -107.27299   0.07776   0.48737   0.21605
  24   47908.9    208.7    -13.01795   0.06404  -0.00354  -0.11580
  25   48508.3    206.2    -276.40653  -0.10299   0.49796   0.79526
  26   46122.1    216.8     59.28705  -0.02671  -0.80262  -0.33176
  27   47216.4    211.8     11.13139  -0.06910  -0.19840  -0.31989
  28   47723.4    209.5     44.90235  -0.07159   0.36950  -0.08180
  29   47203.5    211.8    246.45294  -0.02840  -0.93838  -0.24790
  30   48336.3    206.9    -66.55197  -0.13221  -0.22881  -0.43400

Total run time:     7243.729 sec

           *** ORCA-CIS/TD-DFT FINISHED WITHOUT ERROR ***

Maximum memory used throughout the entire CIS-calculation: 4235.9 MB

-----------------------
CIS/TD-DFT TOTAL ENERGY
-----------------------

    E(SCF)  =  -1306.430949404 Eh
    DE(CIS) =      0.105768188 Eh (Root  1)
    ----------------------------- ---------
    E(tot)  =  -1306.325181215 Eh



-------------------------------------------------------------------------------
                          DFT DISPERSION CORRECTION                            
                                                                               
                              DFTD3 V3.1  Rev 1                                
                          USING Becke-Johnson damping                          
-------------------------------------------------------------------------------
The B2PLYP functional is recognized
Active option DFTDOPT                   ...         4   

molecular C6(AA) [au] = 34188.263545 


            DFT-D V3
 parameters
 s6 scaling factor         :     0.6400 
 a1 scaling factor         :     0.3065 
 s8 scaling factor         :     0.9147 
 a2 scaling factor         :     5.0570 
 ad hoc parameters k1-k3   :    16.0000     1.3333    -4.0000 

 Edisp/kcal,au: -40.355938354497  -0.064311274519 
 E6   /kcal   : -22.617681834 
 E8   /kcal   : -17.738256521 
 % E8         :  43.954513869 

-------------------------   ----------------
Dispersion correction           -0.064311275
-------------------------   ----------------


-------------------------   --------------------
FINAL SINGLE POINT ENERGY     -1306.389492489795
-------------------------   --------------------


                            ***************************************
                            *     ORCA property calculations      *
                            ***************************************


  WARNING: The energy has been calculated at the MP2 level but the densities
           used in the property calculations are still SCF densities
           MP2 response densities have not been calculated 
           use %mp2 Density relaxed end
           or  %mp2 Density unrelaxed end

                                    ---------------------
                                    Active property flags
                                    ---------------------
   (+) Dipole Moment


------------------------------------------------------------------------------
                       ORCA ELECTRIC PROPERTIES CALCULATION
------------------------------------------------------------------------------

Dipole Moment Calculation                       ... on
Quadrupole Moment Calculation                   ... off
Polarizability Calculation                      ... off
GBWName                                         ... BOH-Acr_o_M06L_def2TZVP_coords.gbw
Electron density                                ... BOH-Acr_o_M06L_def2TZVP_coords.scfp
The origin for moment calculation is the CENTER OF MASS  = ( 0.057348, -0.007549 -0.002150)

-------------
DIPOLE MOMENT
-------------
                                X             Y             Z
Electronic contribution:     11.18280      -0.72280      -0.35280
Nuclear contribution   :    -12.21503       1.60799       0.45789
                        -----------------------------------------
Total Dipole Moment    :     -1.03222       0.88519       0.10508
                        -----------------------------------------
Magnitude (a.u.)       :      1.36385
Magnitude (Debye)      :      3.46663



--------------------
Rotational spectrum 
--------------------
 
Rotational constants in cm-1:     0.010028     0.002980     0.002627 
Rotational constants in MHz :   300.646435    89.343388    78.766984 

 Dipole components along the rotational axes: 
x,y,z [a.u.] :     1.034984     0.880673     0.115371 
x,y,z [Debye]:     2.630719     2.238492     0.293250 

 

Timings for individual modules:

Sum of individual times         ...     8137.727 sec (= 135.629 min)
GTO integral calculation        ...        2.170 sec (=   0.036 min)   0.0 %
SCF iterations                  ...      321.184 sec (=   5.353 min)   3.9 %
MP2 module                      ...      569.136 sec (=   9.486 min)   7.0 %
CIS module                      ...     7245.237 sec (= 120.754 min)  89.0 %
                             ****ORCA TERMINATED NORMALLY****
TOTAL RUN TIME: 0 days 2 hours 15 minutes 40 seconds 855 msec
