 Entering Gaussian System, Link 0=g09
 Input=/home/png4rjv/fotokatalizis/benchmark/OPCs/BOH-Acr_o_M06L_def2TZVP.gjf
 Output=/home/png4rjv/fotokatalizis/benchmark/OPCs/BOH-Acr_o_M06L_def2TZVP.log
 Initial command:
 /opt/nce/packages/global/g09/l1.exe "/home/png4rjv/fotokatalizis/benchmark/OPCs/BOH-Acr_o_M06L_def2TZVP/Gau-61788.inp" -scrdir="/home/png4rjv/fotokatalizis/benchmark/OPCs/BOH-Acr_o_M06L_def2TZVP/"
 Default is to use a total of  12 processors:
                               12 via shared-memory
                                1 via Linda
 Entering Link 1 = /opt/nce/packages/global/g09/l1.exe PID=     61789.
  
 Copyright (c) 1988,1990,1992,1993,1995,1998,2003,2009,2015,
            Gaussian, Inc.  All Rights Reserved.
  
 This is part of the Gaussian(R) 09 program.  It is based on
 the Gaussian(R) 03 system (copyright 2003, Gaussian, Inc.),
 the Gaussian(R) 98 system (copyright 1998, Gaussian, Inc.),
 the Gaussian(R) 94 system (copyright 1995, Gaussian, Inc.),
 the Gaussian 92(TM) system (copyright 1992, Gaussian, Inc.),
 the Gaussian 90(TM) system (copyright 1990, Gaussian, Inc.),
 the Gaussian 88(TM) system (copyright 1988, Gaussian, Inc.),
 the Gaussian 86(TM) system (copyright 1986, Carnegie Mellon
 University), and the Gaussian 82(TM) system (copyright 1983,
 Carnegie Mellon University). Gaussian is a federally registered
 trademark of Gaussian, Inc.
  
 This software contains proprietary and confidential information,
 including trade secrets, belonging to Gaussian, Inc.
  
 This software is provided under written license and may be
 used, copied, transmitted, or stored only in accord with that
 written license.
  
 The following legend is applicable only to US Government
 contracts under FAR:
  
                    RESTRICTED RIGHTS LEGEND
  
 Use, reproduction and disclosure by the US Government is
 subject to restrictions as set forth in subparagraphs (a)
 and (c) of the Commercial Computer Software - Restricted
 Rights clause in FAR 52.227-19.
  
 Gaussian, Inc.
 340 Quinnipiac St., Bldg. 40, Wallingford CT 06492
  
  
 ---------------------------------------------------------------
 Warning -- This program may not be used in any manner that
 competes with the business of Gaussian, Inc. or will provide
 assistance to any competitor of Gaussian, Inc.  The licensee
 of this program is prohibited from giving any competitor of
 Gaussian, Inc. access to this program.  By using this program,
 the user acknowledges that Gaussian, Inc. is engaged in the
 business of creating and licensing software in the field of
 computational chemistry and represents and warrants to the
 licensee that it is not a competitor of Gaussian, Inc. and that
 it will not use this program in any manner prohibited above.
 ---------------------------------------------------------------
  

 Cite this work as:
 Gaussian 09, Revision E.01,
 M. J. Frisch, G. W. Trucks, H. B. Schlegel, G. E. Scuseria, 
 M. A. Robb, J. R. Cheeseman, G. Scalmani, V. Barone, B. Mennucci, 
 G. A. Petersson, H. Nakatsuji, M. Caricato, X. Li, H. P. Hratchian, 
 A. F. Izmaylov, J. Bloino, G. Zheng, J. L. Sonnenberg, M. Hada, 
 M. Ehara, K. Toyota, R. Fukuda, J. Hasegawa, M. Ishida, T. Nakajima, 
 Y. Honda, O. Kitao, H. Nakai, T. Vreven, J. A. Montgomery, Jr., 
 J. E. Peralta, F. Ogliaro, M. Bearpark, J. J. Heyd, E. Brothers, 
 K. N. Kudin, V. N. Staroverov, T. Keith, R. Kobayashi, J. Normand, 
 K. Raghavachari, A. Rendell, J. C. Burant, S. S. Iyengar, J. Tomasi, 
 M. Cossi, N. Rega, J. M. Millam, M. Klene, J. E. Knox, J. B. Cross, 
 V. Bakken, C. Adamo, J. Jaramillo, R. Gomperts, R. E. Stratmann, 
 O. Yazyev, A. J. Austin, R. Cammi, C. Pomelli, J. W. Ochterski, 
 R. L. Martin, K. Morokuma, V. G. Zakrzewski, G. A. Voth, 
 P. Salvador, J. J. Dannenberg, S. Dapprich, A. D. Daniels, 
 O. Farkas, J. B. Foresman, J. V. Ortiz, J. Cioslowski, 
 and D. J. Fox, Gaussian, Inc., Wallingford CT, 2013.
 
 ******************************************
 Gaussian 09:  ES64L-G09RevE.01 30-Nov-2015
                16-Feb-2021 
 ******************************************
 %chk=cp.chk
 Default route:  MaxDisk=500GB
 ----------------------------------------------------------------------
 #p m06l/def2TZVP opt freq=noraman nosymm int=ultrafine scrf=(SMD,solve
 nt=Acetonitrile)
 ----------------------------------------------------------------------
 1/14=-1,18=20,19=15,26=4,38=1/1,3;
 2/9=110,12=2,15=1,17=6,18=5,40=1/2;
 3/5=44,7=101,11=2,16=1,25=1,30=1,70=32201,71=1,72=2,74=-53,75=-5/1,2,3;
 4//1;
 5/5=2,38=5,53=2/2;
 6/7=2,8=2,9=2,10=2,28=1/1;
 7/30=1/1,2,3,16;
 1/14=-1,18=20,19=15,26=4/3(2);
 2/9=110,15=1/2;
 99//99;
 2/9=110,15=1/2;
 3/5=44,7=101,11=2,16=1,25=1,30=1,70=32205,71=1,72=2,74=-53,75=-5/1,2,3;
 4/5=5,16=3,69=1/1;
 5/5=2,38=5,53=2/2;
 7/30=1/1,2,3,16;
 1/14=-1,18=20,19=15,26=4/3(-5);
 2/9=110,15=1/2;
 6/7=2,8=2,9=2,10=2,19=2,28=1/1;
 99/9=1/99;
 Leave Link    1 at Tue Feb 16 06:52:36 2021, MaxMem=           0 cpu:         1.6
 (Enter /opt/nce/packages/global/g09/l101.exe)
 -----
 Title
 -----
 Symbolic Z-matrix:
 Charge =  1 Multiplicity = 1
 C                    -0.6469    3.72165   0.38323 
 C                    -1.27504   2.51563   0.154 
 C                    -0.503     1.3544   -0.10022 
 C                     0.92966   1.44814  -0.13535 
 C                     1.53448   2.7162    0.13158 
 C                     0.7667    3.82729   0.38241 
 C                     1.70098   0.28815  -0.3948 
 C                     1.04339  -0.94526  -0.62123 
 C                    -0.38954  -1.00783  -0.55451 
 C                    -1.0479   -2.24559  -0.7564 
 H                    -2.13284  -2.2954   -0.69789 
 C                    -0.30957  -3.37821  -1.0293 
 C                     1.10345  -3.3305   -1.12502 
 C                     1.76224  -2.14143  -0.92954 
 H                    -1.25327   4.60885   0.57803 
 H                    -2.36054   2.4475    0.16987 
 H                     2.62181   2.7823    0.13272 
 H                     1.24008   4.78962   0.584 
 H                    -0.82838  -4.32677  -1.1839 
 H                     1.66386  -4.23673  -1.36013 
 H                     2.84672  -2.09237  -1.01077 
 N                    -1.10962   0.1366   -0.29846 
 C                     3.18437   0.35429  -0.41315 
 C                     3.93742  -0.31087   0.58451 
 C                     3.8242    1.04051  -1.45757 
 C                     5.33795  -0.2696    0.48442 
 C                     5.21789   1.06701  -1.52792 
 C                     5.97625   0.41115  -0.55492 
 H                     5.70965   1.59408  -2.34828 
 H                     3.22812   1.53382  -2.22875 
 C                    -2.55496   0.05535  -0.23479 
 C                    -3.17854  -0.2025    0.98376 
 C                    -3.3105    0.23534  -1.39981 
 C                    -4.57076  -0.28339   1.05296 
 H                    -2.57734  -0.3428    1.88446 
 C                    -4.69432   0.15667  -1.33753 
 H                    -2.81057   0.43592  -2.34949 
 C                    -5.34108  -0.10364  -0.11106 
 H                    -5.04342  -0.48612   2.01281 
 H                    -5.30996   0.29248  -2.22779 
 O                    -6.67877  -0.1611   -0.15255 
 C                    -7.4114   -0.41961   1.03379 
 H                    -8.47005  -0.41808   0.74812 
 H                    -7.15189  -1.4038    1.45942 
 H                    -7.23882   0.36393   1.79104 
 H                     7.06693   0.42788  -0.60856 
 B                     3.26961  -1.05255   1.80739 
 O                     2.17837  -0.56384   2.47447 
 O                     3.80783  -2.23037   2.20333 
 H                     1.9285    0.33326   2.22617 
 H                     3.38389  -2.59384   2.99364 
 H                     5.93466  -0.78462   1.24044 
 
 NAtoms=     52 NQM=       52 NQMF=       0 NMMI=      0 NMMIF=      0
                NMic=       0 NMicF=      0.
                    Isotopes and Nuclear Properties:
 (Nuclear quadrupole moments (NQMom) in fm**2, nuclear magnetic moments (NMagM)
  in nuclear magnetons)

  Atom         1           2           3           4           5           6           7           8           9          10
 IAtWgt=          12          12          12          12          12          12          12          12          12          12
 AtmWgt=  12.0000000  12.0000000  12.0000000  12.0000000  12.0000000  12.0000000  12.0000000  12.0000000  12.0000000  12.0000000
 NucSpn=           0           0           0           0           0           0           0           0           0           0
 AtZEff=   0.0000000   0.0000000   0.0000000   0.0000000   0.0000000   0.0000000   0.0000000   0.0000000   0.0000000   0.0000000
 NQMom=    0.0000000   0.0000000   0.0000000   0.0000000   0.0000000   0.0000000   0.0000000   0.0000000   0.0000000   0.0000000
 NMagM=    0.0000000   0.0000000   0.0000000   0.0000000   0.0000000   0.0000000   0.0000000   0.0000000   0.0000000   0.0000000
 AtZNuc=   6.0000000   6.0000000   6.0000000   6.0000000   6.0000000   6.0000000   6.0000000   6.0000000   6.0000000   6.0000000

  Atom        11          12          13          14          15          16          17          18          19          20
 IAtWgt=           1          12          12          12           1           1           1           1           1           1
 AtmWgt=   1.0078250  12.0000000  12.0000000  12.0000000   1.0078250   1.0078250   1.0078250   1.0078250   1.0078250   1.0078250
 NucSpn=           1           0           0           0           1           1           1           1           1           1
 AtZEff=   0.0000000   0.0000000   0.0000000   0.0000000   0.0000000   0.0000000   0.0000000   0.0000000   0.0000000   0.0000000
 NQMom=    0.0000000   0.0000000   0.0000000   0.0000000   0.0000000   0.0000000   0.0000000   0.0000000   0.0000000   0.0000000
 NMagM=    2.7928460   0.0000000   0.0000000   0.0000000   2.7928460   2.7928460   2.7928460   2.7928460   2.7928460   2.7928460
 AtZNuc=   1.0000000   6.0000000   6.0000000   6.0000000   1.0000000   1.0000000   1.0000000   1.0000000   1.0000000   1.0000000

  Atom        21          22          23          24          25          26          27          28          29          30
 IAtWgt=           1          14          12          12          12          12          12          12           1           1
 AtmWgt=   1.0078250  14.0030740  12.0000000  12.0000000  12.0000000  12.0000000  12.0000000  12.0000000   1.0078250   1.0078250
 NucSpn=           1           2           0           0           0           0           0           0           1           1
 AtZEff=   0.0000000   0.0000000   0.0000000   0.0000000   0.0000000   0.0000000   0.0000000   0.0000000   0.0000000   0.0000000
 NQMom=    0.0000000   2.0440000   0.0000000   0.0000000   0.0000000   0.0000000   0.0000000   0.0000000   0.0000000   0.0000000
 NMagM=    2.7928460   0.4037610   0.0000000   0.0000000   0.0000000   0.0000000   0.0000000   0.0000000   2.7928460   2.7928460
 AtZNuc=   1.0000000   7.0000000   6.0000000   6.0000000   6.0000000   6.0000000   6.0000000   6.0000000   1.0000000   1.0000000

  Atom        31          32          33          34          35          36          37          38          39          40
 IAtWgt=          12          12          12          12           1          12           1          12           1           1
 AtmWgt=  12.0000000  12.0000000  12.0000000  12.0000000   1.0078250  12.0000000   1.0078250  12.0000000   1.0078250   1.0078250
 NucSpn=           0           0           0           0           1           0           1           0           1           1
 AtZEff=   0.0000000   0.0000000   0.0000000   0.0000000   0.0000000   0.0000000   0.0000000   0.0000000   0.0000000   0.0000000
 NQMom=    0.0000000   0.0000000   0.0000000   0.0000000   0.0000000   0.0000000   0.0000000   0.0000000   0.0000000   0.0000000
 NMagM=    0.0000000   0.0000000   0.0000000   0.0000000   2.7928460   0.0000000   2.7928460   0.0000000   2.7928460   2.7928460
 AtZNuc=   6.0000000   6.0000000   6.0000000   6.0000000   1.0000000   6.0000000   1.0000000   6.0000000   1.0000000   1.0000000

  Atom        41          42          43          44          45          46          47          48          49          50
 IAtWgt=          16          12           1           1           1           1          11          16          16           1
 AtmWgt=  15.9949146  12.0000000   1.0078250   1.0078250   1.0078250   1.0078250  11.0093053  15.9949146  15.9949146   1.0078250
 NucSpn=           0           0           1           1           1           1           3           0           0           1
 AtZEff=   0.0000000   0.0000000   0.0000000   0.0000000   0.0000000   0.0000000   0.0000000   0.0000000   0.0000000   0.0000000
 NQMom=    0.0000000   0.0000000   0.0000000   0.0000000   0.0000000   0.0000000   4.0590000   0.0000000   0.0000000   0.0000000
 NMagM=    0.0000000   0.0000000   2.7928460   2.7928460   2.7928460   2.7928460   2.6886370   0.0000000   0.0000000   2.7928460
 AtZNuc=   8.0000000   6.0000000   1.0000000   1.0000000   1.0000000   1.0000000   5.0000000   8.0000000   8.0000000   1.0000000

  Atom        51          52
 IAtWgt=           1           1
 AtmWgt=   1.0078250   1.0078250
 NucSpn=           1           1
 AtZEff=   0.0000000   0.0000000
 NQMom=    0.0000000   0.0000000
 NMagM=    2.7928460   2.7928460
 AtZNuc=   1.0000000   1.0000000
 Leave Link  101 at Tue Feb 16 06:52:36 2021, MaxMem=  5242880000 cpu:         5.4
 (Enter /opt/nce/packages/global/g09/l103.exe)

 GradGradGradGradGradGradGradGradGradGradGradGradGradGradGradGradGradGrad
 Berny optimization.
 Initialization pass.
                           ----------------------------
                           !    Initial Parameters    !
                           ! (Angstroms and Degrees)  !
 --------------------------                            --------------------------
 ! Name  Definition              Value          Derivative Info.                !
 --------------------------------------------------------------------------------
 ! R1    R(1,2)                  1.379          estimate D2E/DX2                !
 ! R2    R(1,6)                  1.4175         estimate D2E/DX2                !
 ! R3    R(1,15)                 1.0921         estimate D2E/DX2                !
 ! R4    R(2,3)                  1.4174         estimate D2E/DX2                !
 ! R5    R(2,16)                 1.0877         estimate D2E/DX2                !
 ! R6    R(3,4)                  1.4361         estimate D2E/DX2                !
 ! R7    R(3,22)                 1.3749         estimate D2E/DX2                !
 ! R8    R(4,5)                  1.43           estimate D2E/DX2                !
 ! R9    R(4,7)                  1.417          estimate D2E/DX2                !
 ! R10   R(5,6)                  1.3737         estimate D2E/DX2                !
 ! R11   R(5,17)                 1.0893         estimate D2E/DX2                !
 ! R12   R(6,18)                 1.0912         estimate D2E/DX2                !
 ! R13   R(7,8)                  1.416          estimate D2E/DX2                !
 ! R14   R(7,23)                 1.485          estimate D2E/DX2                !
 ! R15   R(8,9)                  1.4358         estimate D2E/DX2                !
 ! R16   R(8,14)                 1.4292         estimate D2E/DX2                !
 ! R17   R(9,10)                 1.4164         estimate D2E/DX2                !
 ! R18   R(9,22)                 1.3762         estimate D2E/DX2                !
 ! R19   R(10,11)                1.0877         estimate D2E/DX2                !
 ! R20   R(10,12)                1.3793         estimate D2E/DX2                !
 ! R21   R(12,13)                1.4171         estimate D2E/DX2                !
 ! R22   R(12,19)                1.0922         estimate D2E/DX2                !
 ! R23   R(13,14)                1.3734         estimate D2E/DX2                !
 ! R24   R(13,20)                1.0911         estimate D2E/DX2                !
 ! R25   R(14,21)                1.0886         estimate D2E/DX2                !
 ! R26   R(22,31)                1.449          estimate D2E/DX2                !
 ! R27   R(23,24)                1.4159         estimate D2E/DX2                !
 ! R28   R(23,25)                1.404          estimate D2E/DX2                !
 ! R29   R(24,26)                1.4047         estimate D2E/DX2                !
 ! R30   R(24,47)                1.5784         estimate D2E/DX2                !
 ! R31   R(25,27)                1.3957         estimate D2E/DX2                !
 ! R32   R(25,30)                1.0924         estimate D2E/DX2                !
 ! R33   R(26,28)                1.3968         estimate D2E/DX2                !
 ! R34   R(26,52)                1.0922         estimate D2E/DX2                !
 ! R35   R(27,28)                1.3971         estimate D2E/DX2                !
 ! R36   R(27,29)                1.0921         estimate D2E/DX2                !
 ! R37   R(28,46)                1.0921         estimate D2E/DX2                !
 ! R38   R(31,32)                1.3929         estimate D2E/DX2                !
 ! R39   R(31,33)                1.4002         estimate D2E/DX2                !
 ! R40   R(32,34)                1.3963         estimate D2E/DX2                !
 ! R41   R(32,35)                1.092          estimate D2E/DX2                !
 ! R42   R(33,36)                1.3875         estimate D2E/DX2                !
 ! R43   R(33,37)                1.0918         estimate D2E/DX2                !
 ! R44   R(34,38)                1.4074         estimate D2E/DX2                !
 ! R45   R(34,39)                1.089          estimate D2E/DX2                !
 ! R46   R(36,38)                1.4108         estimate D2E/DX2                !
 ! R47   R(36,40)                1.0909         estimate D2E/DX2                !
 ! R48   R(38,41)                1.3396         estimate D2E/DX2                !
 ! R49   R(41,42)                1.4181         estimate D2E/DX2                !
 ! R50   R(42,43)                1.0965         estimate D2E/DX2                !
 ! R51   R(42,44)                1.1032         estimate D2E/DX2                !
 ! R52   R(42,45)                1.1032         estimate D2E/DX2                !
 ! R53   R(47,48)                1.3692         estimate D2E/DX2                !
 ! R54   R(47,49)                1.3541         estimate D2E/DX2                !
 ! R55   R(48,50)                0.9638         estimate D2E/DX2                !
 ! R56   R(49,51)                0.9677         estimate D2E/DX2                !
 ! A1    A(2,1,6)              121.2867         estimate D2E/DX2                !
 ! A2    A(2,1,15)             119.1573         estimate D2E/DX2                !
 ! A3    A(6,1,15)             119.5535         estimate D2E/DX2                !
 ! A4    A(1,2,3)              119.881          estimate D2E/DX2                !
 ! A5    A(1,2,16)             120.4587         estimate D2E/DX2                !
 ! A6    A(3,2,16)             119.6601         estimate D2E/DX2                !
 ! A7    A(2,3,4)              119.6216         estimate D2E/DX2                !
 ! A8    A(2,3,22)             120.7428         estimate D2E/DX2                !
 ! A9    A(4,3,22)             119.6315         estimate D2E/DX2                !
 ! A10   A(3,4,5)              118.3734         estimate D2E/DX2                !
 ! A11   A(3,4,7)              119.6084         estimate D2E/DX2                !
 ! A12   A(5,4,7)              121.9961         estimate D2E/DX2                !
 ! A13   A(4,5,6)              120.9927         estimate D2E/DX2                !
 ! A14   A(4,5,17)             118.4352         estimate D2E/DX2                !
 ! A15   A(6,5,17)             120.5721         estimate D2E/DX2                !
 ! A16   A(1,6,5)              119.8151         estimate D2E/DX2                !
 ! A17   A(1,6,18)             119.8817         estimate D2E/DX2                !
 ! A18   A(5,6,18)             120.3029         estimate D2E/DX2                !
 ! A19   A(4,7,8)              119.3121         estimate D2E/DX2                !
 ! A20   A(4,7,23)             120.6347         estimate D2E/DX2                !
 ! A21   A(8,7,23)             120.0485         estimate D2E/DX2                !
 ! A22   A(7,8,9)              119.6036         estimate D2E/DX2                !
 ! A23   A(7,8,14)             122.0016         estimate D2E/DX2                !
 ! A24   A(9,8,14)             118.3922         estimate D2E/DX2                !
 ! A25   A(8,9,10)             119.6914         estimate D2E/DX2                !
 ! A26   A(8,9,22)             119.6432         estimate D2E/DX2                !
 ! A27   A(10,9,22)            120.6652         estimate D2E/DX2                !
 ! A28   A(9,10,11)            119.7363         estimate D2E/DX2                !
 ! A29   A(9,10,12)            119.7999         estimate D2E/DX2                !
 ! A30   A(11,10,12)           120.4636         estimate D2E/DX2                !
 ! A31   A(10,12,13)           121.2982         estimate D2E/DX2                !
 ! A32   A(10,12,19)           119.1383         estimate D2E/DX2                !
 ! A33   A(13,12,19)           119.5607         estimate D2E/DX2                !
 ! A34   A(12,13,14)           119.8584         estimate D2E/DX2                !
 ! A35   A(12,13,20)           119.9162         estimate D2E/DX2                !
 ! A36   A(14,13,20)           120.2241         estimate D2E/DX2                !
 ! A37   A(8,14,13)            120.9352         estimate D2E/DX2                !
 ! A38   A(8,14,21)            118.6489         estimate D2E/DX2                !
 ! A39   A(13,14,21)           120.4155         estimate D2E/DX2                !
 ! A40   A(3,22,9)             122.1785         estimate D2E/DX2                !
 ! A41   A(3,22,31)            118.9089         estimate D2E/DX2                !
 ! A42   A(9,22,31)            118.9126         estimate D2E/DX2                !
 ! A43   A(7,23,24)            120.1088         estimate D2E/DX2                !
 ! A44   A(7,23,25)            119.0916         estimate D2E/DX2                !
 ! A45   A(24,23,25)           120.7568         estimate D2E/DX2                !
 ! A46   A(23,24,26)           117.7911         estimate D2E/DX2                !
 ! A47   A(23,24,47)           122.7926         estimate D2E/DX2                !
 ! A48   A(26,24,47)           119.3955         estimate D2E/DX2                !
 ! A49   A(23,25,27)           120.1223         estimate D2E/DX2                !
 ! A50   A(23,25,30)           119.8146         estimate D2E/DX2                !
 ! A51   A(27,25,30)           120.047          estimate D2E/DX2                !
 ! A52   A(24,26,28)           121.5303         estimate D2E/DX2                !
 ! A53   A(24,26,52)           118.7862         estimate D2E/DX2                !
 ! A54   A(28,26,52)           119.6835         estimate D2E/DX2                !
 ! A55   A(25,27,28)           119.8672         estimate D2E/DX2                !
 ! A56   A(25,27,29)           119.7799         estimate D2E/DX2                !
 ! A57   A(28,27,29)           120.3511         estimate D2E/DX2                !
 ! A58   A(26,28,27)           119.9299         estimate D2E/DX2                !
 ! A59   A(26,28,46)           120.0246         estimate D2E/DX2                !
 ! A60   A(27,28,46)           120.0452         estimate D2E/DX2                !
 ! A61   A(22,31,32)           119.6936         estimate D2E/DX2                !
 ! A62   A(22,31,33)           119.6344         estimate D2E/DX2                !
 ! A63   A(32,31,33)           120.672          estimate D2E/DX2                !
 ! A64   A(31,32,34)           120.0305         estimate D2E/DX2                !
 ! A65   A(31,32,35)           119.9269         estimate D2E/DX2                !
 ! A66   A(34,32,35)           120.0425         estimate D2E/DX2                !
 ! A67   A(31,33,36)           119.574          estimate D2E/DX2                !
 ! A68   A(31,33,37)           120.0176         estimate D2E/DX2                !
 ! A69   A(36,33,37)           120.4084         estimate D2E/DX2                !
 ! A70   A(32,34,38)           119.8257         estimate D2E/DX2                !
 ! A71   A(32,34,39)           119.1607         estimate D2E/DX2                !
 ! A72   A(38,34,39)           121.0135         estimate D2E/DX2                !
 ! A73   A(33,36,38)           120.4462         estimate D2E/DX2                !
 ! A74   A(33,36,40)           121.2771         estimate D2E/DX2                !
 ! A75   A(38,36,40)           118.2767         estimate D2E/DX2                !
 ! A76   A(34,38,36)           119.4515         estimate D2E/DX2                !
 ! A77   A(34,38,41)           124.522          estimate D2E/DX2                !
 ! A78   A(36,38,41)           116.0265         estimate D2E/DX2                !
 ! A79   A(38,41,42)           119.8557         estimate D2E/DX2                !
 ! A80   A(41,42,43)           106.2951         estimate D2E/DX2                !
 ! A81   A(41,42,44)           111.3366         estimate D2E/DX2                !
 ! A82   A(41,42,45)           111.3417         estimate D2E/DX2                !
 ! A83   A(43,42,44)           109.2            estimate D2E/DX2                !
 ! A84   A(43,42,45)           109.1991         estimate D2E/DX2                !
 ! A85   A(44,42,45)           109.3887         estimate D2E/DX2                !
 ! A86   A(24,47,48)           123.1579         estimate D2E/DX2                !
 ! A87   A(24,47,49)           117.8437         estimate D2E/DX2                !
 ! A88   A(48,47,49)           118.9979         estimate D2E/DX2                !
 ! A89   A(47,48,50)           114.4153         estimate D2E/DX2                !
 ! A90   A(47,49,51)           113.0398         estimate D2E/DX2                !
 ! D1    D(6,1,2,3)             -0.5642         estimate D2E/DX2                !
 ! D2    D(6,1,2,16)           179.2407         estimate D2E/DX2                !
 ! D3    D(15,1,2,3)          -179.9901         estimate D2E/DX2                !
 ! D4    D(15,1,2,16)           -0.1852         estimate D2E/DX2                !
 ! D5    D(2,1,6,5)              0.8933         estimate D2E/DX2                !
 ! D6    D(2,1,6,18)          -178.9156         estimate D2E/DX2                !
 ! D7    D(15,1,6,5)          -179.683          estimate D2E/DX2                !
 ! D8    D(15,1,6,18)            0.508          estimate D2E/DX2                !
 ! D9    D(1,2,3,4)             -0.8661         estimate D2E/DX2                !
 ! D10   D(1,2,3,22)           178.3895         estimate D2E/DX2                !
 ! D11   D(16,2,3,4)           179.3275         estimate D2E/DX2                !
 ! D12   D(16,2,3,22)           -1.4169         estimate D2E/DX2                !
 ! D13   D(2,3,4,5)              1.9306         estimate D2E/DX2                !
 ! D14   D(2,3,4,7)           -179.7489         estimate D2E/DX2                !
 ! D15   D(22,3,4,5)          -177.3333         estimate D2E/DX2                !
 ! D16   D(22,3,4,7)             0.9871         estimate D2E/DX2                !
 ! D17   D(2,3,22,9)           179.639          estimate D2E/DX2                !
 ! D18   D(2,3,22,31)           -0.4025         estimate D2E/DX2                !
 ! D19   D(4,3,22,9)            -1.1055         estimate D2E/DX2                !
 ! D20   D(4,3,22,31)          178.853          estimate D2E/DX2                !
 ! D21   D(3,4,5,6)             -1.6278         estimate D2E/DX2                !
 ! D22   D(3,4,5,17)           178.313          estimate D2E/DX2                !
 ! D23   D(7,4,5,6)           -179.906          estimate D2E/DX2                !
 ! D24   D(7,4,5,17)             0.0349         estimate D2E/DX2                !
 ! D25   D(3,4,7,8)              0.2724         estimate D2E/DX2                !
 ! D26   D(3,4,7,23)          -178.9377         estimate D2E/DX2                !
 ! D27   D(5,4,7,8)            178.5298         estimate D2E/DX2                !
 ! D28   D(5,4,7,23)            -0.6802         estimate D2E/DX2                !
 ! D29   D(4,5,6,1)              0.2389         estimate D2E/DX2                !
 ! D30   D(4,5,6,18)          -179.9529         estimate D2E/DX2                !
 ! D31   D(17,5,6,1)          -179.7007         estimate D2E/DX2                !
 ! D32   D(17,5,6,18)            0.1075         estimate D2E/DX2                !
 ! D33   D(4,7,8,9)             -1.4104         estimate D2E/DX2                !
 ! D34   D(4,7,8,14)           177.9931         estimate D2E/DX2                !
 ! D35   D(23,7,8,9)           177.8044         estimate D2E/DX2                !
 ! D36   D(23,7,8,14)           -2.7921         estimate D2E/DX2                !
 ! D37   D(4,7,23,24)          112.8831         estimate D2E/DX2                !
 ! D38   D(4,7,23,25)          -69.4776         estimate D2E/DX2                !
 ! D39   D(8,7,23,24)          -66.3212         estimate D2E/DX2                !
 ! D40   D(8,7,23,25)          111.3181         estimate D2E/DX2                !
 ! D41   D(7,8,9,10)          -178.8443         estimate D2E/DX2                !
 ! D42   D(7,8,9,22)             1.3272         estimate D2E/DX2                !
 ! D43   D(14,8,9,10)            1.7307         estimate D2E/DX2                !
 ! D44   D(14,8,9,22)         -178.0978         estimate D2E/DX2                !
 ! D45   D(7,8,14,13)          178.9959         estimate D2E/DX2                !
 ! D46   D(7,8,14,21)           -1.2296         estimate D2E/DX2                !
 ! D47   D(9,8,14,13)           -1.5936         estimate D2E/DX2                !
 ! D48   D(9,8,14,21)          178.1809         estimate D2E/DX2                !
 ! D49   D(8,9,10,11)          179.4963         estimate D2E/DX2                !
 ! D50   D(8,9,10,12)           -0.6792         estimate D2E/DX2                !
 ! D51   D(22,9,10,11)          -0.6769         estimate D2E/DX2                !
 ! D52   D(22,9,10,12)         179.1475         estimate D2E/DX2                !
 ! D53   D(8,9,22,3)            -0.0503         estimate D2E/DX2                !
 ! D54   D(8,9,22,31)          179.9913         estimate D2E/DX2                !
 ! D55   D(10,9,22,3)         -179.8771         estimate D2E/DX2                !
 ! D56   D(10,9,22,31)           0.1644         estimate D2E/DX2                !
 ! D57   D(9,10,12,13)          -0.568          estimate D2E/DX2                !
 ! D58   D(9,10,12,19)        -179.952          estimate D2E/DX2                !
 ! D59   D(11,10,12,13)        179.2552         estimate D2E/DX2                !
 ! D60   D(11,10,12,19)         -0.1289         estimate D2E/DX2                !
 ! D61   D(10,12,13,14)          0.7274         estimate D2E/DX2                !
 ! D62   D(10,12,13,20)       -178.8722         estimate D2E/DX2                !
 ! D63   D(19,12,13,14)       -179.8911         estimate D2E/DX2                !
 ! D64   D(19,12,13,20)          0.5093         estimate D2E/DX2                !
 ! D65   D(12,13,14,8)           0.3867         estimate D2E/DX2                !
 ! D66   D(12,13,14,21)       -179.3839         estimate D2E/DX2                !
 ! D67   D(20,13,14,8)         179.9851         estimate D2E/DX2                !
 ! D68   D(20,13,14,21)          0.2145         estimate D2E/DX2                !
 ! D69   D(3,22,31,32)         -89.6901         estimate D2E/DX2                !
 ! D70   D(3,22,31,33)          90.3884         estimate D2E/DX2                !
 ! D71   D(9,22,31,32)          90.2698         estimate D2E/DX2                !
 ! D72   D(9,22,31,33)         -89.6517         estimate D2E/DX2                !
 ! D73   D(7,23,24,26)         177.0223         estimate D2E/DX2                !
 ! D74   D(7,23,24,47)          -4.6475         estimate D2E/DX2                !
 ! D75   D(25,23,24,26)         -0.5771         estimate D2E/DX2                !
 ! D76   D(25,23,24,47)        177.753          estimate D2E/DX2                !
 ! D77   D(7,23,25,27)        -177.2217         estimate D2E/DX2                !
 ! D78   D(7,23,25,30)           1.3202         estimate D2E/DX2                !
 ! D79   D(24,23,25,27)          0.4019         estimate D2E/DX2                !
 ! D80   D(24,23,25,30)        178.9437         estimate D2E/DX2                !
 ! D81   D(23,24,26,28)          0.4971         estimate D2E/DX2                !
 ! D82   D(23,24,26,52)       -179.4732         estimate D2E/DX2                !
 ! D83   D(47,24,26,28)       -177.8917         estimate D2E/DX2                !
 ! D84   D(47,24,26,52)          2.138          estimate D2E/DX2                !
 ! D85   D(23,24,47,48)        -39.3126         estimate D2E/DX2                !
 ! D86   D(23,24,47,49)        140.4376         estimate D2E/DX2                !
 ! D87   D(26,24,47,48)        138.9919         estimate D2E/DX2                !
 ! D88   D(26,24,47,49)        -41.2579         estimate D2E/DX2                !
 ! D89   D(23,25,27,28)         -0.1261         estimate D2E/DX2                !
 ! D90   D(23,25,27,29)        179.3915         estimate D2E/DX2                !
 ! D91   D(30,25,27,28)       -178.6645         estimate D2E/DX2                !
 ! D92   D(30,25,27,29)          0.8531         estimate D2E/DX2                !
 ! D93   D(24,26,28,27)         -0.2372         estimate D2E/DX2                !
 ! D94   D(24,26,28,46)        179.9606         estimate D2E/DX2                !
 ! D95   D(52,26,28,27)        179.7329         estimate D2E/DX2                !
 ! D96   D(52,26,28,46)         -0.0694         estimate D2E/DX2                !
 ! D97   D(25,27,28,26)          0.0425         estimate D2E/DX2                !
 ! D98   D(25,27,28,46)        179.8448         estimate D2E/DX2                !
 ! D99   D(29,27,28,26)       -179.4722         estimate D2E/DX2                !
 ! D100  D(29,27,28,46)          0.33           estimate D2E/DX2                !
 ! D101  D(22,31,32,34)       -179.9461         estimate D2E/DX2                !
 ! D102  D(22,31,32,35)         -0.0389         estimate D2E/DX2                !
 ! D103  D(33,31,32,34)         -0.0255         estimate D2E/DX2                !
 ! D104  D(33,31,32,35)        179.8817         estimate D2E/DX2                !
 ! D105  D(22,31,33,36)        179.9703         estimate D2E/DX2                !
 ! D106  D(22,31,33,37)         -0.016          estimate D2E/DX2                !
 ! D107  D(32,31,33,36)          0.0496         estimate D2E/DX2                !
 ! D108  D(32,31,33,37)       -179.9367         estimate D2E/DX2                !
 ! D109  D(31,32,34,38)         -0.0059         estimate D2E/DX2                !
 ! D110  D(31,32,34,39)        179.9693         estimate D2E/DX2                !
 ! D111  D(35,32,34,38)       -179.913          estimate D2E/DX2                !
 ! D112  D(35,32,34,39)          0.0623         estimate D2E/DX2                !
 ! D113  D(31,33,36,38)         -0.0423         estimate D2E/DX2                !
 ! D114  D(31,33,36,40)        179.9918         estimate D2E/DX2                !
 ! D115  D(37,33,36,38)        179.944          estimate D2E/DX2                !
 ! D116  D(37,33,36,40)         -0.0219         estimate D2E/DX2                !
 ! D117  D(32,34,38,36)          0.013          estimate D2E/DX2                !
 ! D118  D(32,34,38,41)       -179.9951         estimate D2E/DX2                !
 ! D119  D(39,34,38,36)       -179.9618         estimate D2E/DX2                !
 ! D120  D(39,34,38,41)          0.0301         estimate D2E/DX2                !
 ! D121  D(33,36,38,34)          0.0113         estimate D2E/DX2                !
 ! D122  D(33,36,38,41)       -179.9813         estimate D2E/DX2                !
 ! D123  D(40,36,38,34)        179.9782         estimate D2E/DX2                !
 ! D124  D(40,36,38,41)         -0.0143         estimate D2E/DX2                !
 ! D125  D(34,38,41,42)         -0.0608         estimate D2E/DX2                !
 ! D126  D(36,38,41,42)        179.9314         estimate D2E/DX2                !
 ! D127  D(38,41,42,43)       -179.9751         estimate D2E/DX2                !
 ! D128  D(38,41,42,44)        -61.157          estimate D2E/DX2                !
 ! D129  D(38,41,42,45)         61.205          estimate D2E/DX2                !
 ! D130  D(24,47,48,50)         -8.7867         estimate D2E/DX2                !
 ! D131  D(49,47,48,50)        171.4658         estimate D2E/DX2                !
 ! D132  D(24,47,49,51)        176.0594         estimate D2E/DX2                !
 ! D133  D(48,47,49,51)         -4.1797         estimate D2E/DX2                !
 --------------------------------------------------------------------------------
 Trust Radius=3.00D-01 FncErr=1.00D-07 GrdErr=1.00D-06
 Number of steps in this run=    289 maximum allowed number of steps=    312.
 GradGradGradGradGradGradGradGradGradGradGradGradGradGradGradGradGradGrad

 Leave Link  103 at Tue Feb 16 06:52:36 2021, MaxMem=  5242880000 cpu:         0.4
 (Enter /opt/nce/packages/global/g09/l202.exe)
 Symmetry turned off by external request.
 Stoichiometry    C26H21BNO3(1+)
 Framework group  C1[X(C26H21BNO3)]
 Deg. of freedom   150
 Full point group                 C1      NOp   1
                          Input orientation:                          
 ---------------------------------------------------------------------
 Center     Atomic      Atomic             Coordinates (Angstroms)
 Number     Number       Type             X           Y           Z
 ---------------------------------------------------------------------
      1          6           0       -0.646901    3.721652    0.383228
      2          6           0       -1.275038    2.515629    0.154004
      3          6           0       -0.502997    1.354404   -0.100218
      4          6           0        0.929656    1.448135   -0.135346
      5          6           0        1.534475    2.716196    0.131580
      6          6           0        0.766697    3.827290    0.382413
      7          6           0        1.700978    0.288147   -0.394804
      8          6           0        1.043387   -0.945260   -0.621226
      9          6           0       -0.389535   -1.007834   -0.554509
     10          6           0       -1.047902   -2.245585   -0.756400
     11          1           0       -2.132844   -2.295404   -0.697888
     12          6           0       -0.309572   -3.378206   -1.029301
     13          6           0        1.103447   -3.330502   -1.125021
     14          6           0        1.762243   -2.141426   -0.929535
     15          1           0       -1.253271    4.608851    0.578029
     16          1           0       -2.360536    2.447501    0.169872
     17          1           0        2.621806    2.782304    0.132719
     18          1           0        1.240084    4.789621    0.584003
     19          1           0       -0.828377   -4.326766   -1.183900
     20          1           0        1.663857   -4.236727   -1.360127
     21          1           0        2.846716   -2.092365   -1.010771
     22          7           0       -1.109617    0.136597   -0.298459
     23          6           0        3.184373    0.354287   -0.413151
     24          6           0        3.937422   -0.310873    0.584512
     25          6           0        3.824204    1.040508   -1.457573
     26          6           0        5.337947   -0.269600    0.484419
     27          6           0        5.217889    1.067011   -1.527920
     28          6           0        5.976246    0.411149   -0.554924
     29          1           0        5.709645    1.594079   -2.348282
     30          1           0        3.228115    1.533816   -2.228750
     31          6           0       -2.554964    0.055352   -0.234791
     32          6           0       -3.178542   -0.202502    0.983755
     33          6           0       -3.310504    0.235337   -1.399814
     34          6           0       -4.570761   -0.283392    1.052960
     35          1           0       -2.577336   -0.342801    1.884457
     36          6           0       -4.694321    0.156667   -1.337529
     37          1           0       -2.810567    0.435920   -2.349492
     38          6           0       -5.341076   -0.103641   -0.111062
     39          1           0       -5.043422   -0.486117    2.012807
     40          1           0       -5.309962    0.292484   -2.227793
     41          8           0       -6.678766   -0.161103   -0.152552
     42          6           0       -7.411398   -0.419612    1.033789
     43          1           0       -8.470052   -0.418075    0.748115
     44          1           0       -7.151885   -1.403804    1.459419
     45          1           0       -7.238820    0.363933    1.791042
     46          1           0        7.066928    0.427878   -0.608560
     47          5           0        3.269609   -1.052546    1.807387
     48          8           0        2.178367   -0.563843    2.474467
     49          8           0        3.807825   -2.230373    2.203326
     50          1           0        1.928497    0.333258    2.226167
     51          1           0        3.383889   -2.593842    2.993638
     52          1           0        5.934663   -0.784620    1.240442
 ---------------------------------------------------------------------
 Rotational constants (GHZ):      0.2978832      0.0890757      0.0788022
 Leave Link  202 at Tue Feb 16 06:52:36 2021, MaxMem=  5242880000 cpu:         0.2
 (Enter /opt/nce/packages/global/g09/l301.exe)
 Standard basis: def2TZVP (5D, 7F)
 Ernie: Thresh=  0.10000D-02 Tol=  0.10000D-05 Strict=F.
  1087 basis functions,  1749 primitive gaussians,  1242 cartesian basis functions
   106 alpha electrons      106 beta electrons
       nuclear repulsion energy      2874.9988380751 Hartrees.
 IExCor= 4134 DFT=T Ex+Corr=M06L ExCW=0 ScaHFX=  0.000000
 ScaDFX=  1.000000  1.000000  1.000000  1.000000 ScalE2=  1.000000  1.000000
 IRadAn=      5 IRanWt=     -1 IRanGd=            0 ICorTp=0 IEmpDi=  4
 NAtoms=   52 NActive=   52 NUniq=   52 SFac= 1.00D+00 NAtFMM=   60 NAOKFM=F Big=F
 Integral buffers will be    131072 words long.
 Raffenetti 2 integral format.
 Two-electron integral symmetry is turned off.
 ------------------------------------------------------------------------------
 Polarizable Continuum Model (PCM)
 =================================
 Model                : PCM (using non-symmetric T matrix).
 Atomic radii         : SMD-Coulomb.
 Polarization charges : Total charges.
 Charge compensation  : None.
 Solution method      : On-the-fly selection.
 Cavity type          : VdW (van der Waals Surface) (Alpha=1.000).
 Cavity algorithm     : GePol (No added spheres)
                        Default sphere list used, NSphG=   52.
                        Lebedev-Laikov grids with approx.  5.0 points / Ang**2.
                        Smoothing algorithm: York/Karplus (Gamma=1.0000).
                        Polarization charges: spherical gaussians, with
                                              point-specific exponents (IZeta= 3).
                        Self-potential: point-specific (ISelfS= 7).
                        Self-field    : sphere-specific E.n sum rule (ISelfD= 2).
 1st derivatives      : Analytical E(r).r(x)/FMM algorithm (CHGder, D1EAlg=3).
                        Cavity 1st derivative terms included.
 Solvent              : Acetonitrile, Eps=  35.688000 Eps(inf)=   1.806874
 ------------------------------------------------------------------------------
 GePol: Number of generator spheres                  =      52
 GePol: Total number of spheres                      =      52
 GePol: Number of exposed spheres                    =      50 ( 96.15%)
 GePol: Number of points                             =    3793
 GePol: Average weight of points                     =       0.12
 GePol: Minimum weight of points                     =   0.96D-11
 GePol: Maximum weight of points                     =    0.21559
 GePol: Number of points with low weight             =     233
 GePol: Fraction of low-weight points (<1% of avg)   =       6.14%
 GePol: Cavity surface area                          =    438.989 Ang**2
 GePol: Cavity volume                                =    445.444 Ang**3
 ------------------------------------------------------------------------------
 Atomic radii for non-electrostatic terms: SMD-CDS.
 ------------------------------------------------------------------------------
 PCM non-electrostatic energy =        -0.0084817840 Hartrees.
 Nuclear repulsion after PCM non-electrostatic terms =     2874.9903562910 Hartrees.
 Leave Link  301 at Tue Feb 16 06:52:37 2021, MaxMem=  5242880000 cpu:         9.5
 (Enter /opt/nce/packages/global/g09/l302.exe)
 NPDir=0 NMtPBC=     1 NCelOv=     1 NCel=       1 NClECP=     1 NCelD=      1
         NCelK=      1 NCelE2=     1 NClLst=     1 CellRange=     0.0.
 One-electron integrals computed using PRISM.
   1 Symmetry operations used in ECPInt.
 ECPInt:  NShTT=   90525 NPrTT=  279376 LenC2=   73614 LenP2D=  155946.
 LDataN:  DoStor=T MaxTD1= 6 Len=  172
 NBasis=  1087 RedAO= T EigKep=  4.68D-06  NBF=  1087
 NBsUse=  1087 1.00D-06 EigRej= -1.00D+00 NBFU=  1087
 Precomputing XC quadrature grid using
 IXCGrd= 4 IRadAn=           5 IRanWt=          -1 IRanGd=           0 AccXCQ= 0.00D+00.
 Generated NRdTot=       0 NPtTot=           0 NUsed=           0 NTot=          32
 NSgBfM=  1191  1191  1191  1191  1191 MxSgAt=    52 MxSgA2=    52.
 Leave Link  302 at Tue Feb 16 06:52:41 2021, MaxMem=  5242880000 cpu:        43.8
 (Enter /opt/nce/packages/global/g09/l303.exe)
 DipDrv:  MaxL=1.
 Leave Link  303 at Tue Feb 16 06:52:42 2021, MaxMem=  5242880000 cpu:         3.3
 (Enter /opt/nce/packages/global/g09/l401.exe)
 ExpMin= 6.06D-02 ExpMax= 2.70D+04 ExpMxC= 9.22D+02 IAcc=3 IRadAn=         5 AccDes= 0.00D+00
 Harris functional with IExCor= 1009 and IRadAn=       5 diagonalized for initial guess.
 HarFok:  IExCor= 1009 AccDes= 0.00D+00 IRadAn=         5 IDoV= 1 UseB2=F ITyADJ=14
 ICtDFT=  3500011 ScaDFX=  1.000000  1.000000  1.000000  1.000000
 FoFCou: FMM=F IPFlag=           0 FMFlag=      100000 FMFlg1=           0
         NFxFlg=           0 DoJE=T BraDBF=F KetDBF=T FulRan=T
         wScrn=  0.000000 ICntrl=     500 IOpCl=  0 I1Cent=   200000004 NGrid=           0
         NMat0=    1 NMatS0=      1 NMatT0=    0 NMatD0=    1 NMtDS0=    0 NMtDT0=    0
 Symmetry not used in FoFCou.
 Harris En= -1307.92298541136    
 JPrj=0 DoOrth=F DoCkMO=F.
 Leave Link  401 at Tue Feb 16 06:53:01 2021, MaxMem=  5242880000 cpu:       163.9
 (Enter /opt/nce/packages/global/g09/l502.exe)
 Closed shell SCF:
 Using DIIS extrapolation, IDIIS=  1040.
 Two-electron integral symmetry not used.
 IVT=     4668702 IEndB=     4668702 NGot=  5242880000 MDV=  5239771745
 LenX=  5239771745 LenY=  5238227939
 Requested convergence on RMS density matrix=1.00D-08 within 128 cycles.
 Requested convergence on MAX density matrix=1.00D-06.
 Requested convergence on             energy=1.00D-06.
 No special actions if energy rises.
 Fock matrices will be formed incrementally for  20 cycles.

 Cycle   1  Pass 1  IDiag  1:
 FoFJK:  IHMeth= 1 ICntrl=     500 DoSepK=F KAlg= 0 I1Cent=   0 FoldK=F
 IRaf= 700000000 NMat=   1 IRICut=       1 DoRegI=T DoRafI=F ISym2E= 0.
 FoFCou: FMM=F IPFlag=           0 FMFlag=      100000 FMFlg1=           0
         NFxFlg=           0 DoJE=T BraDBF=F KetDBF=F FulRan=T
         wScrn=  0.000000 ICntrl=     500 IOpCl=  0 I1Cent=           0 NGrid=           0
         NMat0=    1 NMatS0=      1 NMatT0=    0 NMatD0=    1 NMtDS0=    0 NMtDT0=    0
 Symmetry not used in FoFCou.
 Inv3:  Mode=1 IEnd=    43160547.
 Iteration    1 A*A^-1 deviation from unit magnitude is 7.99D-15 for   3783.
 Iteration    1 A*A^-1 deviation from orthogonality  is 4.31D-15 for   1249    678.
 Iteration    1 A^-1*A deviation from unit magnitude is 7.77D-15 for   3783.
 Iteration    1 A^-1*A deviation from orthogonality  is 1.54D-12 for   1858   1787.
 E= -1308.37208196283    
 DIIS: error= 1.59D-02 at cycle   1 NSaved=   1.
 NSaved= 1 IEnMin= 1 EnMin= -1308.37208196283     IErMin= 1 ErrMin= 1.59D-02
 ErrMax= 1.59D-02  0.00D+00 EMaxC= 1.00D-01 BMatC= 7.90D-01 BMatP= 7.90D-01
 IDIUse=3 WtCom= 8.41D-01 WtEn= 1.59D-01
 Coeff-Com:  0.100D+01
 Coeff-En:   0.100D+01
 Coeff:      0.100D+01
 Gap=     0.060 Goal=   None    Shift=    0.000
 GapD=    0.060 DampG=0.500 DampE=0.500 DampFc=0.2500 IDamp=-1.
 Damping current iteration by 2.50D-01
 RMSDP=4.43D-03 MaxDP=1.59D+00              OVMax= 4.15D-01

 Cycle   2  Pass 1  IDiag  1:
 RMSU=  1.10D-03    CP:  1.03D+00
 E= -1308.58210572154     Delta-E=       -0.210023758716 Rises=F Damp=T
 DIIS: error= 7.66D-03 at cycle   2 NSaved=   2.
 NSaved= 2 IEnMin= 2 EnMin= -1308.58210572154     IErMin= 2 ErrMin= 7.66D-03
 ErrMax= 7.66D-03  0.00D+00 EMaxC= 1.00D-01 BMatC= 2.27D-01 BMatP= 7.90D-01
 IDIUse=3 WtCom= 9.23D-01 WtEn= 7.66D-02
 Coeff-Com: -0.699D+00 0.170D+01
 Coeff-En:   0.000D+00 0.100D+01
 Coeff:     -0.645D+00 0.165D+01
 Gap=     0.121 Goal=   None    Shift=    0.000
 RMSDP=2.11D-03 MaxDP=2.50D-01 DE=-2.10D-01 OVMax= 5.41D-01

 Cycle   3  Pass 1  IDiag  1:
 RMSU=  1.91D-03    CP:  1.03D+00  1.82D+00
 E= -1308.82858350594     Delta-E=       -0.246477784402 Rises=F Damp=F
 DIIS: error= 1.76D-02 at cycle   3 NSaved=   3.
 NSaved= 3 IEnMin= 3 EnMin= -1308.82858350594     IErMin= 2 ErrMin= 7.66D-03
 ErrMax= 1.76D-02  0.00D+00 EMaxC= 1.00D-01 BMatC= 1.39D-01 BMatP= 2.27D-01
 IDIUse=3 WtCom= 8.24D-01 WtEn= 1.76D-01
 Coeff-Com: -0.538D+00 0.103D+01 0.511D+00
 Coeff-En:   0.000D+00 0.000D+00 0.100D+01
 Coeff:     -0.444D+00 0.847D+00 0.597D+00
 Gap=     0.078 Goal=   None    Shift=    0.000
 RMSDP=6.89D-04 MaxDP=7.69D-02 DE=-2.46D-01 OVMax= 2.86D-01

 Cycle   4  Pass 1  IDiag  1:
 RMSU=  6.72D-04    CP:  1.04D+00  1.85D+00  9.28D-01
 E= -1308.88294162461     Delta-E=       -0.054358118663 Rises=F Damp=F
 DIIS: error= 9.45D-03 at cycle   4 NSaved=   4.
 NSaved= 4 IEnMin= 4 EnMin= -1308.88294162461     IErMin= 2 ErrMin= 7.66D-03
 ErrMax= 9.45D-03  0.00D+00 EMaxC= 1.00D-01 BMatC= 9.23D-02 BMatP= 1.39D-01
 IDIUse=3 WtCom= 9.05D-01 WtEn= 9.45D-02
 Coeff-Com: -0.196D+00 0.334D+00 0.452D+00 0.410D+00
 Coeff-En:   0.000D+00 0.000D+00 0.422D+00 0.578D+00
 Coeff:     -0.177D+00 0.303D+00 0.449D+00 0.426D+00
 Gap=     0.072 Goal=   None    Shift=    0.000
 RMSDP=3.52D-04 MaxDP=6.75D-02 DE=-5.44D-02 OVMax= 1.94D-01

 Cycle   5  Pass 1  IDiag  1:
 RMSU=  2.49D-04    CP:  1.04D+00  1.88D+00  9.03D-01  6.41D-01
 E= -1308.97788592193     Delta-E=       -0.094944297321 Rises=F Damp=F
 DIIS: error= 2.14D-03 at cycle   5 NSaved=   5.
 NSaved= 5 IEnMin= 5 EnMin= -1308.97788592193     IErMin= 5 ErrMin= 2.14D-03
 ErrMax= 2.14D-03  0.00D+00 EMaxC= 1.00D-01 BMatC= 5.35D-03 BMatP= 9.23D-02
 IDIUse=3 WtCom= 9.79D-01 WtEn= 2.14D-02
 Coeff-Com: -0.566D-01 0.819D-01 0.229D+00 0.272D+00 0.474D+00
 Coeff-En:   0.000D+00 0.000D+00 0.000D+00 0.000D+00 0.100D+01
 Coeff:     -0.554D-01 0.802D-01 0.224D+00 0.266D+00 0.486D+00
 Gap=     0.076 Goal=   None    Shift=    0.000
 RMSDP=1.82D-04 MaxDP=7.20D-02 DE=-9.49D-02 OVMax= 4.95D-02

 Cycle   6  Pass 1  IDiag  1:
 RMSU=  1.31D-04    CP:  1.04D+00  1.83D+00  8.86D-01  6.01D-01  5.81D-01
 E= -1308.98210252741     Delta-E=       -0.004216605479 Rises=F Damp=F
 DIIS: error= 1.53D-03 at cycle   6 NSaved=   6.
 NSaved= 6 IEnMin= 6 EnMin= -1308.98210252741     IErMin= 6 ErrMin= 1.53D-03
 ErrMax= 1.53D-03  0.00D+00 EMaxC= 1.00D-01 BMatC= 1.29D-03 BMatP= 5.35D-03
 IDIUse=3 WtCom= 9.85D-01 WtEn= 1.53D-02
 Coeff-Com: -0.162D-01 0.184D-01 0.755D-01 0.936D-01 0.341D+00 0.488D+00
 Coeff-En:   0.000D+00 0.000D+00 0.000D+00 0.000D+00 0.258D+00 0.742D+00
 Coeff:     -0.159D-01 0.181D-01 0.744D-01 0.922D-01 0.340D+00 0.492D+00
 Gap=     0.075 Goal=   None    Shift=    0.000
 RMSDP=6.93D-05 MaxDP=2.89D-02 DE=-4.22D-03 OVMax= 2.12D-02

 Cycle   7  Pass 1  IDiag  1:
 RMSU=  4.67D-05    CP:  1.04D+00  1.85D+00  8.84D-01  5.92D-01  7.15D-01
                    CP:  7.53D-01
 E= -1308.98342064092     Delta-E=       -0.001318113511 Rises=F Damp=F
 DIIS: error= 5.22D-04 at cycle   7 NSaved=   7.
 NSaved= 7 IEnMin= 7 EnMin= -1308.98342064092     IErMin= 7 ErrMin= 5.22D-04
 ErrMax= 5.22D-04  0.00D+00 EMaxC= 1.00D-01 BMatC= 1.99D-04 BMatP= 1.29D-03
 IDIUse=3 WtCom= 9.95D-01 WtEn= 5.22D-03
 Coeff-Com: -0.486D-02 0.456D-02 0.105D-01 0.103D-01 0.147D+00 0.340D+00
 Coeff-Com:  0.493D+00
 Coeff-En:   0.000D+00 0.000D+00 0.000D+00 0.000D+00 0.000D+00 0.120D+00
 Coeff-En:   0.880D+00
 Coeff:     -0.483D-02 0.454D-02 0.104D-01 0.102D-01 0.146D+00 0.339D+00
 Coeff:      0.495D+00
 Gap=     0.075 Goal=   None    Shift=    0.000
 RMSDP=2.07D-05 MaxDP=1.81D-03 DE=-1.32D-03 OVMax= 5.08D-03

 Cycle   8  Pass 1  IDiag  1:
 RMSU=  1.65D-05    CP:  1.04D+00  1.85D+00  8.81D-01  5.92D-01  7.36D-01
                    CP:  8.09D-01  8.70D-01
 E= -1308.98361116902     Delta-E=       -0.000190528101 Rises=F Damp=F
 DIIS: error= 1.02D-04 at cycle   8 NSaved=   8.
 NSaved= 8 IEnMin= 8 EnMin= -1308.98361116902     IErMin= 8 ErrMin= 1.02D-04
 ErrMax= 1.02D-04  0.00D+00 EMaxC= 1.00D-01 BMatC= 1.11D-05 BMatP= 1.99D-04
 IDIUse=3 WtCom= 9.99D-01 WtEn= 1.02D-03
 Coeff-Com: -0.259D-02 0.289D-02-0.183D-03-0.324D-02 0.499D-01 0.144D+00
 Coeff-Com:  0.268D+00 0.542D+00
 Coeff-En:   0.000D+00 0.000D+00 0.000D+00 0.000D+00 0.000D+00 0.000D+00
 Coeff-En:   0.000D+00 0.100D+01
 Coeff:     -0.258D-02 0.288D-02-0.183D-03-0.324D-02 0.498D-01 0.143D+00
 Coeff:      0.268D+00 0.542D+00
 Gap=     0.075 Goal=   None    Shift=    0.000
 RMSDP=7.41D-06 MaxDP=1.11D-03 DE=-1.91D-04 OVMax= 1.81D-03

 Cycle   9  Pass 1  IDiag  1:
 RMSU=  5.83D-06    CP:  1.04D+00  1.85D+00  8.80D-01  5.91D-01  7.39D-01
                    CP:  8.22D-01  9.35D-01  9.18D-01
 E= -1308.98361957718     Delta-E=       -0.000008408161 Rises=F Damp=F
 DIIS: error= 6.16D-05 at cycle   9 NSaved=   9.
 NSaved= 9 IEnMin= 9 EnMin= -1308.98361957718     IErMin= 9 ErrMin= 6.16D-05
 ErrMax= 6.16D-05  0.00D+00 EMaxC= 1.00D-01 BMatC= 2.61D-06 BMatP= 1.11D-05
 IDIUse=1 WtCom= 1.00D+00 WtEn= 0.00D+00
 Coeff-Com: -0.133D-02 0.172D-02-0.123D-02-0.349D-02 0.107D-01 0.416D-01
 Coeff-Com:  0.950D-01 0.353D+00 0.504D+00
 Coeff:     -0.133D-02 0.172D-02-0.123D-02-0.349D-02 0.107D-01 0.416D-01
 Coeff:      0.950D-01 0.353D+00 0.504D+00
 Gap=     0.075 Goal=   None    Shift=    0.000
 RMSDP=3.64D-06 MaxDP=7.65D-04 DE=-8.41D-06 OVMax= 7.73D-04

 Cycle  10  Pass 1  IDiag  1:
 RMSU=  2.22D-06    CP:  1.04D+00  1.85D+00  8.80D-01  5.91D-01  7.41D-01
                    CP:  8.31D-01  9.49D-01  1.02D+00  8.40D-01
 E= -1308.98362212437     Delta-E=       -0.000002547188 Rises=F Damp=F
 DIIS: error= 8.15D-06 at cycle  10 NSaved=  10.
 NSaved=10 IEnMin=10 EnMin= -1308.98362212437     IErMin=10 ErrMin= 8.15D-06
 ErrMax= 8.15D-06  0.00D+00 EMaxC= 1.00D-01 BMatC= 1.68D-07 BMatP= 2.61D-06
 IDIUse=1 WtCom= 1.00D+00 WtEn= 0.00D+00
 Coeff-Com: -0.464D-03 0.648D-03-0.346D-03-0.111D-02-0.206D-02-0.143D-02
 Coeff-Com:  0.456D-02 0.837D-01 0.237D+00 0.679D+00
 Coeff:     -0.464D-03 0.648D-03-0.346D-03-0.111D-02-0.206D-02-0.143D-02
 Coeff:      0.456D-02 0.837D-01 0.237D+00 0.679D+00
 Gap=     0.075 Goal=   None    Shift=    0.000
 RMSDP=2.08D-06 MaxDP=3.09D-04 DE=-2.55D-06 OVMax= 1.25D-04

 Cycle  11  Pass 1  IDiag  1:
 RMSU=  9.27D-07    CP:  1.04D+00  1.85D+00  8.79D-01  5.90D-01  7.42D-01
                    CP:  8.36D-01  9.66D-01  1.06D+00  9.51D-01  1.14D+00
 E= -1308.98362223937     Delta-E=       -0.000000114997 Rises=F Damp=F
 DIIS: error= 4.77D-06 at cycle  11 NSaved=  11.
 NSaved=11 IEnMin=11 EnMin= -1308.98362223937     IErMin=11 ErrMin= 4.77D-06
 ErrMax= 4.77D-06  0.00D+00 EMaxC= 1.00D-01 BMatC= 3.78D-08 BMatP= 1.68D-07
 IDIUse=1 WtCom= 1.00D+00 WtEn= 0.00D+00
 Coeff-Com: -0.113D-03 0.175D-03-0.182D-04-0.120D-03-0.295D-02-0.749D-02
 Coeff-Com: -0.121D-01-0.579D-02 0.620D-01 0.398D+00 0.568D+00
 Coeff:     -0.113D-03 0.175D-03-0.182D-04-0.120D-03-0.295D-02-0.749D-02
 Coeff:     -0.121D-01-0.579D-02 0.620D-01 0.398D+00 0.568D+00
 Gap=     0.075 Goal=   None    Shift=    0.000
 RMSDP=7.53D-07 MaxDP=1.36D-04 DE=-1.15D-07 OVMax= 3.76D-05

 Cycle  12  Pass 1  IDiag  1:
 RMSU=  3.08D-07    CP:  1.04D+00  1.85D+00  8.79D-01  5.90D-01  7.43D-01
                    CP:  8.38D-01  9.72D-01  1.08D+00  9.85D-01  1.27D+00
                    CP:  1.11D+00
 E= -1308.98362227594     Delta-E=       -0.000000036569 Rises=F Damp=F
 DIIS: error= 1.03D-06 at cycle  12 NSaved=  12.
 NSaved=12 IEnMin=12 EnMin= -1308.98362227594     IErMin=12 ErrMin= 1.03D-06
 ErrMax= 1.03D-06  0.00D+00 EMaxC= 1.00D-01 BMatC= 1.84D-09 BMatP= 3.78D-08
 IDIUse=1 WtCom= 1.00D+00 WtEn= 0.00D+00
 Coeff-Com: -0.389D-04 0.598D-04 0.207D-04 0.263D-04-0.113D-02-0.317D-02
 Coeff-Com: -0.538D-02-0.704D-02 0.131D-01 0.134D+00 0.254D+00 0.616D+00
 Coeff:     -0.389D-04 0.598D-04 0.207D-04 0.263D-04-0.113D-02-0.317D-02
 Coeff:     -0.538D-02-0.704D-02 0.131D-01 0.134D+00 0.254D+00 0.616D+00
 Gap=     0.075 Goal=   None    Shift=    0.000
 RMSDP=2.04D-07 MaxDP=3.52D-05 DE=-3.66D-08 OVMax= 1.29D-05

 Cycle  13  Pass 1  IDiag  1:
 RMSU=  8.25D-08    CP:  1.04D+00  1.85D+00  8.79D-01  5.90D-01  7.43D-01
                    CP:  8.38D-01  9.74D-01  1.08D+00  9.97D-01  1.30D+00
                    CP:  1.18D+00  1.12D+00
 E= -1308.98362227716     Delta-E=       -0.000000001221 Rises=F Damp=F
 DIIS: error= 4.77D-07 at cycle  13 NSaved=  13.
 NSaved=13 IEnMin=13 EnMin= -1308.98362227716     IErMin=13 ErrMin= 4.77D-07
 ErrMax= 4.77D-07  0.00D+00 EMaxC= 1.00D-01 BMatC= 5.48D-10 BMatP= 1.84D-09
 IDIUse=1 WtCom= 1.00D+00 WtEn= 0.00D+00
 Coeff-Com: -0.215D-05 0.304D-05 0.497D-05 0.307D-04-0.149D-03-0.501D-03
 Coeff-Com: -0.912D-03-0.314D-02-0.498D-02-0.147D-03 0.374D-01 0.372D+00
 Coeff-Com:  0.600D+00
 Coeff:     -0.215D-05 0.304D-05 0.497D-05 0.307D-04-0.149D-03-0.501D-03
 Coeff:     -0.912D-03-0.314D-02-0.498D-02-0.147D-03 0.374D-01 0.372D+00
 Coeff:      0.600D+00
 Gap=     0.075 Goal=   None    Shift=    0.000
 RMSDP=1.15D-07 MaxDP=2.22D-05 DE=-1.22D-09 OVMax= 6.31D-06

 Cycle  14  Pass 1  IDiag  1:
 RMSU=  3.88D-08    CP:  1.04D+00  1.85D+00  8.79D-01  5.90D-01  7.43D-01
                    CP:  8.38D-01  9.75D-01  1.08D+00  1.00D+00  1.32D+00
                    CP:  1.23D+00  1.19D+00  1.07D+00
 E= -1308.98362227764     Delta-E=       -0.000000000486 Rises=F Damp=F
 DIIS: error= 1.84D-07 at cycle  14 NSaved=  14.
 NSaved=14 IEnMin=14 EnMin= -1308.98362227764     IErMin=14 ErrMin= 1.84D-07
 ErrMax= 1.84D-07  0.00D+00 EMaxC= 1.00D-01 BMatC= 3.91D-11 BMatP= 5.48D-10
 IDIUse=1 WtCom= 1.00D+00 WtEn= 0.00D+00
 Coeff-Com:  0.117D-05-0.188D-05 0.408D-06 0.109D-04 0.234D-04 0.485D-04
 Coeff-Com:  0.402D-04-0.785D-03-0.350D-02-0.118D-01-0.488D-02 0.118D+00
 Coeff-Com:  0.293D+00 0.610D+00
 Coeff:      0.117D-05-0.188D-05 0.408D-06 0.109D-04 0.234D-04 0.485D-04
 Coeff:      0.402D-04-0.785D-03-0.350D-02-0.118D-01-0.488D-02 0.118D+00
 Coeff:      0.293D+00 0.610D+00
 Gap=     0.075 Goal=   None    Shift=    0.000
 RMSDP=3.27D-08 MaxDP=7.01D-06 DE=-4.86D-10 OVMax= 2.13D-06

 Cycle  15  Pass 1  IDiag  1:
 RMSU=  1.14D-08    CP:  1.04D+00  1.85D+00  8.79D-01  5.90D-01  7.43D-01
                    CP:  8.38D-01  9.75D-01  1.08D+00  1.00D+00  1.32D+00
                    CP:  1.24D+00  1.22D+00  1.18D+00  1.17D+00
 E= -1308.98362227766     Delta-E=       -0.000000000016 Rises=F Damp=F
 DIIS: error= 8.80D-08 at cycle  15 NSaved=  15.
 NSaved=15 IEnMin=15 EnMin= -1308.98362227766     IErMin=15 ErrMin= 8.80D-08
 ErrMax= 8.80D-08  0.00D+00 EMaxC= 1.00D-01 BMatC= 8.16D-12 BMatP= 3.91D-11
 IDIUse=1 WtCom= 1.00D+00 WtEn= 0.00D+00
 Coeff-Com:  0.860D-06-0.134D-05-0.367D-06 0.167D-05 0.353D-04 0.107D-03
 Coeff-Com:  0.160D-03 0.101D-04-0.132D-02-0.692D-02-0.816D-02 0.154D-01
 Coeff-Com:  0.889D-01 0.360D+00 0.552D+00
 Coeff:      0.860D-06-0.134D-05-0.367D-06 0.167D-05 0.353D-04 0.107D-03
 Coeff:      0.160D-03 0.101D-04-0.132D-02-0.692D-02-0.816D-02 0.154D-01
 Coeff:      0.889D-01 0.360D+00 0.552D+00
 Gap=     0.075 Goal=   None    Shift=    0.000
 RMSDP=1.19D-08 MaxDP=2.78D-06 DE=-1.64D-11 OVMax= 9.71D-07

 Cycle  16  Pass 1  IDiag  1:
 RMSU=  3.96D-09    CP:  1.04D+00  1.85D+00  8.79D-01  5.90D-01  7.43D-01
                    CP:  8.39D-01  9.75D-01  1.08D+00  1.00D+00  1.32D+00
                    CP:  1.25D+00  1.23D+00  1.22D+00  1.28D+00  1.09D+00
 E= -1308.98362227764     Delta-E=        0.000000000021 Rises=F Damp=F
 DIIS: error= 1.63D-08 at cycle  16 NSaved=  16.
 NSaved=16 IEnMin=15 EnMin= -1308.98362227766     IErMin=16 ErrMin= 1.63D-08
 ErrMax= 1.63D-08  0.00D+00 EMaxC= 1.00D-01 BMatC= 7.01D-13 BMatP= 8.16D-12
 IDIUse=1 WtCom= 1.00D+00 WtEn= 0.00D+00
 Coeff-Com:  0.206D-06-0.319D-06-0.661D-07-0.360D-06 0.133D-04 0.446D-04
 Coeff-Com:  0.676D-04 0.940D-04-0.226D-03-0.186D-02-0.320D-02-0.606D-02
 Coeff-Com:  0.105D-01 0.109D+00 0.281D+00 0.610D+00
 Coeff:      0.206D-06-0.319D-06-0.661D-07-0.360D-06 0.133D-04 0.446D-04
 Coeff:      0.676D-04 0.940D-04-0.226D-03-0.186D-02-0.320D-02-0.606D-02
 Coeff:      0.105D-01 0.109D+00 0.281D+00 0.610D+00
 Gap=     0.075 Goal=   None    Shift=    0.000
 RMSDP=4.28D-09 MaxDP=7.66D-07 DE= 2.09D-11 OVMax= 3.18D-07

 Error on total polarization charges =  0.04707
 SCF Done:  E(RM06L) =  -1308.98362228     A.U. after   16 cycles
            NFock= 16  Conv=0.43D-08     -V/T= 2.0049
 KE= 1.302575882083D+03 PE=-8.770772416786D+03 EE= 3.284222556135D+03
 SMD-CDS (non-electrostatic) energy       (kcal/mol) =      -5.32
 (included in total energy above)
 Leave Link  502 at Tue Feb 16 07:17:39 2021, MaxMem=  5242880000 cpu:     14854.6
 (Enter /opt/nce/packages/global/g09/l601.exe)
 Copying SCF densities to generalized density rwf, IOpCl= 0 IROHF=0.

 **********************************************************************

            Population analysis using the SCF density.

 **********************************************************************

 Alpha  occ. eigenvalues --  -19.00734 -18.97910 -18.97589 -14.27723 -10.13851
 Alpha  occ. eigenvalues --  -10.13816 -10.12435 -10.11807 -10.10201 -10.09972
 Alpha  occ. eigenvalues --  -10.09935 -10.09904 -10.08068 -10.08010 -10.07985
 Alpha  occ. eigenvalues --  -10.07703 -10.07658 -10.07453 -10.07441 -10.07095
 Alpha  occ. eigenvalues --  -10.07073 -10.07013 -10.06968 -10.06453 -10.06157
 Alpha  occ. eigenvalues --  -10.06071 -10.06024 -10.06004 -10.05925 -10.05219
 Alpha  occ. eigenvalues --   -6.67450  -1.05276  -1.01620  -0.99149  -0.98603
 Alpha  occ. eigenvalues --   -0.86146  -0.84688  -0.83017  -0.82057  -0.79338
 Alpha  occ. eigenvalues --   -0.75323  -0.74198  -0.73778  -0.72818  -0.72287
 Alpha  occ. eigenvalues --   -0.71880  -0.71044  -0.66882  -0.65004  -0.62829
 Alpha  occ. eigenvalues --   -0.61625  -0.59172  -0.58388  -0.57949  -0.57548
 Alpha  occ. eigenvalues --   -0.55225  -0.53594  -0.53501  -0.52716  -0.51465
 Alpha  occ. eigenvalues --   -0.50597  -0.49763  -0.48176  -0.47099  -0.46589
 Alpha  occ. eigenvalues --   -0.44951  -0.44693  -0.44583  -0.43427  -0.43333
 Alpha  occ. eigenvalues --   -0.42083  -0.42002  -0.41789  -0.41513  -0.41314
 Alpha  occ. eigenvalues --   -0.40768  -0.39833  -0.39393  -0.38768  -0.38235
 Alpha  occ. eigenvalues --   -0.37470  -0.36623  -0.36176  -0.35946  -0.35652
 Alpha  occ. eigenvalues --   -0.35022  -0.34719  -0.34169  -0.33672  -0.33454
 Alpha  occ. eigenvalues --   -0.33342  -0.33143  -0.32388  -0.31259  -0.30459
 Alpha  occ. eigenvalues --   -0.30203  -0.29781  -0.29359  -0.28604  -0.26530
 Alpha  occ. eigenvalues --   -0.25619  -0.24797  -0.24281  -0.24239  -0.22348
 Alpha  occ. eigenvalues --   -0.21207
 Alpha virt. eigenvalues --   -0.13687  -0.07219  -0.06164  -0.05525  -0.04524
 Alpha virt. eigenvalues --   -0.04014  -0.03645  -0.03115   0.00133   0.03456
 Alpha virt. eigenvalues --    0.04401   0.04984   0.05037   0.06089   0.06196
 Alpha virt. eigenvalues --    0.06586   0.06903   0.07441   0.08151   0.08804
 Alpha virt. eigenvalues --    0.08891   0.09008   0.09063   0.09727   0.09878
 Alpha virt. eigenvalues --    0.10417   0.10578   0.11131   0.11420   0.11776
 Alpha virt. eigenvalues --    0.11944   0.11984   0.12382   0.12480   0.13124
 Alpha virt. eigenvalues --    0.13250   0.13497   0.13927   0.14585   0.15298
 Alpha virt. eigenvalues --    0.16499   0.16805   0.17509   0.17642   0.17927
 Alpha virt. eigenvalues --    0.18750   0.19319   0.19449   0.20043   0.20485
 Alpha virt. eigenvalues --    0.20717   0.21001   0.21193   0.21668   0.21787
 Alpha virt. eigenvalues --    0.21992   0.22278   0.22538   0.22679   0.23064
 Alpha virt. eigenvalues --    0.23275   0.23676   0.23912   0.24260   0.24438
 Alpha virt. eigenvalues --    0.25109   0.25471   0.25599   0.25893   0.25971
 Alpha virt. eigenvalues --    0.26632   0.26757   0.26921   0.27042   0.27370
 Alpha virt. eigenvalues --    0.27408   0.28076   0.28518   0.29029   0.29511
 Alpha virt. eigenvalues --    0.29673   0.30061   0.30396   0.30543   0.31048
 Alpha virt. eigenvalues --    0.31212   0.31643   0.31760   0.31901   0.32372
 Alpha virt. eigenvalues --    0.32846   0.33262   0.33457   0.33717   0.33929
 Alpha virt. eigenvalues --    0.34029   0.34285   0.34614   0.34857   0.35137
 Alpha virt. eigenvalues --    0.35493   0.35896   0.35987   0.36108   0.36813
 Alpha virt. eigenvalues --    0.36856   0.37270   0.37724   0.38136   0.38412
 Alpha virt. eigenvalues --    0.38640   0.38960   0.39216   0.39642   0.39729
 Alpha virt. eigenvalues --    0.40032   0.40261   0.40363   0.40432   0.40799
 Alpha virt. eigenvalues --    0.41273   0.41655   0.42208   0.42291   0.42536
 Alpha virt. eigenvalues --    0.42806   0.42920   0.43320   0.43853   0.44147
 Alpha virt. eigenvalues --    0.44452   0.44671   0.44833   0.45156   0.45452
 Alpha virt. eigenvalues --    0.45568   0.45887   0.46617   0.46764   0.47268
 Alpha virt. eigenvalues --    0.47554   0.47988   0.48242   0.48707   0.49033
 Alpha virt. eigenvalues --    0.49200   0.49659   0.50394   0.50556   0.51166
 Alpha virt. eigenvalues --    0.51433   0.51692   0.52269   0.52499   0.53342
 Alpha virt. eigenvalues --    0.53444   0.54023   0.54868   0.55351   0.55503
 Alpha virt. eigenvalues --    0.56279   0.57299   0.57822   0.58222   0.58607
 Alpha virt. eigenvalues --    0.58976   0.59172   0.59681   0.59796   0.60599
 Alpha virt. eigenvalues --    0.61200   0.61734   0.61820   0.62317   0.62511
 Alpha virt. eigenvalues --    0.62814   0.63438   0.63531   0.63902   0.64263
 Alpha virt. eigenvalues --    0.64520   0.64585   0.64879   0.65003   0.65846
 Alpha virt. eigenvalues --    0.66091   0.66817   0.67243   0.67371   0.67754
 Alpha virt. eigenvalues --    0.68046   0.68547   0.68861   0.69218   0.69888
 Alpha virt. eigenvalues --    0.70114   0.70944   0.71116   0.71591   0.71965
 Alpha virt. eigenvalues --    0.72221   0.72430   0.72768   0.73279   0.73628
 Alpha virt. eigenvalues --    0.73998   0.74209   0.75084   0.75259   0.75526
 Alpha virt. eigenvalues --    0.76115   0.76488   0.77363   0.77789   0.78322
 Alpha virt. eigenvalues --    0.78781   0.79408   0.79912   0.80115   0.80606
 Alpha virt. eigenvalues --    0.80947   0.81502   0.81775   0.82116   0.83276
 Alpha virt. eigenvalues --    0.83352   0.83895   0.84880   0.85188   0.85693
 Alpha virt. eigenvalues --    0.86153   0.86486   0.86738   0.87126   0.87315
 Alpha virt. eigenvalues --    0.88276   0.88562   0.88977   0.89976   0.90736
 Alpha virt. eigenvalues --    0.90790   0.91938   0.92278   0.92851   0.93627
 Alpha virt. eigenvalues --    0.93729   0.94632   0.95125   0.96042   0.96297
 Alpha virt. eigenvalues --    0.96616   0.97178   0.97988   0.98489   1.00085
 Alpha virt. eigenvalues --    1.00604   1.01305   1.02169   1.02606   1.03385
 Alpha virt. eigenvalues --    1.03854   1.04093   1.04724   1.06082   1.06405
 Alpha virt. eigenvalues --    1.06987   1.07617   1.08009   1.08976   1.09142
 Alpha virt. eigenvalues --    1.09763   1.10299   1.10585   1.10757   1.11141
 Alpha virt. eigenvalues --    1.11234   1.12530   1.12703   1.13811   1.14544
 Alpha virt. eigenvalues --    1.14966   1.15737   1.16500   1.16652   1.17376
 Alpha virt. eigenvalues --    1.17649   1.18549   1.19826   1.20611   1.20918
 Alpha virt. eigenvalues --    1.21581   1.21827   1.22686   1.23165   1.23410
 Alpha virt. eigenvalues --    1.23696   1.23996   1.24418   1.24977   1.25199
 Alpha virt. eigenvalues --    1.25302   1.25974   1.26861   1.27358   1.27610
 Alpha virt. eigenvalues --    1.28055   1.29137   1.29591   1.30311   1.30793
 Alpha virt. eigenvalues --    1.31272   1.31714   1.31896   1.32766   1.33406
 Alpha virt. eigenvalues --    1.34064   1.34776   1.34947   1.36303   1.37363
 Alpha virt. eigenvalues --    1.37583   1.39356   1.40042   1.41618   1.41747
 Alpha virt. eigenvalues --    1.42209   1.42672   1.43486   1.44431   1.44624
 Alpha virt. eigenvalues --    1.45243   1.45542   1.46393   1.46512   1.46944
 Alpha virt. eigenvalues --    1.47488   1.47999   1.48457   1.48746   1.49538
 Alpha virt. eigenvalues --    1.49942   1.50369   1.51336   1.51611   1.51904
 Alpha virt. eigenvalues --    1.52447   1.52737   1.53318   1.53843   1.53913
 Alpha virt. eigenvalues --    1.54421   1.54971   1.55607   1.56175   1.56575
 Alpha virt. eigenvalues --    1.57041   1.57662   1.57774   1.58307   1.58974
 Alpha virt. eigenvalues --    1.59356   1.59556   1.60194   1.60840   1.61786
 Alpha virt. eigenvalues --    1.62328   1.62772   1.63033   1.63792   1.63964
 Alpha virt. eigenvalues --    1.64439   1.65009   1.65903   1.66136   1.66393
 Alpha virt. eigenvalues --    1.67700   1.67786   1.68387   1.68740   1.69177
 Alpha virt. eigenvalues --    1.69354   1.70308   1.70747   1.70926   1.71337
 Alpha virt. eigenvalues --    1.71809   1.72178   1.73031   1.73451   1.74279
 Alpha virt. eigenvalues --    1.74886   1.75343   1.75860   1.76467   1.76620
 Alpha virt. eigenvalues --    1.77418   1.77899   1.78346   1.78458   1.78803
 Alpha virt. eigenvalues --    1.79347   1.79697   1.80072   1.81624   1.82544
 Alpha virt. eigenvalues --    1.83546   1.84419   1.85403   1.85723   1.85810
 Alpha virt. eigenvalues --    1.87231   1.88263   1.88542   1.89350   1.89484
 Alpha virt. eigenvalues --    1.90205   1.90717   1.91266   1.91706   1.92668
 Alpha virt. eigenvalues --    1.93155   1.93737   1.94774   1.95256   1.95837
 Alpha virt. eigenvalues --    1.96431   1.96936   1.97559   1.98476   1.99911
 Alpha virt. eigenvalues --    2.00667   2.00892   2.01102   2.01768   2.02787
 Alpha virt. eigenvalues --    2.03455   2.04033   2.05246   2.05539   2.06060
 Alpha virt. eigenvalues --    2.07373   2.07862   2.08211   2.09126   2.09533
 Alpha virt. eigenvalues --    2.10143   2.10670   2.11622   2.12056   2.12522
 Alpha virt. eigenvalues --    2.12646   2.13481   2.15227   2.16117   2.17066
 Alpha virt. eigenvalues --    2.17659   2.17759   2.18171   2.18986   2.19354
 Alpha virt. eigenvalues --    2.20001   2.20138   2.20778   2.21158   2.22235
 Alpha virt. eigenvalues --    2.22873   2.23198   2.23549   2.23997   2.24715
 Alpha virt. eigenvalues --    2.25045   2.25181   2.26319   2.27257   2.27546
 Alpha virt. eigenvalues --    2.28339   2.28604   2.29873   2.30901   2.31196
 Alpha virt. eigenvalues --    2.32248   2.32748   2.35307   2.35496   2.36057
 Alpha virt. eigenvalues --    2.36565   2.36714   2.38085   2.38609   2.39114
 Alpha virt. eigenvalues --    2.40319   2.40906   2.41884   2.42875   2.43692
 Alpha virt. eigenvalues --    2.44472   2.44920   2.46102   2.47961   2.48852
 Alpha virt. eigenvalues --    2.49175   2.50019   2.50989   2.51389   2.52075
 Alpha virt. eigenvalues --    2.52497   2.52889   2.53442   2.54249   2.54797
 Alpha virt. eigenvalues --    2.55792   2.56385   2.56846   2.57091   2.57523
 Alpha virt. eigenvalues --    2.57761   2.58554   2.59568   2.60720   2.61820
 Alpha virt. eigenvalues --    2.62342   2.62478   2.62890   2.62995   2.63618
 Alpha virt. eigenvalues --    2.63934   2.64785   2.65068   2.65306   2.66200
 Alpha virt. eigenvalues --    2.66785   2.67287   2.67918   2.68451   2.68943
 Alpha virt. eigenvalues --    2.69470   2.70499   2.70595   2.71240   2.71774
 Alpha virt. eigenvalues --    2.72325   2.72644   2.72699   2.73402   2.73934
 Alpha virt. eigenvalues --    2.74111   2.74773   2.74993   2.75125   2.75641
 Alpha virt. eigenvalues --    2.75699   2.76275   2.76848   2.77118   2.77291
 Alpha virt. eigenvalues --    2.78199   2.78480   2.79560   2.79829   2.80569
 Alpha virt. eigenvalues --    2.80802   2.81219   2.81586   2.81883   2.82356
 Alpha virt. eigenvalues --    2.83250   2.83524   2.83747   2.84618   2.84803
 Alpha virt. eigenvalues --    2.85535   2.85805   2.86282   2.86773   2.87436
 Alpha virt. eigenvalues --    2.88125   2.88262   2.88764   2.89296   2.89877
 Alpha virt. eigenvalues --    2.89900   2.90415   2.90844   2.91654   2.92313
 Alpha virt. eigenvalues --    2.93075   2.93321   2.93663   2.94072   2.94318
 Alpha virt. eigenvalues --    2.94806   2.95400   2.96060   2.96722   2.97451
 Alpha virt. eigenvalues --    2.97667   2.98036   2.98562   2.99050   2.99925
 Alpha virt. eigenvalues --    3.00154   3.00712   3.01358   3.01942   3.02743
 Alpha virt. eigenvalues --    3.03217   3.04024   3.04512   3.05241   3.05687
 Alpha virt. eigenvalues --    3.06668   3.07380   3.07721   3.08266   3.08940
 Alpha virt. eigenvalues --    3.09590   3.10224   3.10524   3.10983   3.11126
 Alpha virt. eigenvalues --    3.11955   3.12165   3.12430   3.13208   3.14179
 Alpha virt. eigenvalues --    3.14585   3.15151   3.15944   3.16355   3.16390
 Alpha virt. eigenvalues --    3.16800   3.17246   3.17880   3.18303   3.18940
 Alpha virt. eigenvalues --    3.19321   3.19561   3.19910   3.20308   3.20523
 Alpha virt. eigenvalues --    3.21193   3.21540   3.22037   3.23001   3.23282
 Alpha virt. eigenvalues --    3.23665   3.24210   3.24449   3.25440   3.25625
 Alpha virt. eigenvalues --    3.26134   3.26274   3.26885   3.28227   3.28860
 Alpha virt. eigenvalues --    3.29060   3.29363   3.29701   3.30611   3.31046
 Alpha virt. eigenvalues --    3.31483   3.32598   3.32797   3.33382   3.34000
 Alpha virt. eigenvalues --    3.34256   3.34774   3.35575   3.35840   3.36527
 Alpha virt. eigenvalues --    3.36597   3.36921   3.37244   3.37619   3.38255
 Alpha virt. eigenvalues --    3.38666   3.39137   3.39448   3.40232   3.40506
 Alpha virt. eigenvalues --    3.41047   3.41351   3.41539   3.42697   3.42786
 Alpha virt. eigenvalues --    3.43491   3.43821   3.43893   3.44478   3.45097
 Alpha virt. eigenvalues --    3.45471   3.45573   3.46104   3.46799   3.47457
 Alpha virt. eigenvalues --    3.48077   3.48534   3.48751   3.49088   3.49675
 Alpha virt. eigenvalues --    3.50589   3.50926   3.51519   3.51822   3.52365
 Alpha virt. eigenvalues --    3.53051   3.53675   3.54112   3.54710   3.54867
 Alpha virt. eigenvalues --    3.55201   3.55502   3.56674   3.57138   3.57251
 Alpha virt. eigenvalues --    3.57735   3.58300   3.58842   3.58997   3.59777
 Alpha virt. eigenvalues --    3.60191   3.60264   3.60819   3.61312   3.61629
 Alpha virt. eigenvalues --    3.62482   3.62899   3.63627   3.64034   3.64618
 Alpha virt. eigenvalues --    3.65633   3.66118   3.66264   3.67104   3.69096
 Alpha virt. eigenvalues --    3.69966   3.70408   3.70820   3.72091   3.72364
 Alpha virt. eigenvalues --    3.72673   3.73783   3.74583   3.75516   3.75816
 Alpha virt. eigenvalues --    3.76576   3.78326   3.79088   3.80061   3.81180
 Alpha virt. eigenvalues --    3.82103   3.82864   3.84474   3.84628   3.84912
 Alpha virt. eigenvalues --    3.85765   3.88147   3.88640   3.90587   3.90866
 Alpha virt. eigenvalues --    3.91520   3.92292   3.92558   3.93749   3.94659
 Alpha virt. eigenvalues --    3.95250   3.96732   3.97621   3.97942   3.99235
 Alpha virt. eigenvalues --    3.99331   4.00493   4.01185   4.01631   4.01995
 Alpha virt. eigenvalues --    4.02943   4.04849   4.05962   4.06430   4.06850
 Alpha virt. eigenvalues --    4.07574   4.09182   4.10963   4.11628   4.12306
 Alpha virt. eigenvalues --    4.12990   4.13687   4.14228   4.15005   4.16744
 Alpha virt. eigenvalues --    4.17018   4.18685   4.19132   4.19613   4.20678
 Alpha virt. eigenvalues --    4.21249   4.22280   4.22623   4.23825   4.24874
 Alpha virt. eigenvalues --    4.26296   4.26874   4.27132   4.28232   4.28846
 Alpha virt. eigenvalues --    4.29189   4.30079   4.30195   4.30554   4.31068
 Alpha virt. eigenvalues --    4.31330   4.31703   4.31853   4.32887   4.33225
 Alpha virt. eigenvalues --    4.33428   4.33896   4.35115   4.35673   4.36293
 Alpha virt. eigenvalues --    4.36718   4.37790   4.38409   4.40091   4.41604
 Alpha virt. eigenvalues --    4.42043   4.42804   4.43035   4.47389   4.48212
 Alpha virt. eigenvalues --    4.49746   4.50428   4.52248   4.52930   4.54994
 Alpha virt. eigenvalues --    4.55740   4.56047   4.56829   4.57923   4.60197
 Alpha virt. eigenvalues --    4.61366   4.64964   4.66069   4.66622   4.68044
 Alpha virt. eigenvalues --    4.69557   4.70862   4.71345   4.73147   4.74122
 Alpha virt. eigenvalues --    4.75047   4.76663   4.77075   4.77111   4.78725
 Alpha virt. eigenvalues --    4.80972   4.83214   4.84021   4.84708   4.85646
 Alpha virt. eigenvalues --    4.86828   4.91758   4.93936   4.95598   4.97663
 Alpha virt. eigenvalues --    4.98683   5.00466   5.01607   5.04462   5.04790
 Alpha virt. eigenvalues --    5.06388   5.07492   5.07663   5.09440   5.10947
 Alpha virt. eigenvalues --    5.11841   5.12668   5.16497   5.17491   5.19470
 Alpha virt. eigenvalues --    5.20967   5.24763   5.24888   5.25498   5.27147
 Alpha virt. eigenvalues --    5.30058   5.30376   5.33900   5.35723   5.37168
 Alpha virt. eigenvalues --    5.37663   5.39778   5.40034   5.43100   5.46468
 Alpha virt. eigenvalues --    5.46577   5.46790   5.47763   5.51932   5.53191
 Alpha virt. eigenvalues --    5.53558   5.56052   5.60123   5.61521   5.62042
 Alpha virt. eigenvalues --    5.65932   5.67054   5.67700   5.68190   5.69321
 Alpha virt. eigenvalues --    5.69416   5.72452   5.75408   5.77661   5.83139
 Alpha virt. eigenvalues --    5.85882   5.87515   5.88068   5.88184   5.90655
 Alpha virt. eigenvalues --    5.93476   5.95151   5.97830   6.00762   6.07606
 Alpha virt. eigenvalues --    6.14200   6.14238   6.22487   6.36824   6.43558
 Alpha virt. eigenvalues --    6.45636   6.49202   6.51644   6.55382   6.57497
 Alpha virt. eigenvalues --    6.66756   6.69845   6.77263   6.86144   6.89531
 Alpha virt. eigenvalues --    6.92930   6.93111   6.94660   7.01079   7.01591
 Alpha virt. eigenvalues --    7.10067   7.31405   7.41788   7.50840   7.59357
 Alpha virt. eigenvalues --   16.19602  22.31253  22.39167  22.42337  22.51862
 Alpha virt. eigenvalues --   22.56641  22.68184  22.70797  22.71293  22.72906
 Alpha virt. eigenvalues --   22.74929  22.76724  22.78699  22.81498  22.86142
 Alpha virt. eigenvalues --   22.87566  22.94504  22.98703  23.00986  23.03048
 Alpha virt. eigenvalues --   23.08233  23.19170  23.26498  23.40942  23.46252
 Alpha virt. eigenvalues --   23.48153  23.83080  33.46822  43.78321  43.94898
 Alpha virt. eigenvalues --   44.42798
          Condensed to atoms (all electrons):
 Mulliken charges:
               1
     1  C   -0.019362
     2  C   -0.190082
     3  C    0.367994
     4  C   -0.019828
     5  C   -0.127817
     6  C   -0.116162
     7  C    0.229790
     8  C    0.126940
     9  C    0.286426
    10  C   -0.177859
    11  H    0.140460
    12  C   -0.035196
    13  C   -0.074698
    14  C   -0.189424
    15  H    0.115126
    16  H    0.141410
[...]
 Alpha virt. eigenvalues --    0.49656   0.50383   0.50679   0.50866   0.51475
 Alpha virt. eigenvalues --    0.51642   0.52094   0.52692   0.53018   0.53753
 Alpha virt. eigenvalues --    0.54079   0.54560   0.55247   0.55423   0.56205
 Alpha virt. eigenvalues --    0.56879   0.57890   0.58309   0.58632   0.58919
 Alpha virt. eigenvalues --    0.59415   0.59669   0.60092   0.60375   0.61076
 Alpha virt. eigenvalues --    0.61695   0.62038   0.62323   0.62679   0.62908
 Alpha virt. eigenvalues --    0.63297   0.63869   0.63937   0.64425   0.64942
 Alpha virt. eigenvalues --    0.65023   0.65125   0.65516   0.65693   0.66436
 Alpha virt. eigenvalues --    0.66839   0.67506   0.67850   0.68128   0.68502
 Alpha virt. eigenvalues --    0.68625   0.69229   0.69544   0.69800   0.70542
 Alpha virt. eigenvalues --    0.70697   0.71414   0.71550   0.71980   0.72451
 Alpha virt. eigenvalues --    0.72623   0.72955   0.73161   0.73803   0.73933
 Alpha virt. eigenvalues --    0.74187   0.74520   0.75602   0.75965   0.76014
 Alpha virt. eigenvalues --    0.76482   0.77052   0.77895   0.78123   0.78712
 Alpha virt. eigenvalues --    0.79315   0.79851   0.80313   0.80849   0.81220
 Alpha virt. eigenvalues --    0.81434   0.81967   0.82228   0.82782   0.83614
 Alpha virt. eigenvalues --    0.83918   0.84074   0.85007   0.85499   0.86177
 Alpha virt. eigenvalues --    0.86339   0.86751   0.87076   0.87485   0.87849
 Alpha virt. eigenvalues --    0.88215   0.88994   0.89450   0.90068   0.90876
 Alpha virt. eigenvalues --    0.91013   0.92450   0.93039   0.93184   0.93577
 Alpha virt. eigenvalues --    0.94209   0.94955   0.95497   0.96160   0.96660
 Alpha virt. eigenvalues --    0.97122   0.97410   0.98324   0.98780   0.99866
 Alpha virt. eigenvalues --    1.00873   1.01584   1.02553   1.02737   1.02977
 Alpha virt. eigenvalues --    1.03956   1.04319   1.04937   1.06258   1.06880
 Alpha virt. eigenvalues --    1.07444   1.08018   1.08525   1.09310   1.09600
 Alpha virt. eigenvalues --    1.10039   1.10516   1.10728   1.11202   1.11408
 Alpha virt. eigenvalues --    1.11956   1.12973   1.13261   1.14335   1.14548
 Alpha virt. eigenvalues --    1.15186   1.16050   1.16783   1.17149   1.17748
 Alpha virt. eigenvalues --    1.17877   1.19081   1.20355   1.20836   1.21361
 Alpha virt. eigenvalues --    1.22008   1.22549   1.23239   1.23704   1.23975
 Alpha virt. eigenvalues --    1.24166   1.24610   1.25262   1.25475   1.25795
 Alpha virt. eigenvalues --    1.26138   1.26599   1.27660   1.27804   1.28215
 Alpha virt. eigenvalues --    1.28642   1.29433   1.29859   1.30800   1.31595
 Alpha virt. eigenvalues --    1.32028   1.32133   1.32413   1.33214   1.33638
 Alpha virt. eigenvalues --    1.34535   1.35388   1.35798   1.37037   1.38167
 Alpha virt. eigenvalues --    1.38504   1.39906   1.40524   1.42052   1.42406
 Alpha virt. eigenvalues --    1.42501   1.43220   1.44116   1.44751   1.44975
 Alpha virt. eigenvalues --    1.45423   1.45578   1.46548   1.46660   1.47233
 Alpha virt. eigenvalues --    1.47770   1.48406   1.49318   1.49573   1.49864
 Alpha virt. eigenvalues --    1.50617   1.50917   1.51750   1.52160   1.52368
 Alpha virt. eigenvalues --    1.53009   1.53660   1.53717   1.54168   1.54475
 Alpha virt. eigenvalues --    1.54872   1.55727   1.56112   1.56446   1.56804
 Alpha virt. eigenvalues --    1.57392   1.57935   1.58353   1.58677   1.59425
 Alpha virt. eigenvalues --    1.59812   1.60038   1.60563   1.61288   1.62531
 Alpha virt. eigenvalues --    1.63181   1.63213   1.63546   1.64199   1.64334
 Alpha virt. eigenvalues --    1.64863   1.65966   1.66484   1.66729   1.67102
 Alpha virt. eigenvalues --    1.68033   1.68603   1.68998   1.69580   1.69970
 Alpha virt. eigenvalues --    1.70246   1.70687   1.71277   1.71720   1.72129
 Alpha virt. eigenvalues --    1.72429   1.72937   1.73667   1.74107   1.74782
 Alpha virt. eigenvalues --    1.75693   1.76267   1.76533   1.76943   1.77083
 Alpha virt. eigenvalues --    1.77827   1.78716   1.79055   1.79407   1.79798
 Alpha virt. eigenvalues --    1.80237   1.80572   1.81153   1.82012   1.82801
 Alpha virt. eigenvalues --    1.84328   1.84800   1.86010   1.86084   1.87042
 Alpha virt. eigenvalues --    1.87997   1.89204   1.89528   1.89964   1.90620
 Alpha virt. eigenvalues --    1.91107   1.91661   1.92212   1.92708   1.93415
 Alpha virt. eigenvalues --    1.94119   1.94768   1.95730   1.95877   1.96538
 Alpha virt. eigenvalues --    1.97120   1.97386   1.98245   1.99219   2.00646
 Alpha virt. eigenvalues --    2.01209   2.01904   2.02371   2.02838   2.03847
 Alpha virt. eigenvalues --    2.04373   2.04820   2.06205   2.06841   2.07274
 Alpha virt. eigenvalues --    2.08114   2.08671   2.09243   2.09594   2.10433
 Alpha virt. eigenvalues --    2.10955   2.11758   2.12466   2.12908   2.13277
 Alpha virt. eigenvalues --    2.13502   2.14381   2.15941   2.16601   2.17406
 Alpha virt. eigenvalues --    2.18608   2.18732   2.19329   2.20208   2.20395
 Alpha virt. eigenvalues --    2.21012   2.21408   2.21677   2.22047   2.23334
 Alpha virt. eigenvalues --    2.23808   2.24288   2.24504   2.25200   2.25286
 Alpha virt. eigenvalues --    2.25699   2.26304   2.27412   2.27745   2.28311
 Alpha virt. eigenvalues --    2.29056   2.29380   2.31370   2.32060   2.32562
 Alpha virt. eigenvalues --    2.33548   2.33853   2.36113   2.36627   2.36696
 Alpha virt. eigenvalues --    2.37742   2.38347   2.38653   2.39680   2.40530
 Alpha virt. eigenvalues --    2.41054   2.42091   2.42853   2.43322   2.44176
 Alpha virt. eigenvalues --    2.45001   2.45488   2.46820   2.48548   2.49633
 Alpha virt. eigenvalues --    2.50240   2.50875   2.51504   2.51965   2.52514
 Alpha virt. eigenvalues --    2.52789   2.53517   2.53825   2.54575   2.55520
 Alpha virt. eigenvalues --    2.56698   2.57371   2.57673   2.57990   2.58360
 Alpha virt. eigenvalues --    2.58417   2.59426   2.60407   2.61396   2.62235
 Alpha virt. eigenvalues --    2.63257   2.63703   2.64058   2.64484   2.65240
 Alpha virt. eigenvalues --    2.65756   2.66143   2.66375   2.66687   2.67773
 Alpha virt. eigenvalues --    2.68049   2.68629   2.69117   2.69929   2.70175
 Alpha virt. eigenvalues --    2.70758   2.71283   2.71751   2.72040   2.72922
 Alpha virt. eigenvalues --    2.73425   2.73564   2.74304   2.74775   2.74859
 Alpha virt. eigenvalues --    2.75233   2.75767   2.76088   2.76360   2.76641
 Alpha virt. eigenvalues --    2.76757   2.77452   2.77618   2.77954   2.78324
 Alpha virt. eigenvalues --    2.78788   2.79462   2.80479   2.80941   2.81556
 Alpha virt. eigenvalues --    2.81761   2.82033   2.82667   2.83039   2.83501
 Alpha virt. eigenvalues --    2.83732   2.84339   2.84897   2.85446   2.85959
 Alpha virt. eigenvalues --    2.86721   2.86912   2.87719   2.87986   2.88354
 Alpha virt. eigenvalues --    2.88774   2.89072   2.89792   2.90141   2.91004
 Alpha virt. eigenvalues --    2.91336   2.91893   2.92003   2.92467   2.93512
 Alpha virt. eigenvalues --    2.93922   2.94405   2.94805   2.95356   2.95841
 Alpha virt. eigenvalues --    2.96247   2.96759   2.97220   2.97936   2.98192
 Alpha virt. eigenvalues --    2.98576   2.98666   2.99834   2.99995   3.00617
 Alpha virt. eigenvalues --    3.01184   3.01674   3.02059   3.02367   3.03332
 Alpha virt. eigenvalues --    3.03971   3.05132   3.05416   3.05647   3.06654
 Alpha virt. eigenvalues --    3.07478   3.08004   3.08711   3.09275   3.09976
 Alpha virt. eigenvalues --    3.10494   3.10762   3.10965   3.11423   3.12094
 Alpha virt. eigenvalues --    3.12356   3.12719   3.13113   3.13728   3.14596
 Alpha virt. eigenvalues --    3.15201   3.15817   3.16181   3.16836   3.16933
 Alpha virt. eigenvalues --    3.17268   3.17562   3.18384   3.18541   3.19487
 Alpha virt. eigenvalues --    3.19638   3.20121   3.20391   3.20788   3.20966
 Alpha virt. eigenvalues --    3.21906   3.22280   3.22425   3.23374   3.23757
 Alpha virt. eigenvalues --    3.24397   3.25145   3.25466   3.26443   3.26495
 Alpha virt. eigenvalues --    3.26756   3.27286   3.27623   3.28758   3.29859
 Alpha virt. eigenvalues --    3.30068   3.30159   3.30589   3.31598   3.32024
 Alpha virt. eigenvalues --    3.32737   3.33258   3.33356   3.33890   3.34585
 Alpha virt. eigenvalues --    3.35053   3.35689   3.36587   3.37118   3.37645
 Alpha virt. eigenvalues --    3.37797   3.37925   3.38115   3.38876   3.39493
 Alpha virt. eigenvalues --    3.39855   3.40124   3.40714   3.41161   3.41947
 Alpha virt. eigenvalues --    3.41995   3.42697   3.42736   3.43663   3.44044
 Alpha virt. eigenvalues --    3.44578   3.44834   3.45227   3.45478   3.45977
 Alpha virt. eigenvalues --    3.46551   3.46593   3.47331   3.47907   3.48255
 Alpha virt. eigenvalues --    3.48984   3.49402   3.49760   3.49994   3.50868
 Alpha virt. eigenvalues --    3.51650   3.51867   3.52525   3.52640   3.53414
 Alpha virt. eigenvalues --    3.54475   3.54751   3.54960   3.55829   3.56429
 Alpha virt. eigenvalues --    3.56516   3.57357   3.57834   3.57948   3.58385
 Alpha virt. eigenvalues --    3.58841   3.59222   3.60309   3.60671   3.60966
 Alpha virt. eigenvalues --    3.61353   3.61594   3.62449   3.62556   3.63075
 Alpha virt. eigenvalues --    3.63535   3.64061   3.64694   3.65015   3.65726
 Alpha virt. eigenvalues --    3.66545   3.67411   3.67948   3.67993   3.70505
 Alpha virt. eigenvalues --    3.71022   3.71854   3.72436   3.73283   3.73892
 Alpha virt. eigenvalues --    3.73981   3.75266   3.75670   3.76781   3.77212
 Alpha virt. eigenvalues --    3.78317   3.79166   3.79917   3.81749   3.82447
 Alpha virt. eigenvalues --    3.84031   3.84410   3.86093   3.86584   3.86850
 Alpha virt. eigenvalues --    3.87259   3.89638   3.90872   3.91960   3.92328
 Alpha virt. eigenvalues --    3.93436   3.94039   3.94955   3.95513   3.96606
 Alpha virt. eigenvalues --    3.97574   3.99105   3.99466   3.99885   4.01313
 Alpha virt. eigenvalues --    4.01990   4.03041   4.03182   4.03421   4.04470
 Alpha virt. eigenvalues --    4.05276   4.06906   4.07870   4.08484   4.08803
 Alpha virt. eigenvalues --    4.09468   4.11204   4.12626   4.13616   4.14018
 Alpha virt. eigenvalues --    4.14739   4.15598   4.16190   4.17119   4.18748
 Alpha virt. eigenvalues --    4.19023   4.20924   4.21344   4.21841   4.22925
 Alpha virt. eigenvalues --    4.23042   4.24555   4.25004   4.25892   4.27180
 Alpha virt. eigenvalues --    4.28603   4.29003   4.29676   4.30670   4.31060
 Alpha virt. eigenvalues --    4.31658   4.31912   4.32279   4.33198   4.33492
 Alpha virt. eigenvalues --    4.33750   4.34154   4.34416   4.35029   4.35556
 Alpha virt. eigenvalues --    4.36103   4.36592   4.37625   4.38442   4.39237
 Alpha virt. eigenvalues --    4.39650   4.40348   4.41147   4.43064   4.43903
 Alpha virt. eigenvalues --    4.44449   4.45224   4.45605   4.50027   4.51437
 Alpha virt. eigenvalues --    4.52108   4.53087   4.54503   4.54867   4.57786
 Alpha virt. eigenvalues --    4.58257   4.58962   4.59719   4.61227   4.62511
 Alpha virt. eigenvalues --    4.64312   4.68333   4.68861   4.69227   4.71124
 Alpha virt. eigenvalues --    4.72165   4.74073   4.74725   4.75026   4.76934
 Alpha virt. eigenvalues --    4.78077   4.79070   4.79554   4.80348   4.81420
 Alpha virt. eigenvalues --    4.83433   4.85194   4.86184   4.87156   4.87781
 Alpha virt. eigenvalues --    4.88167   4.93083   4.95598   4.96831   4.99385
 Alpha virt. eigenvalues --    5.00230   5.02865   5.03318   5.06561   5.06942
 Alpha virt. eigenvalues --    5.08011   5.09726   5.10557   5.11736   5.12848
 Alpha virt. eigenvalues --    5.14022   5.15251   5.19483   5.22072   5.22635
 Alpha virt. eigenvalues --    5.23045   5.26790   5.28475   5.28971   5.30223
 Alpha virt. eigenvalues --    5.32679   5.33084   5.36063   5.37586   5.39426
 Alpha virt. eigenvalues --    5.39790   5.40526   5.42595   5.44354   5.47623
 Alpha virt. eigenvalues --    5.48130   5.48548   5.49234   5.52945   5.54191
 Alpha virt. eigenvalues --    5.55068   5.57252   5.61583   5.63016   5.64152
 Alpha virt. eigenvalues --    5.66251   5.67850   5.68409   5.69575   5.69886
 Alpha virt. eigenvalues --    5.71049   5.73598   5.76022   5.77450   5.86017
 Alpha virt. eigenvalues --    5.87082   5.88538   5.89305   5.90840   5.93072
 Alpha virt. eigenvalues --    5.95257   5.97133   5.99037   6.01602   6.05114
 Alpha virt. eigenvalues --    6.13895   6.17269   6.24114   6.39555   6.44161
 Alpha virt. eigenvalues --    6.47076   6.49552   6.50846   6.56184   6.60579
 Alpha virt. eigenvalues --    6.66157   6.68874   6.78208   6.86731   6.90041
 Alpha virt. eigenvalues --    6.92739   6.93838   6.93938   7.00693   7.01119
 Alpha virt. eigenvalues --    7.10008   7.31609   7.41725   7.50441   7.59685
 Alpha virt. eigenvalues --   16.21279  22.31832  22.41957  22.46671  22.54297
 Alpha virt. eigenvalues --   22.61307  22.73781  22.77181  22.77725  22.79084
 Alpha virt. eigenvalues --   22.80868  22.83117  22.85301  22.88058  22.91015
 Alpha virt. eigenvalues --   22.93252  23.01031  23.04712  23.07703  23.08628
 Alpha virt. eigenvalues --   23.14889  23.25029  23.32033  23.47064  23.52159
 Alpha virt. eigenvalues --   23.55372  23.90557  33.49387  43.77827  43.93658
 Alpha virt. eigenvalues --   44.42004
          Condensed to atoms (all electrons):
 Mulliken charges:
               1
     1  C   -0.004573
     2  C   -0.189057
     3  C    0.383579
     4  C   -0.022305
     5  C   -0.111565
     6  C   -0.113397
     7  C    0.197559
     8  C    0.124748
     9  C    0.306400
    10  C   -0.171334
    11  H    0.133211
    12  C   -0.026243
    13  C   -0.059852
    14  C   -0.203801
    15  H    0.107219
    16  H    0.134583
    17  H    0.158678
    18  H    0.098758
    19  H    0.106707
    20  H    0.100648
    21  H    0.151717
    22  N   -0.029730
    23  C    0.086485
    24  C   -0.395573
    25  C   -0.378743
    26  C   -0.110177
    27  C    0.002100
    28  C   -0.117842
    29  H    0.096496
    30  H    0.106473
    31  C    0.110765
    32  C   -0.313796
    33  C   -0.276943
    34  C   -0.162629
    35  H    0.104552
    36  C   -0.106753
    37  H    0.100893
    38  C    0.618581
    39  H    0.119008
    40  H    0.096204
    41  O   -0.470386
    42  C    0.011012
    43  H    0.091073
    44  H    0.083361
    45  H    0.083170
    46  H    0.092402
    47  B    0.753898
    48  O   -0.541468
    49  O   -0.574520
    50  H    0.365158
    51  H    0.366611
    52  H    0.088636
 Sum of Mulliken charges =   1.00000
 Mulliken charges with hydrogens summed into heavy atoms:
               1
     1  C    0.102646
     2  C   -0.054473
     3  C    0.383579
     4  C   -0.022305
     5  C    0.047113
     6  C   -0.014639
     7  C    0.197559
     8  C    0.124748
     9  C    0.306400
    10  C   -0.038123
    12  C    0.080464
    13  C    0.040796
    14  C   -0.052085
    22  N   -0.029730
    23  C    0.086485
    24  C   -0.395573
    25  C   -0.272270
    26  C   -0.021541
    27  C    0.098596
    28  C   -0.025441
    31  C    0.110765
    32  C   -0.209244
    33  C   -0.176050
    34  C   -0.043620
    36  C   -0.010549
    38  C    0.618581
    41  O   -0.470386
    42  C    0.268616
    47  B    0.753898
    48  O   -0.176310
    49  O   -0.207909
 Electronic spatial extent (au):  <R**2>=          13600.9590
 Charge=              1.0000 electrons
 Dipole moment (field-independent basis, Debye):
    X=             -3.1405    Y=              1.9535    Z=              0.3072  Tot=              3.7112
 Quadrupole moment (field-independent basis, Debye-Ang):
   XX=           -116.1185   YY=           -140.0806   ZZ=           -161.8939
   XY=              8.5789   XZ=            -13.8891   YZ=              1.6775
 Traceless Quadrupole moment (field-independent basis, Debye-Ang):
   XX=             23.2458   YY=             -0.7163   ZZ=            -22.5296
   XY=              8.5789   XZ=            -13.8891   YZ=              1.6775
 Octapole moment (field-independent basis, Debye-Ang**2):
  XXX=           -170.3222  YYY=              2.3814  ZZZ=             22.6697  XYY=             -0.3994
  XXY=              9.7209  XXZ=             66.4981  XZZ=            -15.6297  YZZ=            -12.8001
  YYZ=              8.3864  XYZ=             -9.4615
 Hexadecapole moment (field-independent basis, Debye-Ang**3):
 XXXX=         -10758.4336 YYYY=          -2707.5114 ZZZZ=          -1266.7647 XXXY=            331.8771
 XXXZ=           -710.0117 YYYX=            -48.5437 YYYZ=             87.9106 ZZZX=             75.3636
 ZZZY=           -113.1118 XXYY=          -2758.6834 XXZZ=          -2204.2140 YYZZ=           -719.6425
 XXYZ=           -133.8114 YYXZ=             12.7703 ZZXY=            -27.6134
 N-N= 2.885718112586D+03 E-N=-8.792714088056D+03  KE= 1.303542397034D+03
 Leave Link  601 at Wed Feb 17 00:47:25 2021, MaxMem=  5242880000 cpu:         7.5
 (Enter /opt/nce/packages/global/g09/l9999.exe)
 1\1\GINC-CN005\SP\RM06L TD-FC\Gen\C26H21B1N1O3(1+)\PNG4RJV\17-Feb-2021
 \0\\#p m06l chkbasis geom=allcheck Guess=Read int=ultrafine scrf=(SMD,
 solvent=Acetonitrile) td=(NStates=30)\\Title\\1,1\C,0,-0.6563155818,3.
 7002186971,0.3716302529\C,0,-1.2783011761,2.5044462125,0.1379626374\C,
 0,-0.5122148213,1.3464785428,-0.0841944133\C,0,0.91255563,1.4308881891
 ,-0.0920447829\C,0,1.5077626111,2.6887530357,0.1841854192\C,0,0.745621
 9781,3.7962737013,0.4083843835\C,0,1.6785593803,0.276944296,-0.3393985
 023\C,0,1.0228518446,-0.9486123664,-0.5616557013\C,0,-0.4020019439,-1.
 0067394239,-0.5093431441\C,0,-1.0579667797,-2.236242323,-0.6965211597\
 H,0,-2.1350359092,-2.2829620258,-0.6438585432\C,0,-0.3308174435,-3.367
 864359,-0.9458826564\C,0,1.0708704469,-3.3254057796,-1.0370486004\C,0,
 1.7276568674,-2.1446719252,-0.8542850095\H,0,-1.2585017259,4.583078552
 8,0.5420968223\H,0,-2.3559972258,2.4439775233,0.1277073649\H,0,2.58581
 18142,2.7534817852,0.2191650335\H,0,1.2154187835,4.7472886928,0.618726
 1412\H,0,-0.8492793151,-4.3071924962,-1.0870006089\H,0,1.6243940383,-4
 .2268673523,-1.2615056641\H,0,2.8039075691,-2.1041604979,-0.9445301457
 \N,0,-1.1186842661,0.1368133722,-0.2823899345\C,0,3.1549832831,0.35286
 7159,-0.3808855068\C,0,3.9529492795,-0.3335145396,0.5547024259\C,0,3.7
 472726313,1.0875713104,-1.4081798744\C,0,5.339847477,-0.2573504218,0.4
 026916231\C,0,5.1253910238,1.1440199713,-1.5296808192\C,0,5.9260705889
 ,0.4703718801,-0.6203474751\H,0,5.5701406659,1.7113498886,-2.337203881
 3\H,0,3.1170153043,1.5997355322,-2.1250988716\C,0,-2.5636321115,0.0615
 160554,-0.2440199504\C,0,-3.203943647,-0.1431965376,0.9634619082\C,0,-
 3.2858072148,0.1922994972,-1.4218647828\C,0,-4.5873989286,-0.220525205
 4,1.0065043991\H,0,-2.622972316,-0.2431524182,1.8716345911\C,0,-4.6620
 100477,0.1168282723,-1.3850513123\H,0,-2.7670728348,0.3512507593,-2.35
 8683097\C,0,-5.3228545388,-0.0902299626,-0.1711392873\H,0,-5.081214872
 8,-0.3823767168,1.9534531192\H,0,-5.2460987897,0.2157249891,-2.2903758
 441\O,0,-6.6674185704,-0.1500751091,-0.2351320971\C,0,-7.3767926585,-0
 .361055548,0.9769915133\H,0,-8.4301401556,-0.3731372002,0.7120588137\H
 ,0,-7.1099362066,-1.3161558003,1.4346534781\H,0,-7.1948962943,0.444422
 1218,1.6917602156\H,0,7.0042338447,0.5114192567,-0.7091258964\B,0,3.37
 92751474,-1.1360389237,1.7731800944\O,0,2.2882999242,-0.7620096427,2.5
 093065231\O,0,4.0358026939,-2.2731612283,2.1395769827\H,0,1.9188699776
 ,0.0935847039,2.2646630668\H,0,3.651314337,-2.679176311,2.9254904777\H
 ,0,5.9704272336,-0.7785428835,1.1133122753\\Version=ES64L-G09RevE.01\S
 tate=1-A\HF=-1308.9882342\RMSD=3.379e-09\PG=C01 [X(C26H21B1N1O3)]\\@


 DO NOT LET SELFISH MEN OR GREEDY INTERESTS SKIN YOUR COUNTRY OF ITS
 BEAUTY, ITS RICHES, OR ITS ROMANCE. -- THEODORE ROOSEVELT
 Job cpu time:       2 days 11 hours 22 minutes 43.7 seconds.
 File lengths (MBytes):  RWF=   4576 Int=      0 D2E=      0 Chk=   1053 Scr=      1
 Normal termination of Gaussian 09 at Wed Feb 17 00:47:27 2021.
