 Entering Gaussian System, Link 0=g09
 Input=/home/png4rjv/fotokatalizis/benchmark/OPCs/BOH-Acr_o_M062X_def2TZVP.gjf
 Output=/home/png4rjv/fotokatalizis/benchmark/OPCs/BOH-Acr_o_M062X_def2TZVP.log
 Initial command:
 /opt/nce/packages/global/g09/l1.exe "/home/png4rjv/fotokatalizis/benchmark/OPCs/BOH-Acr_o_M062X_def2TZVP/Gau-40709.inp" -scrdir="/home/png4rjv/fotokatalizis/benchmark/OPCs/BOH-Acr_o_M062X_def2TZVP/"
 Default is to use a total of  12 processors:
                               12 via shared-memory
                                1 via Linda
 Entering Link 1 = /opt/nce/packages/global/g09/l1.exe PID=     40710.
  
 Copyright (c) 1988,1990,1992,1993,1995,1998,2003,2009,2015,
            Gaussian, Inc.  All Rights Reserved.
  
 This is part of the Gaussian(R) 09 program.  It is based on
 the Gaussian(R) 03 system (copyright 2003, Gaussian, Inc.),
 the Gaussian(R) 98 system (copyright 1998, Gaussian, Inc.),
 the Gaussian(R) 94 system (copyright 1995, Gaussian, Inc.),
 the Gaussian 92(TM) system (copyright 1992, Gaussian, Inc.),
 the Gaussian 90(TM) system (copyright 1990, Gaussian, Inc.),
 the Gaussian 88(TM) system (copyright 1988, Gaussian, Inc.),
 the Gaussian 86(TM) system (copyright 1986, Carnegie Mellon
 University), and the Gaussian 82(TM) system (copyright 1983,
 Carnegie Mellon University). Gaussian is a federally registered
 trademark of Gaussian, Inc.
  
 This software contains proprietary and confidential information,
 including trade secrets, belonging to Gaussian, Inc.
  
 This software is provided under written license and may be
 used, copied, transmitted, or stored only in accord with that
 written license.
  
 The following legend is applicable only to US Government
 contracts under FAR:
  
                    RESTRICTED RIGHTS LEGEND
  
 Use, reproduction and disclosure by the US Government is
 subject to restrictions as set forth in subparagraphs (a)
 and (c) of the Commercial Computer Software - Restricted
 Rights clause in FAR 52.227-19.
  
 Gaussian, Inc.
 340 Quinnipiac St., Bldg. 40, Wallingford CT 06492
  
  
 ---------------------------------------------------------------
 Warning -- This program may not be used in any manner that
 competes with the business of Gaussian, Inc. or will provide
 assistance to any competitor of Gaussian, Inc.  The licensee
 of this program is prohibited from giving any competitor of
 Gaussian, Inc. access to this program.  By using this program,
 the user acknowledges that Gaussian, Inc. is engaged in the
 business of creating and licensing software in the field of
 computational chemistry and represents and warrants to the
 licensee that it is not a competitor of Gaussian, Inc. and that
 it will not use this program in any manner prohibited above.
 ---------------------------------------------------------------
  

 Cite this work as:
 Gaussian 09, Revision E.01,
 M. J. Frisch, G. W. Trucks, H. B. Schlegel, G. E. Scuseria, 
 M. A. Robb, J. R. Cheeseman, G. Scalmani, V. Barone, B. Mennucci, 
 G. A. Petersson, H. Nakatsuji, M. Caricato, X. Li, H. P. Hratchian, 
 A. F. Izmaylov, J. Bloino, G. Zheng, J. L. Sonnenberg, M. Hada, 
 M. Ehara, K. Toyota, R. Fukuda, J. Hasegawa, M. Ishida, T. Nakajima, 
 Y. Honda, O. Kitao, H. Nakai, T. Vreven, J. A. Montgomery, Jr., 
 J. E. Peralta, F. Ogliaro, M. Bearpark, J. J. Heyd, E. Brothers, 
 K. N. Kudin, V. N. Staroverov, T. Keith, R. Kobayashi, J. Normand, 
 K. Raghavachari, A. Rendell, J. C. Burant, S. S. Iyengar, J. Tomasi, 
 M. Cossi, N. Rega, J. M. Millam, M. Klene, J. E. Knox, J. B. Cross, 
 V. Bakken, C. Adamo, J. Jaramillo, R. Gomperts, R. E. Stratmann, 
 O. Yazyev, A. J. Austin, R. Cammi, C. Pomelli, J. W. Ochterski, 
 R. L. Martin, K. Morokuma, V. G. Zakrzewski, G. A. Voth, 
 P. Salvador, J. J. Dannenberg, S. Dapprich, A. D. Daniels, 
 O. Farkas, J. B. Foresman, J. V. Ortiz, J. Cioslowski, 
 and D. J. Fox, Gaussian, Inc., Wallingford CT, 2013.
 
 ******************************************
 Gaussian 09:  ES64L-G09RevE.01 30-Nov-2015
                22-Feb-2021 
 ******************************************
 %chk=cp.chk
 Default route:  MaxDisk=500GB
 ----------------------------------------------------------------------
 #p m062x/def2TZVP opt freq=noraman nosymm int=ultrafine scrf=(SMD,solv
 ent=Acetonitrile)
 ----------------------------------------------------------------------
 1/14=-1,18=20,19=15,26=4,38=1/1,3;
 2/9=110,12=2,15=1,17=6,18=5,40=1/2;
 3/5=44,7=101,11=2,16=1,25=1,30=1,70=32201,71=1,72=2,74=-55,75=-5/1,2,3;
 4//1;
 5/5=2,38=5,53=2/2;
 6/7=2,8=2,9=2,10=2,28=1/1;
 7/30=1/1,2,3,16;
 1/14=-1,18=20,19=15,26=4/3(2);
 2/9=110,15=1/2;
 99//99;
 2/9=110,15=1/2;
 3/5=44,7=101,11=2,16=1,25=1,30=1,70=32205,71=1,72=2,74=-55,75=-5/1,2,3;
 4/5=5,16=3,69=1/1;
 5/5=2,38=5,53=2/2;
 7/30=1/1,2,3,16;
 1/14=-1,18=20,19=15,26=4/3(-5);
 2/9=110,15=1/2;
 6/7=2,8=2,9=2,10=2,19=2,28=1/1;
 99/9=1/99;
 Leave Link    1 at Mon Feb 22 10:07:21 2021, MaxMem=           0 cpu:         2.2
 (Enter /opt/nce/packages/global/g09/l101.exe)
 -----
 Title
 -----
 Symbolic Z-matrix:
 Charge =  1 Multiplicity = 1
 C                    -0.6469    3.72165   0.38323 
 C                    -1.27504   2.51563   0.154 
 C                    -0.503     1.3544   -0.10022 
 C                     0.92966   1.44814  -0.13535 
 C                     1.53448   2.7162    0.13158 
 C                     0.7667    3.82729   0.38241 
 C                     1.70098   0.28815  -0.3948 
 C                     1.04339  -0.94526  -0.62123 
 C                    -0.38954  -1.00783  -0.55451 
 C                    -1.0479   -2.24559  -0.7564 
 H                    -2.13284  -2.2954   -0.69789 
 C                    -0.30957  -3.37821  -1.0293 
 C                     1.10345  -3.3305   -1.12502 
 C                     1.76224  -2.14143  -0.92954 
 H                    -1.25327   4.60885   0.57803 
 H                    -2.36054   2.4475    0.16987 
 H                     2.62181   2.7823    0.13272 
 H                     1.24008   4.78962   0.584 
 H                    -0.82838  -4.32677  -1.1839 
 H                     1.66386  -4.23673  -1.36013 
 H                     2.84672  -2.09237  -1.01077 
 N                    -1.10962   0.1366   -0.29846 
 C                     3.18437   0.35429  -0.41315 
 C                     3.93742  -0.31087   0.58451 
 C                     3.8242    1.04051  -1.45757 
 C                     5.33795  -0.2696    0.48442 
 C                     5.21789   1.06701  -1.52792 
 C                     5.97625   0.41115  -0.55492 
 H                     5.70965   1.59408  -2.34828 
 H                     3.22812   1.53382  -2.22875 
 C                    -2.55496   0.05535  -0.23479 
 C                    -3.17854  -0.2025    0.98376 
 C                    -3.3105    0.23534  -1.39981 
 C                    -4.57076  -0.28339   1.05296 
 H                    -2.57734  -0.3428    1.88446 
 C                    -4.69432   0.15667  -1.33753 
 H                    -2.81057   0.43592  -2.34949 
 C                    -5.34108  -0.10364  -0.11106 
 H                    -5.04342  -0.48612   2.01281 
 H                    -5.30996   0.29248  -2.22779 
 O                    -6.67877  -0.1611   -0.15255 
 C                    -7.4114   -0.41961   1.03379 
 H                    -8.47005  -0.41808   0.74812 
 H                    -7.15189  -1.4038    1.45942 
 H                    -7.23882   0.36393   1.79104 
 H                     7.06693   0.42788  -0.60856 
 B                     3.26961  -1.05255   1.80739 
 O                     2.17837  -0.56384   2.47447 
 O                     3.80783  -2.23037   2.20333 
 H                     1.9285    0.33326   2.22617 
 H                     3.38389  -2.59384   2.99364 
 H                     5.93466  -0.78462   1.24044 
 
 NAtoms=     52 NQM=       52 NQMF=       0 NMMI=      0 NMMIF=      0
                NMic=       0 NMicF=      0.
                    Isotopes and Nuclear Properties:
 (Nuclear quadrupole moments (NQMom) in fm**2, nuclear magnetic moments (NMagM)
  in nuclear magnetons)

  Atom         1           2           3           4           5           6           7           8           9          10
 IAtWgt=          12          12          12          12          12          12          12          12          12          12
 AtmWgt=  12.0000000  12.0000000  12.0000000  12.0000000  12.0000000  12.0000000  12.0000000  12.0000000  12.0000000  12.0000000
 NucSpn=           0           0           0           0           0           0           0           0           0           0
 AtZEff=   0.0000000   0.0000000   0.0000000   0.0000000   0.0000000   0.0000000   0.0000000   0.0000000   0.0000000   0.0000000
 NQMom=    0.0000000   0.0000000   0.0000000   0.0000000   0.0000000   0.0000000   0.0000000   0.0000000   0.0000000   0.0000000
 NMagM=    0.0000000   0.0000000   0.0000000   0.0000000   0.0000000   0.0000000   0.0000000   0.0000000   0.0000000   0.0000000
 AtZNuc=   6.0000000   6.0000000   6.0000000   6.0000000   6.0000000   6.0000000   6.0000000   6.0000000   6.0000000   6.0000000

  Atom        11          12          13          14          15          16          17          18          19          20
 IAtWgt=           1          12          12          12           1           1           1           1           1           1
 AtmWgt=   1.0078250  12.0000000  12.0000000  12.0000000   1.0078250   1.0078250   1.0078250   1.0078250   1.0078250   1.0078250
 NucSpn=           1           0           0           0           1           1           1           1           1           1
 AtZEff=   0.0000000   0.0000000   0.0000000   0.0000000   0.0000000   0.0000000   0.0000000   0.0000000   0.0000000   0.0000000
 NQMom=    0.0000000   0.0000000   0.0000000   0.0000000   0.0000000   0.0000000   0.0000000   0.0000000   0.0000000   0.0000000
 NMagM=    2.7928460   0.0000000   0.0000000   0.0000000   2.7928460   2.7928460   2.7928460   2.7928460   2.7928460   2.7928460
 AtZNuc=   1.0000000   6.0000000   6.0000000   6.0000000   1.0000000   1.0000000   1.0000000   1.0000000   1.0000000   1.0000000

  Atom        21          22          23          24          25          26          27          28          29          30
 IAtWgt=           1          14          12          12          12          12          12          12           1           1
 AtmWgt=   1.0078250  14.0030740  12.0000000  12.0000000  12.0000000  12.0000000  12.0000000  12.0000000   1.0078250   1.0078250
 NucSpn=           1           2           0           0           0           0           0           0           1           1
 AtZEff=   0.0000000   0.0000000   0.0000000   0.0000000   0.0000000   0.0000000   0.0000000   0.0000000   0.0000000   0.0000000
 NQMom=    0.0000000   2.0440000   0.0000000   0.0000000   0.0000000   0.0000000   0.0000000   0.0000000   0.0000000   0.0000000
 NMagM=    2.7928460   0.4037610   0.0000000   0.0000000   0.0000000   0.0000000   0.0000000   0.0000000   2.7928460   2.7928460
 AtZNuc=   1.0000000   7.0000000   6.0000000   6.0000000   6.0000000   6.0000000   6.0000000   6.0000000   1.0000000   1.0000000

  Atom        31          32          33          34          35          36          37          38          39          40
 IAtWgt=          12          12          12          12           1          12           1          12           1           1
 AtmWgt=  12.0000000  12.0000000  12.0000000  12.0000000   1.0078250  12.0000000   1.0078250  12.0000000   1.0078250   1.0078250
 NucSpn=           0           0           0           0           1           0           1           0           1           1
 AtZEff=   0.0000000   0.0000000   0.0000000   0.0000000   0.0000000   0.0000000   0.0000000   0.0000000   0.0000000   0.0000000
 NQMom=    0.0000000   0.0000000   0.0000000   0.0000000   0.0000000   0.0000000   0.0000000   0.0000000   0.0000000   0.0000000
 NMagM=    0.0000000   0.0000000   0.0000000   0.0000000   2.7928460   0.0000000   2.7928460   0.0000000   2.7928460   2.7928460
 AtZNuc=   6.0000000   6.0000000   6.0000000   6.0000000   1.0000000   6.0000000   1.0000000   6.0000000   1.0000000   1.0000000

  Atom        41          42          43          44          45          46          47          48          49          50
 IAtWgt=          16          12           1           1           1           1          11          16          16           1
 AtmWgt=  15.9949146  12.0000000   1.0078250   1.0078250   1.0078250   1.0078250  11.0093053  15.9949146  15.9949146   1.0078250
 NucSpn=           0           0           1           1           1           1           3           0           0           1
 AtZEff=   0.0000000   0.0000000   0.0000000   0.0000000   0.0000000   0.0000000   0.0000000   0.0000000   0.0000000   0.0000000
 NQMom=    0.0000000   0.0000000   0.0000000   0.0000000   0.0000000   0.0000000   4.0590000   0.0000000   0.0000000   0.0000000
 NMagM=    0.0000000   0.0000000   2.7928460   2.7928460   2.7928460   2.7928460   2.6886370   0.0000000   0.0000000   2.7928460
 AtZNuc=   8.0000000   6.0000000   1.0000000   1.0000000   1.0000000   1.0000000   5.0000000   8.0000000   8.0000000   1.0000000

  Atom        51          52
 IAtWgt=           1           1
 AtmWgt=   1.0078250   1.0078250
 NucSpn=           1           1
 AtZEff=   0.0000000   0.0000000
 NQMom=    0.0000000   0.0000000
 NMagM=    2.7928460   2.7928460
 AtZNuc=   1.0000000   1.0000000
 Leave Link  101 at Mon Feb 22 10:07:22 2021, MaxMem=  5242880000 cpu:         5.9
 (Enter /opt/nce/packages/global/g09/l103.exe)

 GradGradGradGradGradGradGradGradGradGradGradGradGradGradGradGradGradGrad
 Berny optimization.
 Initialization pass.
                           ----------------------------
                           !    Initial Parameters    !
                           ! (Angstroms and Degrees)  !
 --------------------------                            --------------------------
 ! Name  Definition              Value          Derivative Info.                !
 --------------------------------------------------------------------------------
 ! R1    R(1,2)                  1.379          estimate D2E/DX2                !
 ! R2    R(1,6)                  1.4175         estimate D2E/DX2                !
 ! R3    R(1,15)                 1.0921         estimate D2E/DX2                !
 ! R4    R(2,3)                  1.4174         estimate D2E/DX2                !
 ! R5    R(2,16)                 1.0877         estimate D2E/DX2                !
 ! R6    R(3,4)                  1.4361         estimate D2E/DX2                !
 ! R7    R(3,22)                 1.3749         estimate D2E/DX2                !
 ! R8    R(4,5)                  1.43           estimate D2E/DX2                !
 ! R9    R(4,7)                  1.417          estimate D2E/DX2                !
 ! R10   R(5,6)                  1.3737         estimate D2E/DX2                !
 ! R11   R(5,17)                 1.0893         estimate D2E/DX2                !
 ! R12   R(6,18)                 1.0912         estimate D2E/DX2                !
 ! R13   R(7,8)                  1.416          estimate D2E/DX2                !
 ! R14   R(7,23)                 1.485          estimate D2E/DX2                !
 ! R15   R(8,9)                  1.4358         estimate D2E/DX2                !
 ! R16   R(8,14)                 1.4292         estimate D2E/DX2                !
 ! R17   R(9,10)                 1.4164         estimate D2E/DX2                !
 ! R18   R(9,22)                 1.3762         estimate D2E/DX2                !
 ! R19   R(10,11)                1.0877         estimate D2E/DX2                !
 ! R20   R(10,12)                1.3793         estimate D2E/DX2                !
 ! R21   R(12,13)                1.4171         estimate D2E/DX2                !
 ! R22   R(12,19)                1.0922         estimate D2E/DX2                !
 ! R23   R(13,14)                1.3734         estimate D2E/DX2                !
 ! R24   R(13,20)                1.0911         estimate D2E/DX2                !
 ! R25   R(14,21)                1.0886         estimate D2E/DX2                !
 ! R26   R(22,31)                1.449          estimate D2E/DX2                !
 ! R27   R(23,24)                1.4159         estimate D2E/DX2                !
 ! R28   R(23,25)                1.404          estimate D2E/DX2                !
 ! R29   R(24,26)                1.4047         estimate D2E/DX2                !
 ! R30   R(24,47)                1.5784         estimate D2E/DX2                !
 ! R31   R(25,27)                1.3957         estimate D2E/DX2                !
 ! R32   R(25,30)                1.0924         estimate D2E/DX2                !
 ! R33   R(26,28)                1.3968         estimate D2E/DX2                !
 ! R34   R(26,52)                1.0922         estimate D2E/DX2                !
 ! R35   R(27,28)                1.3971         estimate D2E/DX2                !
 ! R36   R(27,29)                1.0921         estimate D2E/DX2                !
 ! R37   R(28,46)                1.0921         estimate D2E/DX2                !
 ! R38   R(31,32)                1.3929         estimate D2E/DX2                !
 ! R39   R(31,33)                1.4002         estimate D2E/DX2                !
 ! R40   R(32,34)                1.3963         estimate D2E/DX2                !
 ! R41   R(32,35)                1.092          estimate D2E/DX2                !
 ! R42   R(33,36)                1.3875         estimate D2E/DX2                !
 ! R43   R(33,37)                1.0918         estimate D2E/DX2                !
 ! R44   R(34,38)                1.4074         estimate D2E/DX2                !
 ! R45   R(34,39)                1.089          estimate D2E/DX2                !
 ! R46   R(36,38)                1.4108         estimate D2E/DX2                !
 ! R47   R(36,40)                1.0909         estimate D2E/DX2                !
 ! R48   R(38,41)                1.3396         estimate D2E/DX2                !
 ! R49   R(41,42)                1.4181         estimate D2E/DX2                !
 ! R50   R(42,43)                1.0965         estimate D2E/DX2                !
 ! R51   R(42,44)                1.1032         estimate D2E/DX2                !
 ! R52   R(42,45)                1.1032         estimate D2E/DX2                !
 ! R53   R(47,48)                1.3692         estimate D2E/DX2                !
 ! R54   R(47,49)                1.3541         estimate D2E/DX2                !
 ! R55   R(48,50)                0.9638         estimate D2E/DX2                !
 ! R56   R(49,51)                0.9677         estimate D2E/DX2                !
 ! A1    A(2,1,6)              121.2867         estimate D2E/DX2                !
 ! A2    A(2,1,15)             119.1573         estimate D2E/DX2                !
 ! A3    A(6,1,15)             119.5535         estimate D2E/DX2                !
 ! A4    A(1,2,3)              119.881          estimate D2E/DX2                !
 ! A5    A(1,2,16)             120.4587         estimate D2E/DX2                !
 ! A6    A(3,2,16)             119.6601         estimate D2E/DX2                !
 ! A7    A(2,3,4)              119.6216         estimate D2E/DX2                !
 ! A8    A(2,3,22)             120.7428         estimate D2E/DX2                !
 ! A9    A(4,3,22)             119.6315         estimate D2E/DX2                !
 ! A10   A(3,4,5)              118.3734         estimate D2E/DX2                !
 ! A11   A(3,4,7)              119.6084         estimate D2E/DX2                !
 ! A12   A(5,4,7)              121.9961         estimate D2E/DX2                !
 ! A13   A(4,5,6)              120.9927         estimate D2E/DX2                !
 ! A14   A(4,5,17)             118.4352         estimate D2E/DX2                !
 ! A15   A(6,5,17)             120.5721         estimate D2E/DX2                !
 ! A16   A(1,6,5)              119.8151         estimate D2E/DX2                !
 ! A17   A(1,6,18)             119.8817         estimate D2E/DX2                !
 ! A18   A(5,6,18)             120.3029         estimate D2E/DX2                !
 ! A19   A(4,7,8)              119.3121         estimate D2E/DX2                !
 ! A20   A(4,7,23)             120.6347         estimate D2E/DX2                !
 ! A21   A(8,7,23)             120.0485         estimate D2E/DX2                !
 ! A22   A(7,8,9)              119.6036         estimate D2E/DX2                !
 ! A23   A(7,8,14)             122.0016         estimate D2E/DX2                !
 ! A24   A(9,8,14)             118.3922         estimate D2E/DX2                !
 ! A25   A(8,9,10)             119.6914         estimate D2E/DX2                !
 ! A26   A(8,9,22)             119.6432         estimate D2E/DX2                !
 ! A27   A(10,9,22)            120.6652         estimate D2E/DX2                !
 ! A28   A(9,10,11)            119.7363         estimate D2E/DX2                !
 ! A29   A(9,10,12)            119.7999         estimate D2E/DX2                !
 ! A30   A(11,10,12)           120.4636         estimate D2E/DX2                !
 ! A31   A(10,12,13)           121.2982         estimate D2E/DX2                !
 ! A32   A(10,12,19)           119.1383         estimate D2E/DX2                !
 ! A33   A(13,12,19)           119.5607         estimate D2E/DX2                !
 ! A34   A(12,13,14)           119.8584         estimate D2E/DX2                !
 ! A35   A(12,13,20)           119.9162         estimate D2E/DX2                !
 ! A36   A(14,13,20)           120.2241         estimate D2E/DX2                !
 ! A37   A(8,14,13)            120.9352         estimate D2E/DX2                !
 ! A38   A(8,14,21)            118.6489         estimate D2E/DX2                !
 ! A39   A(13,14,21)           120.4155         estimate D2E/DX2                !
 ! A40   A(3,22,9)             122.1785         estimate D2E/DX2                !
 ! A41   A(3,22,31)            118.9089         estimate D2E/DX2                !
 ! A42   A(9,22,31)            118.9126         estimate D2E/DX2                !
 ! A43   A(7,23,24)            120.1088         estimate D2E/DX2                !
 ! A44   A(7,23,25)            119.0916         estimate D2E/DX2                !
 ! A45   A(24,23,25)           120.7568         estimate D2E/DX2                !
 ! A46   A(23,24,26)           117.7911         estimate D2E/DX2                !
 ! A47   A(23,24,47)           122.7926         estimate D2E/DX2                !
 ! A48   A(26,24,47)           119.3955         estimate D2E/DX2                !
 ! A49   A(23,25,27)           120.1223         estimate D2E/DX2                !
 ! A50   A(23,25,30)           119.8146         estimate D2E/DX2                !
 ! A51   A(27,25,30)           120.047          estimate D2E/DX2                !
 ! A52   A(24,26,28)           121.5303         estimate D2E/DX2                !
 ! A53   A(24,26,52)           118.7862         estimate D2E/DX2                !
 ! A54   A(28,26,52)           119.6835         estimate D2E/DX2                !
 ! A55   A(25,27,28)           119.8672         estimate D2E/DX2                !
 ! A56   A(25,27,29)           119.7799         estimate D2E/DX2                !
 ! A57   A(28,27,29)           120.3511         estimate D2E/DX2                !
 ! A58   A(26,28,27)           119.9299         estimate D2E/DX2                !
 ! A59   A(26,28,46)           120.0246         estimate D2E/DX2                !
 ! A60   A(27,28,46)           120.0452         estimate D2E/DX2                !
 ! A61   A(22,31,32)           119.6936         estimate D2E/DX2                !
 ! A62   A(22,31,33)           119.6344         estimate D2E/DX2                !
 ! A63   A(32,31,33)           120.672          estimate D2E/DX2                !
 ! A64   A(31,32,34)           120.0305         estimate D2E/DX2                !
 ! A65   A(31,32,35)           119.9269         estimate D2E/DX2                !
 ! A66   A(34,32,35)           120.0425         estimate D2E/DX2                !
 ! A67   A(31,33,36)           119.574          estimate D2E/DX2                !
 ! A68   A(31,33,37)           120.0176         estimate D2E/DX2                !
 ! A69   A(36,33,37)           120.4084         estimate D2E/DX2                !
 ! A70   A(32,34,38)           119.8257         estimate D2E/DX2                !
 ! A71   A(32,34,39)           119.1607         estimate D2E/DX2                !
 ! A72   A(38,34,39)           121.0135         estimate D2E/DX2                !
 ! A73   A(33,36,38)           120.4462         estimate D2E/DX2                !
 ! A74   A(33,36,40)           121.2771         estimate D2E/DX2                !
 ! A75   A(38,36,40)           118.2767         estimate D2E/DX2                !
 ! A76   A(34,38,36)           119.4515         estimate D2E/DX2                !
 ! A77   A(34,38,41)           124.522          estimate D2E/DX2                !
 ! A78   A(36,38,41)           116.0265         estimate D2E/DX2                !
 ! A79   A(38,41,42)           119.8557         estimate D2E/DX2                !
 ! A80   A(41,42,43)           106.2951         estimate D2E/DX2                !
 ! A81   A(41,42,44)           111.3366         estimate D2E/DX2                !
 ! A82   A(41,42,45)           111.3417         estimate D2E/DX2                !
 ! A83   A(43,42,44)           109.2            estimate D2E/DX2                !
 ! A84   A(43,42,45)           109.1991         estimate D2E/DX2                !
 ! A85   A(44,42,45)           109.3887         estimate D2E/DX2                !
 ! A86   A(24,47,48)           123.1579         estimate D2E/DX2                !
 ! A87   A(24,47,49)           117.8437         estimate D2E/DX2                !
 ! A88   A(48,47,49)           118.9979         estimate D2E/DX2                !
 ! A89   A(47,48,50)           114.4153         estimate D2E/DX2                !
 ! A90   A(47,49,51)           113.0398         estimate D2E/DX2                !
 ! D1    D(6,1,2,3)             -0.5642         estimate D2E/DX2                !
 ! D2    D(6,1,2,16)           179.2407         estimate D2E/DX2                !
 ! D3    D(15,1,2,3)          -179.9901         estimate D2E/DX2                !
 ! D4    D(15,1,2,16)           -0.1852         estimate D2E/DX2                !
 ! D5    D(2,1,6,5)              0.8933         estimate D2E/DX2                !
 ! D6    D(2,1,6,18)          -178.9156         estimate D2E/DX2                !
 ! D7    D(15,1,6,5)          -179.683          estimate D2E/DX2                !
 ! D8    D(15,1,6,18)            0.508          estimate D2E/DX2                !
 ! D9    D(1,2,3,4)             -0.8661         estimate D2E/DX2                !
 ! D10   D(1,2,3,22)           178.3895         estimate D2E/DX2                !
 ! D11   D(16,2,3,4)           179.3275         estimate D2E/DX2                !
 ! D12   D(16,2,3,22)           -1.4169         estimate D2E/DX2                !
 ! D13   D(2,3,4,5)              1.9306         estimate D2E/DX2                !
 ! D14   D(2,3,4,7)           -179.7489         estimate D2E/DX2                !
 ! D15   D(22,3,4,5)          -177.3333         estimate D2E/DX2                !
 ! D16   D(22,3,4,7)             0.9871         estimate D2E/DX2                !
 ! D17   D(2,3,22,9)           179.639          estimate D2E/DX2                !
 ! D18   D(2,3,22,31)           -0.4025         estimate D2E/DX2                !
 ! D19   D(4,3,22,9)            -1.1055         estimate D2E/DX2                !
 ! D20   D(4,3,22,31)          178.853          estimate D2E/DX2                !
 ! D21   D(3,4,5,6)             -1.6278         estimate D2E/DX2                !
 ! D22   D(3,4,5,17)           178.313          estimate D2E/DX2                !
 ! D23   D(7,4,5,6)           -179.906          estimate D2E/DX2                !
 ! D24   D(7,4,5,17)             0.0349         estimate D2E/DX2                !
 ! D25   D(3,4,7,8)              0.2724         estimate D2E/DX2                !
 ! D26   D(3,4,7,23)          -178.9377         estimate D2E/DX2                !
 ! D27   D(5,4,7,8)            178.5298         estimate D2E/DX2                !
 ! D28   D(5,4,7,23)            -0.6802         estimate D2E/DX2                !
 ! D29   D(4,5,6,1)              0.2389         estimate D2E/DX2                !
 ! D30   D(4,5,6,18)          -179.9529         estimate D2E/DX2                !
 ! D31   D(17,5,6,1)          -179.7007         estimate D2E/DX2                !
 ! D32   D(17,5,6,18)            0.1075         estimate D2E/DX2                !
 ! D33   D(4,7,8,9)             -1.4104         estimate D2E/DX2                !
 ! D34   D(4,7,8,14)           177.9931         estimate D2E/DX2                !
 ! D35   D(23,7,8,9)           177.8044         estimate D2E/DX2                !
 ! D36   D(23,7,8,14)           -2.7921         estimate D2E/DX2                !
 ! D37   D(4,7,23,24)          112.8831         estimate D2E/DX2                !
 ! D38   D(4,7,23,25)          -69.4776         estimate D2E/DX2                !
 ! D39   D(8,7,23,24)          -66.3212         estimate D2E/DX2                !
 ! D40   D(8,7,23,25)          111.3181         estimate D2E/DX2                !
 ! D41   D(7,8,9,10)          -178.8443         estimate D2E/DX2                !
 ! D42   D(7,8,9,22)             1.3272         estimate D2E/DX2                !
 ! D43   D(14,8,9,10)            1.7307         estimate D2E/DX2                !
 ! D44   D(14,8,9,22)         -178.0978         estimate D2E/DX2                !
 ! D45   D(7,8,14,13)          178.9959         estimate D2E/DX2                !
 ! D46   D(7,8,14,21)           -1.2296         estimate D2E/DX2                !
 ! D47   D(9,8,14,13)           -1.5936         estimate D2E/DX2                !
 ! D48   D(9,8,14,21)          178.1809         estimate D2E/DX2                !
 ! D49   D(8,9,10,11)          179.4963         estimate D2E/DX2                !
 ! D50   D(8,9,10,12)           -0.6792         estimate D2E/DX2                !
 ! D51   D(22,9,10,11)          -0.6769         estimate D2E/DX2                !
 ! D52   D(22,9,10,12)         179.1475         estimate D2E/DX2                !
 ! D53   D(8,9,22,3)            -0.0503         estimate D2E/DX2                !
 ! D54   D(8,9,22,31)          179.9913         estimate D2E/DX2                !
 ! D55   D(10,9,22,3)         -179.8771         estimate D2E/DX2                !
 ! D56   D(10,9,22,31)           0.1644         estimate D2E/DX2                !
 ! D57   D(9,10,12,13)          -0.568          estimate D2E/DX2                !
 ! D58   D(9,10,12,19)        -179.952          estimate D2E/DX2                !
 ! D59   D(11,10,12,13)        179.2552         estimate D2E/DX2                !
 ! D60   D(11,10,12,19)         -0.1289         estimate D2E/DX2                !
 ! D61   D(10,12,13,14)          0.7274         estimate D2E/DX2                !
 ! D62   D(10,12,13,20)       -178.8722         estimate D2E/DX2                !
 ! D63   D(19,12,13,14)       -179.8911         estimate D2E/DX2                !
 ! D64   D(19,12,13,20)          0.5093         estimate D2E/DX2                !
 ! D65   D(12,13,14,8)           0.3867         estimate D2E/DX2                !
 ! D66   D(12,13,14,21)       -179.3839         estimate D2E/DX2                !
 ! D67   D(20,13,14,8)         179.9851         estimate D2E/DX2                !
 ! D68   D(20,13,14,21)          0.2145         estimate D2E/DX2                !
 ! D69   D(3,22,31,32)         -89.6901         estimate D2E/DX2                !
 ! D70   D(3,22,31,33)          90.3884         estimate D2E/DX2                !
 ! D71   D(9,22,31,32)          90.2698         estimate D2E/DX2                !
 ! D72   D(9,22,31,33)         -89.6517         estimate D2E/DX2                !
 ! D73   D(7,23,24,26)         177.0223         estimate D2E/DX2                !
 ! D74   D(7,23,24,47)          -4.6475         estimate D2E/DX2                !
 ! D75   D(25,23,24,26)         -0.5771         estimate D2E/DX2                !
 ! D76   D(25,23,24,47)        177.753          estimate D2E/DX2                !
 ! D77   D(7,23,25,27)        -177.2217         estimate D2E/DX2                !
 ! D78   D(7,23,25,30)           1.3202         estimate D2E/DX2                !
 ! D79   D(24,23,25,27)          0.4019         estimate D2E/DX2                !
 ! D80   D(24,23,25,30)        178.9437         estimate D2E/DX2                !
 ! D81   D(23,24,26,28)          0.4971         estimate D2E/DX2                !
 ! D82   D(23,24,26,52)       -179.4732         estimate D2E/DX2                !
 ! D83   D(47,24,26,28)       -177.8917         estimate D2E/DX2                !
 ! D84   D(47,24,26,52)          2.138          estimate D2E/DX2                !
 ! D85   D(23,24,47,48)        -39.3126         estimate D2E/DX2                !
 ! D86   D(23,24,47,49)        140.4376         estimate D2E/DX2                !
 ! D87   D(26,24,47,48)        138.9919         estimate D2E/DX2                !
 ! D88   D(26,24,47,49)        -41.2579         estimate D2E/DX2                !
 ! D89   D(23,25,27,28)         -0.1261         estimate D2E/DX2                !
 ! D90   D(23,25,27,29)        179.3915         estimate D2E/DX2                !
 ! D91   D(30,25,27,28)       -178.6645         estimate D2E/DX2                !
 ! D92   D(30,25,27,29)          0.8531         estimate D2E/DX2                !
 ! D93   D(24,26,28,27)         -0.2372         estimate D2E/DX2                !
 ! D94   D(24,26,28,46)        179.9606         estimate D2E/DX2                !
 ! D95   D(52,26,28,27)        179.7329         estimate D2E/DX2                !
 ! D96   D(52,26,28,46)         -0.0694         estimate D2E/DX2                !
 ! D97   D(25,27,28,26)          0.0425         estimate D2E/DX2                !
 ! D98   D(25,27,28,46)        179.8448         estimate D2E/DX2                !
 ! D99   D(29,27,28,26)       -179.4722         estimate D2E/DX2                !
 ! D100  D(29,27,28,46)          0.33           estimate D2E/DX2                !
 ! D101  D(22,31,32,34)       -179.9461         estimate D2E/DX2                !
 ! D102  D(22,31,32,35)         -0.0389         estimate D2E/DX2                !
 ! D103  D(33,31,32,34)         -0.0255         estimate D2E/DX2                !
 ! D104  D(33,31,32,35)        179.8817         estimate D2E/DX2                !
 ! D105  D(22,31,33,36)        179.9703         estimate D2E/DX2                !
 ! D106  D(22,31,33,37)         -0.016          estimate D2E/DX2                !
 ! D107  D(32,31,33,36)          0.0496         estimate D2E/DX2                !
 ! D108  D(32,31,33,37)       -179.9367         estimate D2E/DX2                !
 ! D109  D(31,32,34,38)         -0.0059         estimate D2E/DX2                !
 ! D110  D(31,32,34,39)        179.9693         estimate D2E/DX2                !
 ! D111  D(35,32,34,38)       -179.913          estimate D2E/DX2                !
 ! D112  D(35,32,34,39)          0.0623         estimate D2E/DX2                !
 ! D113  D(31,33,36,38)         -0.0423         estimate D2E/DX2                !
 ! D114  D(31,33,36,40)        179.9918         estimate D2E/DX2                !
 ! D115  D(37,33,36,38)        179.944          estimate D2E/DX2                !
 ! D116  D(37,33,36,40)         -0.0219         estimate D2E/DX2                !
 ! D117  D(32,34,38,36)          0.013          estimate D2E/DX2                !
 ! D118  D(32,34,38,41)       -179.9951         estimate D2E/DX2                !
 ! D119  D(39,34,38,36)       -179.9618         estimate D2E/DX2                !
 ! D120  D(39,34,38,41)          0.0301         estimate D2E/DX2                !
 ! D121  D(33,36,38,34)          0.0113         estimate D2E/DX2                !
 ! D122  D(33,36,38,41)       -179.9813         estimate D2E/DX2                !
 ! D123  D(40,36,38,34)        179.9782         estimate D2E/DX2                !
 ! D124  D(40,36,38,41)         -0.0143         estimate D2E/DX2                !
 ! D125  D(34,38,41,42)         -0.0608         estimate D2E/DX2                !
 ! D126  D(36,38,41,42)        179.9314         estimate D2E/DX2                !
 ! D127  D(38,41,42,43)       -179.9751         estimate D2E/DX2                !
 ! D128  D(38,41,42,44)        -61.157          estimate D2E/DX2                !
 ! D129  D(38,41,42,45)         61.205          estimate D2E/DX2                !
 ! D130  D(24,47,48,50)         -8.7867         estimate D2E/DX2                !
 ! D131  D(49,47,48,50)        171.4658         estimate D2E/DX2                !
 ! D132  D(24,47,49,51)        176.0594         estimate D2E/DX2                !
 ! D133  D(48,47,49,51)         -4.1797         estimate D2E/DX2                !
 --------------------------------------------------------------------------------
 Trust Radius=3.00D-01 FncErr=1.00D-07 GrdErr=1.00D-06
 Number of steps in this run=    289 maximum allowed number of steps=    312.
 GradGradGradGradGradGradGradGradGradGradGradGradGradGradGradGradGradGrad

 Leave Link  103 at Mon Feb 22 10:07:23 2021, MaxMem=  5242880000 cpu:         1.1
 (Enter /opt/nce/packages/global/g09/l202.exe)
 Symmetry turned off by external request.
 Stoichiometry    C26H21BNO3(1+)
 Framework group  C1[X(C26H21BNO3)]
 Deg. of freedom   150
 Full point group                 C1      NOp   1
                          Input orientation:                          
 ---------------------------------------------------------------------
 Center     Atomic      Atomic             Coordinates (Angstroms)
 Number     Number       Type             X           Y           Z
 ---------------------------------------------------------------------
      1          6           0       -0.646901    3.721652    0.383228
      2          6           0       -1.275038    2.515629    0.154004
      3          6           0       -0.502997    1.354404   -0.100218
      4          6           0        0.929656    1.448135   -0.135346
      5          6           0        1.534475    2.716196    0.131580
      6          6           0        0.766697    3.827290    0.382413
      7          6           0        1.700978    0.288147   -0.394804
      8          6           0        1.043387   -0.945260   -0.621226
      9          6           0       -0.389535   -1.007834   -0.554509
     10          6           0       -1.047902   -2.245585   -0.756400
     11          1           0       -2.132844   -2.295404   -0.697888
     12          6           0       -0.309572   -3.378206   -1.029301
     13          6           0        1.103447   -3.330502   -1.125021
     14          6           0        1.762243   -2.141426   -0.929535
     15          1           0       -1.253271    4.608851    0.578029
     16          1           0       -2.360536    2.447501    0.169872
     17          1           0        2.621806    2.782304    0.132719
     18          1           0        1.240084    4.789621    0.584003
     19          1           0       -0.828377   -4.326766   -1.183900
     20          1           0        1.663857   -4.236727   -1.360127
     21          1           0        2.846716   -2.092365   -1.010771
     22          7           0       -1.109617    0.136597   -0.298459
     23          6           0        3.184373    0.354287   -0.413151
     24          6           0        3.937422   -0.310873    0.584512
     25          6           0        3.824204    1.040508   -1.457573
     26          6           0        5.337947   -0.269600    0.484419
     27          6           0        5.217889    1.067011   -1.527920
     28          6           0        5.976246    0.411149   -0.554924
     29          1           0        5.709645    1.594079   -2.348282
     30          1           0        3.228115    1.533816   -2.228750
     31          6           0       -2.554964    0.055352   -0.234791
     32          6           0       -3.178542   -0.202502    0.983755
     33          6           0       -3.310504    0.235337   -1.399814
     34          6           0       -4.570761   -0.283392    1.052960
     35          1           0       -2.577336   -0.342801    1.884457
     36          6           0       -4.694321    0.156667   -1.337529
     37          1           0       -2.810567    0.435920   -2.349492
     38          6           0       -5.341076   -0.103641   -0.111062
     39          1           0       -5.043422   -0.486117    2.012807
     40          1           0       -5.309962    0.292484   -2.227793
     41          8           0       -6.678766   -0.161103   -0.152552
     42          6           0       -7.411398   -0.419612    1.033789
     43          1           0       -8.470052   -0.418075    0.748115
     44          1           0       -7.151885   -1.403804    1.459419
     45          1           0       -7.238820    0.363933    1.791042
     46          1           0        7.066928    0.427878   -0.608560
     47          5           0        3.269609   -1.052546    1.807387
     48          8           0        2.178367   -0.563843    2.474467
     49          8           0        3.807825   -2.230373    2.203326
     50          1           0        1.928497    0.333258    2.226167
     51          1           0        3.383889   -2.593842    2.993638
     52          1           0        5.934663   -0.784620    1.240442
 ---------------------------------------------------------------------
 Rotational constants (GHZ):      0.2978832      0.0890757      0.0788022
 Leave Link  202 at Mon Feb 22 10:07:23 2021, MaxMem=  5242880000 cpu:         0.5
 (Enter /opt/nce/packages/global/g09/l301.exe)
 Standard basis: def2TZVP (5D, 7F)
 Ernie: Thresh=  0.10000D-02 Tol=  0.10000D-05 Strict=F.
  1087 basis functions,  1749 primitive gaussians,  1242 cartesian basis functions
   106 alpha electrons      106 beta electrons
       nuclear repulsion energy      2874.9988380751 Hartrees.
 IExCor= 4336 DFT=T Ex+Corr=M062X ExCW=0 ScaHFX=  0.540000
 ScaDFX=  1.000000  1.000000  1.000000  1.000000 ScalE2=  1.000000  1.000000
 IRadAn=      5 IRanWt=     -1 IRanGd=            0 ICorTp=0 IEmpDi=  4
 NAtoms=   52 NActive=   52 NUniq=   52 SFac= 1.00D+00 NAtFMM=   60 NAOKFM=F Big=F
 Integral buffers will be    131072 words long.
 Raffenetti 2 integral format.
 Two-electron integral symmetry is turned off.
 ------------------------------------------------------------------------------
 Polarizable Continuum Model (PCM)
 =================================
 Model                : PCM (using non-symmetric T matrix).
 Atomic radii         : SMD-Coulomb.
 Polarization charges : Total charges.
 Charge compensation  : None.
 Solution method      : On-the-fly selection.
 Cavity type          : VdW (van der Waals Surface) (Alpha=1.000).
 Cavity algorithm     : GePol (No added spheres)
                        Default sphere list used, NSphG=   52.
                        Lebedev-Laikov grids with approx.  5.0 points / Ang**2.
                        Smoothing algorithm: York/Karplus (Gamma=1.0000).
                        Polarization charges: spherical gaussians, with
                                              point-specific exponents (IZeta= 3).
                        Self-potential: point-specific (ISelfS= 7).
                        Self-field    : sphere-specific E.n sum rule (ISelfD= 2).
 1st derivatives      : Analytical E(r).r(x)/FMM algorithm (CHGder, D1EAlg=3).
                        Cavity 1st derivative terms included.
 Solvent              : Acetonitrile, Eps=  35.688000 Eps(inf)=   1.806874
 ------------------------------------------------------------------------------
 GePol: Number of generator spheres                  =      52
 GePol: Total number of spheres                      =      52
 GePol: Number of exposed spheres                    =      50 ( 96.15%)
 GePol: Number of points                             =    3793
 GePol: Average weight of points                     =       0.12
 GePol: Minimum weight of points                     =   0.96D-11
 GePol: Maximum weight of points                     =    0.21559
 GePol: Number of points with low weight             =     233
 GePol: Fraction of low-weight points (<1% of avg)   =       6.14%
 GePol: Cavity surface area                          =    438.989 Ang**2
 GePol: Cavity volume                                =    445.444 Ang**3
 ------------------------------------------------------------------------------
 Atomic radii for non-electrostatic terms: SMD-CDS.
 ------------------------------------------------------------------------------
 PCM non-electrostatic energy =        -0.0084817840 Hartrees.
 Nuclear repulsion after PCM non-electrostatic terms =     2874.9903562910 Hartrees.
 Leave Link  301 at Mon Feb 22 10:07:23 2021, MaxMem=  5242880000 cpu:         2.6
 (Enter /opt/nce/packages/global/g09/l302.exe)
 NPDir=0 NMtPBC=     1 NCelOv=     1 NCel=       1 NClECP=     1 NCelD=      1
         NCelK=      1 NCelE2=     1 NClLst=     1 CellRange=     0.0.
 One-electron integrals computed using PRISM.
   1 Symmetry operations used in ECPInt.
 ECPInt:  NShTT=   90525 NPrTT=  279376 LenC2=   73614 LenP2D=  155946.
 LDataN:  DoStor=T MaxTD1= 6 Len=  172
 NBasis=  1087 RedAO= T EigKep=  4.68D-06  NBF=  1087
 NBsUse=  1087 1.00D-06 EigRej= -1.00D+00 NBFU=  1087
 Precomputing XC quadrature grid using
 IXCGrd= 4 IRadAn=           5 IRanWt=          -1 IRanGd=           0 AccXCQ= 0.00D+00.
 Generated NRdTot=       0 NPtTot=           0 NUsed=           0 NTot=          32
 NSgBfM=  1191  1191  1191  1191  1191 MxSgAt=    52 MxSgA2=    52.
 Leave Link  302 at Mon Feb 22 10:07:28 2021, MaxMem=  5242880000 cpu:        40.4
 (Enter /opt/nce/packages/global/g09/l303.exe)
 DipDrv:  MaxL=1.
 Leave Link  303 at Mon Feb 22 10:07:29 2021, MaxMem=  5242880000 cpu:         5.6
 (Enter /opt/nce/packages/global/g09/l401.exe)
 ExpMin= 6.06D-02 ExpMax= 2.70D+04 ExpMxC= 9.22D+02 IAcc=3 IRadAn=         5 AccDes= 0.00D+00
 Harris functional with IExCor= 1009 and IRadAn=       5 diagonalized for initial guess.
 HarFok:  IExCor= 1009 AccDes= 0.00D+00 IRadAn=         5 IDoV= 1 UseB2=F ITyADJ=14
 ICtDFT=  3500011 ScaDFX=  1.000000  1.000000  1.000000  1.000000
 FoFCou: FMM=F IPFlag=           0 FMFlag=      100000 FMFlg1=           0
         NFxFlg=           0 DoJE=T BraDBF=F KetDBF=T FulRan=T
         wScrn=  0.000000 ICntrl=     500 IOpCl=  0 I1Cent=   200000004 NGrid=           0
         NMat0=    1 NMatS0=      1 NMatT0=    0 NMatD0=    1 NMtDS0=    0 NMtDT0=    0
 Symmetry not used in FoFCou.
 Harris En= -1307.92298541136    
 JPrj=0 DoOrth=F DoCkMO=F.
 Leave Link  401 at Mon Feb 22 10:08:01 2021, MaxMem=  5242880000 cpu:       219.7
 (Enter /opt/nce/packages/global/g09/l502.exe)
 Closed shell SCF:
 Using DIIS extrapolation, IDIIS=  1040.
 Two-electron integral symmetry not used.
 IVT=     4668702 IEndB=     4668702 NGot=  5242880000 MDV=  5239771745
 LenX=  5239771745 LenY=  5238227939
 Requested convergence on RMS density matrix=1.00D-08 within 128 cycles.
 Requested convergence on MAX density matrix=1.00D-06.
 Requested convergence on             energy=1.00D-06.
 No special actions if energy rises.
 Fock matrices will be formed incrementally for  20 cycles.

 Cycle   1  Pass 1  IDiag  1:
 FoFJK:  IHMeth= 1 ICntrl=       0 DoSepK=F KAlg= 0 I1Cent=   0 FoldK=F
 IRaf= 700000000 NMat=   1 IRICut=       1 DoRegI=T DoRafI=F ISym2E= 0.
 FoFCou: FMM=F IPFlag=           0 FMFlag=      100000 FMFlg1=           0
         NFxFlg=           0 DoJE=F BraDBF=F KetDBF=F FulRan=T
         wScrn=  0.000000 ICntrl=       0 IOpCl=  0 I1Cent=           0 NGrid=           0
         NMat0=    1 NMatS0=      1 NMatT0=    0 NMatD0=    1 NMtDS0=    0 NMtDT0=    0
 Symmetry not used in FoFCou.
 Inv3:  Mode=1 IEnd=    43160547.
 Iteration    1 A*A^-1 deviation from unit magnitude is 7.99D-15 for   3783.
 Iteration    1 A*A^-1 deviation from orthogonality  is 4.31D-15 for   1249    678.
 Iteration    1 A^-1*A deviation from unit magnitude is 7.77D-15 for   3783.
 Iteration    1 A^-1*A deviation from orthogonality  is 1.54D-12 for   1858   1787.
 E= -1307.98036392489    
 DIIS: error= 1.60D-02 at cycle   1 NSaved=   1.
 NSaved= 1 IEnMin= 1 EnMin= -1307.98036392489     IErMin= 1 ErrMin= 1.60D-02
 ErrMax= 1.60D-02  0.00D+00 EMaxC= 1.00D-01 BMatC= 8.78D-01 BMatP= 8.78D-01
 IDIUse=3 WtCom= 8.40D-01 WtEn= 1.60D-01
 Coeff-Com:  0.100D+01
 Coeff-En:   0.100D+01
 Coeff:      0.100D+01
 Gap=     0.182 Goal=   None    Shift=    0.000
 GapD=    0.182 DampG=1.000 DampE=0.500 DampFc=0.5000 IDamp=-1.
 Damping current iteration by 5.00D-01
 RMSDP=2.72D-03 MaxDP=9.01D-01              OVMax= 2.19D-01

 Cycle   2  Pass 1  IDiag  1:
 RMSU=  1.36D-03    CP:  9.94D-01
 E= -1308.31029575826     Delta-E=       -0.329931833370 Rises=F Damp=T
 DIIS: error= 5.07D-03 at cycle   2 NSaved=   2.
 NSaved= 2 IEnMin= 2 EnMin= -1308.31029575826     IErMin= 2 ErrMin= 5.07D-03
 ErrMax= 5.07D-03  0.00D+00 EMaxC= 1.00D-01 BMatC= 8.72D-02 BMatP= 8.78D-01
 IDIUse=3 WtCom= 9.49D-01 WtEn= 5.07D-02
 Coeff-Com: -0.997D-01 0.110D+01
 Coeff-En:   0.000D+00 0.100D+01
 Coeff:     -0.947D-01 0.109D+01
 Gap=     0.246 Goal=   None    Shift=    0.000
 RMSDP=1.10D-03 MaxDP=2.14D-01 DE=-3.30D-01 OVMax= 1.96D-01

 Cycle   3  Pass 1  IDiag  1:
 RMSU=  1.05D-03    CP:  9.32D-01  9.30D-01
 E= -1308.61446907014     Delta-E=       -0.304173311874 Rises=F Damp=F
 DIIS: error= 7.56D-03 at cycle   3 NSaved=   3.
 NSaved= 3 IEnMin= 3 EnMin= -1308.61446907014     IErMin= 2 ErrMin= 5.07D-03
 ErrMax= 7.56D-03  0.00D+00 EMaxC= 1.00D-01 BMatC= 4.25D-02 BMatP= 8.72D-02
 IDIUse=3 WtCom= 9.24D-01 WtEn= 7.56D-02
 Coeff-Com: -0.125D+00 0.483D+00 0.642D+00
 Coeff-En:   0.000D+00 0.000D+00 0.100D+01
 Coeff:     -0.116D+00 0.447D+00 0.669D+00
 Gap=     0.198 Goal=   None    Shift=    0.000
 RMSDP=2.61D-04 MaxDP=6.92D-02 DE=-3.04D-01 OVMax= 7.32D-02

 Cycle   4  Pass 1  IDiag  1:
 RMSU=  2.31D-04    CP:  9.37D-01  1.01D+00  9.42D-01
 E= -1308.64690272043     Delta-E=       -0.032433650293 Rises=F Damp=F
 DIIS: error= 2.36D-03 at cycle   4 NSaved=   4.
 NSaved= 4 IEnMin= 4 EnMin= -1308.64690272043     IErMin= 4 ErrMin= 2.36D-03
 ErrMax= 2.36D-03  0.00D+00 EMaxC= 1.00D-01 BMatC= 7.13D-03 BMatP= 4.25D-02
 IDIUse=3 WtCom= 9.76D-01 WtEn= 2.36D-02
 Coeff-Com: -0.453D-01 0.123D+00 0.347D+00 0.576D+00
 Coeff-En:   0.000D+00 0.000D+00 0.114D+00 0.886D+00
 Coeff:     -0.443D-01 0.120D+00 0.341D+00 0.584D+00
 Gap=     0.191 Goal=   None    Shift=    0.000
 RMSDP=8.34D-05 MaxDP=1.11D-02 DE=-3.24D-02 OVMax= 2.51D-02

 Cycle   5  Pass 1  IDiag  1:
 RMSU=  6.16D-05    CP:  9.37D-01  1.02D+00  9.37D-01  7.67D-01
 E= -1308.65309509038     Delta-E=       -0.006192369956 Rises=F Damp=F
 DIIS: error= 4.26D-04 at cycle   5 NSaved=   5.
 NSaved= 5 IEnMin= 5 EnMin= -1308.65309509038     IErMin= 5 ErrMin= 4.26D-04
 ErrMax= 4.26D-04  0.00D+00 EMaxC= 1.00D-01 BMatC= 4.01D-04 BMatP= 7.13D-03
 IDIUse=3 WtCom= 9.96D-01 WtEn= 4.26D-03
 Coeff-Com: -0.125D-01 0.243D-01 0.122D+00 0.280D+00 0.586D+00
 Coeff-En:   0.000D+00 0.000D+00 0.000D+00 0.000D+00 0.100D+01
 Coeff:     -0.124D-01 0.242D-01 0.122D+00 0.279D+00 0.587D+00
 Gap=     0.193 Goal=   None    Shift=    0.000
 RMSDP=3.83D-05 MaxDP=1.53D-02 DE=-6.19D-03 OVMax= 5.69D-03

 Cycle   6  Pass 1  IDiag  1:
 RMSU=  3.28D-05    CP:  9.36D-01  1.01D+00  9.44D-01  7.35D-01  8.08D-01
 E= -1308.65343516748     Delta-E=       -0.000340077092 Rises=F Damp=F
 DIIS: error= 1.78D-04 at cycle   6 NSaved=   6.
 NSaved= 6 IEnMin= 6 EnMin= -1308.65343516748     IErMin= 6 ErrMin= 1.78D-04
 ErrMax= 1.78D-04  0.00D+00 EMaxC= 1.00D-01 BMatC= 3.08D-05 BMatP= 4.01D-04
 IDIUse=3 WtCom= 9.98D-01 WtEn= 1.78D-03
 Coeff-Com: -0.137D-02 0.614D-03 0.209D-01 0.558D-01 0.254D+00 0.670D+00
 Coeff-En:   0.000D+00 0.000D+00 0.000D+00 0.000D+00 0.000D+00 0.100D+01
 Coeff:     -0.137D-02 0.613D-03 0.209D-01 0.557D-01 0.254D+00 0.670D+00
 Gap=     0.193 Goal=   None    Shift=    0.000
 RMSDP=1.34D-05 MaxDP=5.53D-03 DE=-3.40D-04 OVMax= 1.54D-03

 Cycle   7  Pass 1  IDiag  1:
 RMSU=  9.20D-06    CP:  9.36D-01  1.01D+00  9.41D-01  7.50D-01  9.12D-01
                    CP:  8.67D-01
 E= -1308.65346558220     Delta-E=       -0.000030414721 Rises=F Damp=F
 DIIS: error= 5.71D-05 at cycle   7 NSaved=   7.
 NSaved= 7 IEnMin= 7 EnMin= -1308.65346558220     IErMin= 7 ErrMin= 5.71D-05
 ErrMax= 5.71D-05  0.00D+00 EMaxC= 1.00D-01 BMatC= 3.79D-06 BMatP= 3.08D-05
 IDIUse=1 WtCom= 1.00D+00 WtEn= 0.00D+00
 Coeff-Com:  0.104D-02-0.295D-02-0.627D-02-0.136D-01 0.461D-01 0.294D+00
 Coeff-Com:  0.682D+00
 Coeff:      0.104D-02-0.295D-02-0.627D-02-0.136D-01 0.461D-01 0.294D+00
 Coeff:      0.682D+00
 Gap=     0.193 Goal=   None    Shift=    0.000
 RMSDP=3.98D-06 MaxDP=4.53D-04 DE=-3.04D-05 OVMax= 6.73D-04

 Cycle   8  Pass 1  IDiag  1:
 RMSU=  3.13D-06    CP:  9.36D-01  1.01D+00  9.41D-01  7.50D-01  9.21D-01
                    CP:  9.38D-01  1.05D+00
 E= -1308.65346987936     Delta-E=       -0.000004297165 Rises=F Damp=F
 DIIS: error= 1.98D-05 at cycle   8 NSaved=   8.
 NSaved= 8 IEnMin= 8 EnMin= -1308.65346987936     IErMin= 8 ErrMin= 1.98D-05
 ErrMax= 1.98D-05  0.00D+00 EMaxC= 1.00D-01 BMatC= 5.34D-07 BMatP= 3.79D-06
 IDIUse=1 WtCom= 1.00D+00 WtEn= 0.00D+00
 Coeff-Com:  0.689D-03-0.143D-02-0.603D-02-0.161D-01-0.183D-01 0.118D-01
 Coeff-Com:  0.286D+00 0.744D+00
 Coeff:      0.689D-03-0.143D-02-0.603D-02-0.161D-01-0.183D-01 0.118D-01
 Coeff:      0.286D+00 0.744D+00
 Gap=     0.193 Goal=   None    Shift=    0.000
 RMSDP=1.85D-06 MaxDP=2.50D-04 DE=-4.30D-06 OVMax= 2.68D-04

 Cycle   9  Pass 1  IDiag  1:
 RMSU=  1.15D-06    CP:  9.36D-01  1.01D+00  9.41D-01  7.50D-01  9.31D-01
                    CP:  9.57D-01  1.16D+00  1.03D+00
 E= -1308.65347058536     Delta-E=       -0.000000705993 Rises=F Damp=F
 DIIS: error= 6.26D-06 at cycle   9 NSaved=   9.
 NSaved= 9 IEnMin= 9 EnMin= -1308.65347058536     IErMin= 9 ErrMin= 6.26D-06
 ErrMax= 6.26D-06  0.00D+00 EMaxC= 1.00D-01 BMatC= 3.64D-08 BMatP= 5.34D-07
 IDIUse=1 WtCom= 1.00D+00 WtEn= 0.00D+00
 Coeff-Com:  0.105D-03-0.171D-03-0.105D-02-0.356D-02-0.685D-02-0.214D-01
 Coeff-Com:  0.242D-01 0.204D+00 0.805D+00
 Coeff:      0.105D-03-0.171D-03-0.105D-02-0.356D-02-0.685D-02-0.214D-01
 Coeff:      0.242D-01 0.204D+00 0.805D+00
 Gap=     0.193 Goal=   None    Shift=    0.000
 RMSDP=4.78D-07 MaxDP=1.09D-04 DE=-7.06D-07 OVMax= 1.20D-04

 Cycle  10  Pass 1  IDiag  1:
 RMSU=  3.74D-07    CP:  9.36D-01  1.01D+00  9.41D-01  7.50D-01  9.33D-01
                    CP:  9.57D-01  1.17D+00  1.10D+00  1.08D+00
 E= -1308.65347064968     Delta-E=       -0.000000064320 Rises=F Damp=F
 DIIS: error= 2.01D-06 at cycle  10 NSaved=  10.
 NSaved=10 IEnMin=10 EnMin= -1308.65347064968     IErMin=10 ErrMin= 2.01D-06
 ErrMax= 2.01D-06  0.00D+00 EMaxC= 1.00D-01 BMatC= 9.87D-09 BMatP= 3.64D-08
 IDIUse=1 WtCom= 1.00D+00 WtEn= 0.00D+00
 Coeff-Com: -0.828D-04 0.195D-03 0.681D-03 0.133D-02 0.769D-03-0.128D-01
 Coeff-Com: -0.441D-01-0.650D-01 0.339D+00 0.780D+00
 Coeff:     -0.828D-04 0.195D-03 0.681D-03 0.133D-02 0.769D-03-0.128D-01
 Coeff:     -0.441D-01-0.650D-01 0.339D+00 0.780D+00
 Gap=     0.193 Goal=   None    Shift=    0.000
 RMSDP=3.06D-07 MaxDP=1.05D-04 DE=-6.43D-08 OVMax= 5.62D-05

 Cycle  11  Pass 1  IDiag  1:
 RMSU=  1.58D-07    CP:  9.36D-01  1.01D+00  9.41D-01  7.50D-01  9.33D-01
                    CP:  9.57D-01  1.19D+00  1.12D+00  1.22D+00  1.15D+00
 E= -1308.65347066465     Delta-E=       -0.000000014971 Rises=F Damp=F
 DIIS: error= 9.62D-07 at cycle  11 NSaved=  11.
 NSaved=11 IEnMin=11 EnMin= -1308.65347066465     IErMin=11 ErrMin= 9.62D-07
 ErrMax= 9.62D-07  0.00D+00 EMaxC= 1.00D-01 BMatC= 7.35D-10 BMatP= 9.87D-09
 IDIUse=1 WtCom= 1.00D+00 WtEn= 0.00D+00
 Coeff-Com: -0.354D-04 0.783D-04 0.335D-03 0.747D-03 0.109D-02-0.262D-02
 Coeff-Com: -0.161D-01-0.435D-01 0.505D-01 0.248D+00 0.762D+00
 Coeff:     -0.354D-04 0.783D-04 0.335D-03 0.747D-03 0.109D-02-0.262D-02
 Coeff:     -0.161D-01-0.435D-01 0.505D-01 0.248D+00 0.762D+00
 Gap=     0.193 Goal=   None    Shift=    0.000
 RMSDP=7.69D-08 MaxDP=1.83D-05 DE=-1.50D-08 OVMax= 2.11D-05

 Cycle  12  Pass 1  IDiag  1:
 RMSU=  5.33D-08    CP:  9.36D-01  1.01D+00  9.41D-01  7.50D-01  9.33D-01
                    CP:  9.56D-01  1.19D+00  1.13D+00  1.24D+00  1.24D+00
                    CP:  1.13D+00
 E= -1308.65347066586     Delta-E=       -0.000000001213 Rises=F Damp=F
 DIIS: error= 4.48D-07 at cycle  12 NSaved=  12.
 NSaved=12 IEnMin=12 EnMin= -1308.65347066586     IErMin=12 ErrMin= 4.48D-07
 ErrMax= 4.48D-07  0.00D+00 EMaxC= 1.00D-01 BMatC= 1.61D-10 BMatP= 7.35D-10
 IDIUse=1 WtCom= 1.00D+00 WtEn= 0.00D+00
 Coeff-Com:  0.508D-06-0.270D-05 0.231D-04 0.568D-04 0.354D-03 0.898D-03
 Coeff-Com:  0.134D-02-0.740D-02-0.316D-01-0.415D-01 0.311D+00 0.767D+00
 Coeff:      0.508D-06-0.270D-05 0.231D-04 0.568D-04 0.354D-03 0.898D-03
 Coeff:      0.134D-02-0.740D-02-0.316D-01-0.415D-01 0.311D+00 0.767D+00
 Gap=     0.193 Goal=   None    Shift=    0.000
 RMSDP=3.61D-08 MaxDP=1.21D-05 DE=-1.21D-09 OVMax= 9.63D-06

 Cycle  13  Pass 1  IDiag  1:
 RMSU=  2.08D-08    CP:  9.36D-01  1.01D+00  9.41D-01  7.50D-01  9.34D-01
                    CP:  9.56D-01  1.19D+00  1.13D+00  1.24D+00  1.27D+00
                    CP:  1.23D+00  1.12D+00
 E= -1308.65347066612     Delta-E=       -0.000000000259 Rises=F Damp=F
 DIIS: error= 1.92D-07 at cycle  13 NSaved=  13.
 NSaved=13 IEnMin=13 EnMin= -1308.65347066612     IErMin=13 ErrMin= 1.92D-07
 ErrMax= 1.92D-07  0.00D+00 EMaxC= 1.00D-01 BMatC= 1.45D-11 BMatP= 1.61D-10
 IDIUse=1 WtCom= 1.00D+00 WtEn= 0.00D+00
 Coeff-Com:  0.427D-05-0.968D-05-0.281D-04-0.710D-04 0.690D-05 0.511D-03
 Coeff-Com:  0.228D-02 0.210D-02-0.130D-01-0.421D-01 0.175D-02 0.201D+00
 Coeff-Com:  0.848D+00
 Coeff:      0.427D-05-0.968D-05-0.281D-04-0.710D-04 0.690D-05 0.511D-03
 Coeff:      0.228D-02 0.210D-02-0.130D-01-0.421D-01 0.175D-02 0.201D+00
 Coeff:      0.848D+00
 Gap=     0.193 Goal=   None    Shift=    0.000
 RMSDP=1.47D-08 MaxDP=3.77D-06 DE=-2.59D-10 OVMax= 4.29D-06

 Cycle  14  Pass 1  IDiag  1:
 RMSU=  6.30D-09    CP:  9.36D-01  1.01D+00  9.41D-01  7.50D-01  9.34D-01
                    CP:  9.56D-01  1.19D+00  1.12D+00  1.24D+00  1.28D+00
                    CP:  1.25D+00  1.27D+00  1.24D+00
 E= -1308.65347066619     Delta-E=       -0.000000000073 Rises=F Damp=F
 DIIS: error= 8.36D-08 at cycle  14 NSaved=  14.
 NSaved=14 IEnMin=14 EnMin= -1308.65347066619     IErMin=14 ErrMin= 8.36D-08
 ErrMax= 8.36D-08  0.00D+00 EMaxC= 1.00D-01 BMatC= 2.78D-12 BMatP= 1.45D-11
 IDIUse=1 WtCom= 1.00D+00 WtEn= 0.00D+00
 Coeff-Com:  0.118D-05-0.248D-05-0.105D-04-0.311D-04-0.376D-04-0.588D-05
 Coeff-Com:  0.541D-03 0.149D-02 0.131D-02-0.820D-02-0.460D-01-0.475D-01
 Coeff-Com:  0.310D+00 0.789D+00
 Coeff:      0.118D-05-0.248D-05-0.105D-04-0.311D-04-0.376D-04-0.588D-05
 Coeff:      0.541D-03 0.149D-02 0.131D-02-0.820D-02-0.460D-01-0.475D-01
 Coeff:      0.310D+00 0.789D+00
 Gap=     0.193 Goal=   None    Shift=    0.000
 RMSDP=5.60D-09 MaxDP=1.50D-06 DE=-7.28D-11 OVMax= 1.86D-06

 Cycle  15  Pass 1  IDiag  1:
 RMSU=  2.97D-09    CP:  9.36D-01  1.01D+00  9.41D-01  7.50D-01  9.34D-01
                    CP:  9.56D-01  1.19D+00  1.12D+00  1.24D+00  1.28D+00
                    CP:  1.27D+00  1.30D+00  1.36D+00  1.20D+00
 E= -1308.65347066616     Delta-E=        0.000000000032 Rises=F Damp=F
 DIIS: error= 2.76D-08 at cycle  15 NSaved=  15.
 NSaved=15 IEnMin=14 EnMin= -1308.65347066619     IErMin=15 ErrMin= 2.76D-08
 ErrMax= 2.76D-08  0.00D+00 EMaxC= 1.00D-01 BMatC= 3.98D-13 BMatP= 2.78D-12
 IDIUse=1 WtCom= 1.00D+00 WtEn= 0.00D+00
 Coeff-Com: -0.367D-06 0.853D-06 0.177D-05 0.223D-05-0.633D-05-0.958D-04
 Coeff-Com: -0.196D-03 0.701D-05 0.269D-02 0.443D-02-0.124D-01-0.469D-01
 Coeff-Com: -0.727D-01 0.214D+00 0.911D+00
 Coeff:     -0.367D-06 0.853D-06 0.177D-05 0.223D-05-0.633D-05-0.958D-04
 Coeff:     -0.196D-03 0.701D-05 0.269D-02 0.443D-02-0.124D-01-0.469D-01
 Coeff:     -0.727D-01 0.214D+00 0.911D+00
 Gap=     0.193 Goal=   None    Shift=    0.000
 RMSDP=2.72D-09 MaxDP=6.22D-07 DE= 3.18D-11 OVMax= 8.73D-07

 Error on total polarization charges =  0.05467
 SCF Done:  E(RM062X) =  -1308.65347067     A.U. after   15 cycles
            NFock= 15  Conv=0.27D-08     -V/T= 2.0056
 KE= 1.301343697682D+03 PE=-8.768137919224D+03 EE= 3.283150394585D+03
 SMD-CDS (non-electrostatic) energy       (kcal/mol) =      -5.32
 (included in total energy above)
 Leave Link  502 at Mon Feb 22 10:46:46 2021, MaxMem=  5242880000 cpu:     27836.2
 (Enter /opt/nce/packages/global/g09/l601.exe)
 Copying SCF densities to generalized density rwf, IOpCl= 0 IROHF=0.

 **********************************************************************

            Population analysis using the SCF density.

 **********************************************************************

 Alpha  occ. eigenvalues --  -19.66546 -19.64184 -19.63879 -14.85904 -10.63766
 Alpha  occ. eigenvalues --  -10.63718 -10.62042 -10.61895 -10.59735 -10.59411
 Alpha  occ. eigenvalues --  -10.59349 -10.58509 -10.57570 -10.57422 -10.57387
 Alpha  occ. eigenvalues --  -10.57133 -10.57079 -10.56743 -10.56731 -10.56449
 Alpha  occ. eigenvalues --  -10.56377 -10.56270 -10.56252 -10.55838 -10.55450
 Alpha  occ. eigenvalues --  -10.55447 -10.55408 -10.55331 -10.55197 -10.54591
 Alpha  occ. eigenvalues --   -7.08979  -1.20568  -1.16959  -1.14456  -1.13425
 Alpha  occ. eigenvalues --   -1.00746  -0.99186  -0.97434  -0.96299  -0.93342
 Alpha  occ. eigenvalues --   -0.88978  -0.87783  -0.87100  -0.86239  -0.85527
 Alpha  occ. eigenvalues --   -0.85200  -0.84148  -0.79812  -0.77492  -0.75273
 Alpha  occ. eigenvalues --   -0.73991  -0.71403  -0.70396  -0.69967  -0.69482
 Alpha  occ. eigenvalues --   -0.67043  -0.65470  -0.65355  -0.64786  -0.63140
 Alpha  occ. eigenvalues --   -0.62692  -0.61054  -0.59661  -0.58669  -0.57560
 Alpha  occ. eigenvalues --   -0.56055  -0.55513  -0.55381  -0.55255  -0.54430
 Alpha  occ. eigenvalues --   -0.52996  -0.52817  -0.52503  -0.52078  -0.51902
 Alpha  occ. eigenvalues --   -0.51140  -0.50685  -0.50323  -0.49025  -0.48668
 Alpha  occ. eigenvalues --   -0.48326  -0.47289  -0.46450  -0.46106  -0.46030
 Alpha  occ. eigenvalues --   -0.45944  -0.45779  -0.44852  -0.44046  -0.43039
 Alpha  occ. eigenvalues --   -0.42905  -0.42781  -0.42173  -0.41315  -0.40351
 Alpha  occ. eigenvalues --   -0.40155  -0.39734  -0.39371  -0.37965  -0.34561
 Alpha  occ. eigenvalues --   -0.32692  -0.32490  -0.31952  -0.31844  -0.29115
 Alpha  occ. eigenvalues --   -0.29083
 Alpha virt. eigenvalues --   -0.09811  -0.02803  -0.01345  -0.00590   0.00687
 Alpha virt. eigenvalues --    0.01285   0.01804   0.02438   0.04783   0.06269
 Alpha virt. eigenvalues --    0.07226   0.07522   0.08326   0.08965   0.09232
 Alpha virt. eigenvalues --    0.09445   0.09761   0.10026   0.10811   0.11230
 Alpha virt. eigenvalues --    0.11399   0.11829   0.12312   0.12390   0.13171
 Alpha virt. eigenvalues --    0.13767   0.14071   0.14143   0.14590   0.14932
 Alpha virt. eigenvalues --    0.15450   0.15630   0.16035   0.16285   0.16512
 Alpha virt. eigenvalues --    0.16833   0.17117   0.17607   0.18059   0.18573
 Alpha virt. eigenvalues --    0.19368   0.19549   0.20269   0.20451   0.21046
 Alpha virt. eigenvalues --    0.21701   0.21906   0.21960   0.22452   0.23177
 Alpha virt. eigenvalues --    0.23497   0.23766   0.24008   0.24209   0.24719
 Alpha virt. eigenvalues --    0.24785   0.25182   0.25217   0.25627   0.25859
 Alpha virt. eigenvalues --    0.26391   0.26544   0.26853   0.27169   0.27332
 Alpha virt. eigenvalues --    0.28017   0.28193   0.28632   0.28821   0.29331
 Alpha virt. eigenvalues --    0.29711   0.29839   0.30384   0.30826   0.30998
 Alpha virt. eigenvalues --    0.31190   0.31481   0.31948   0.32272   0.32585
 Alpha virt. eigenvalues --    0.32717   0.33037   0.33906   0.34027   0.34323
 Alpha virt. eigenvalues --    0.34557   0.35050   0.35334   0.36030   0.36276
 Alpha virt. eigenvalues --    0.36405   0.36918   0.37324   0.37963   0.38250
 Alpha virt. eigenvalues --    0.38478   0.38639   0.38904   0.39143   0.39334
 Alpha virt. eigenvalues --    0.39733   0.39980   0.40667   0.40739   0.41095
 Alpha virt. eigenvalues --    0.41220   0.41650   0.41938   0.41967   0.42545
 Alpha virt. eigenvalues --    0.42860   0.42985   0.43332   0.43742   0.43925
 Alpha virt. eigenvalues --    0.44281   0.44421   0.44729   0.45001   0.45417
 Alpha virt. eigenvalues --    0.46007   0.46150   0.46365   0.46912   0.47384
 Alpha virt. eigenvalues --    0.47552   0.47924   0.48043   0.48255   0.48637
 Alpha virt. eigenvalues --    0.49000   0.49385   0.49566   0.49863   0.50396
 Alpha virt. eigenvalues --    0.50739   0.50889   0.51219   0.51469   0.51846
 Alpha virt. eigenvalues --    0.52097   0.52185   0.52794   0.52846   0.53142
 Alpha virt. eigenvalues --    0.53403   0.53740   0.53864   0.54941   0.55163
 Alpha virt. eigenvalues --    0.55610   0.55837   0.56214   0.56926   0.57235
 Alpha virt. eigenvalues --    0.57608   0.58172   0.58895   0.59471   0.60071
 Alpha virt. eigenvalues --    0.61019   0.61196   0.62037   0.62272   0.62523
 Alpha virt. eigenvalues --    0.62645   0.63239   0.63689   0.64022   0.64890
 Alpha virt. eigenvalues --    0.65804   0.65821   0.66176   0.66624   0.66914
 Alpha virt. eigenvalues --    0.67227   0.67676   0.67757   0.68071   0.68496
 Alpha virt. eigenvalues --    0.68921   0.68944   0.69445   0.69805   0.70247
 Alpha virt. eigenvalues --    0.70967   0.71351   0.71598   0.72412   0.72594
 Alpha virt. eigenvalues --    0.72849   0.73058   0.73471   0.73706   0.74644
 Alpha virt. eigenvalues --    0.74707   0.75154   0.75496   0.76109   0.76326
 Alpha virt. eigenvalues --    0.76471   0.76881   0.77248   0.77578   0.77978
 Alpha virt. eigenvalues --    0.78356   0.78750   0.79289   0.79530   0.79918
 Alpha virt. eigenvalues --    0.80747   0.80940   0.81903   0.82346   0.82550
 Alpha virt. eigenvalues --    0.83184   0.83573   0.83840   0.84346   0.84709
 Alpha virt. eigenvalues --    0.85138   0.85858   0.86541   0.87349   0.87541
 Alpha virt. eigenvalues --    0.87855   0.88551   0.88905   0.89321   0.89691
 Alpha virt. eigenvalues --    0.90149   0.90399   0.90834   0.91021   0.91654
 Alpha virt. eigenvalues --    0.91943   0.92806   0.92915   0.93785   0.94377
 Alpha virt. eigenvalues --    0.94506   0.95589   0.95819   0.96458   0.96856
 Alpha virt. eigenvalues --    0.97432   0.97853   0.98371   0.99468   0.99639
 Alpha virt. eigenvalues --    1.00286   1.00875   1.01292   1.02144   1.03114
 Alpha virt. eigenvalues --    1.03680   1.04177   1.04861   1.05761   1.06456
 Alpha virt. eigenvalues --    1.06587   1.07016   1.07860   1.08956   1.09073
 Alpha virt. eigenvalues --    1.10040   1.10263   1.10765   1.11599   1.11839
 Alpha virt. eigenvalues --    1.12555   1.12770   1.13492   1.13627   1.13915
 Alpha virt. eigenvalues --    1.14548   1.15407   1.15756   1.16519   1.17240
 Alpha virt. eigenvalues --    1.17661   1.18480   1.19431   1.19707   1.20123
 Alpha virt. eigenvalues --    1.20918   1.21284   1.22306   1.23285   1.23497
 Alpha virt. eigenvalues --    1.24323   1.24514   1.25181   1.25785   1.26181
 Alpha virt. eigenvalues --    1.26432   1.26737   1.27068   1.27752   1.28130
 Alpha virt. eigenvalues --    1.28320   1.28791   1.29618   1.29979   1.30297
 Alpha virt. eigenvalues --    1.31185   1.32038   1.32207   1.32891   1.33530
 Alpha virt. eigenvalues --    1.33924   1.34028   1.34403   1.35626   1.36065
 Alpha virt. eigenvalues --    1.36146   1.37023   1.37160   1.38505   1.39562
 Alpha virt. eigenvalues --    1.40104   1.42121   1.42502   1.43589   1.44140
 Alpha virt. eigenvalues --    1.44492   1.45233   1.45741   1.46832   1.47294
 Alpha virt. eigenvalues --    1.47956   1.48229   1.48969   1.49284   1.50022
 Alpha virt. eigenvalues --    1.50134   1.51330   1.51557   1.51623   1.52386
 Alpha virt. eigenvalues --    1.52946   1.53906   1.53962   1.54351   1.54969
 Alpha virt. eigenvalues --    1.55494   1.55718   1.56244   1.56595   1.57082
 Alpha virt. eigenvalues --    1.57544   1.57889   1.58131   1.58383   1.59267
 Alpha virt. eigenvalues --    1.59835   1.60406   1.60647   1.61095   1.61248
 Alpha virt. eigenvalues --    1.61830   1.62238   1.62681   1.63608   1.63982
 Alpha virt. eigenvalues --    1.64620   1.65038   1.65349   1.65469   1.66568
 Alpha virt. eigenvalues --    1.66720   1.67106   1.67981   1.68332   1.68751
 Alpha virt. eigenvalues --    1.69405   1.69948   1.70857   1.71096   1.71982
 Alpha virt. eigenvalues --    1.72244   1.72414   1.73122   1.73168   1.73649
 Alpha virt. eigenvalues --    1.74090   1.74378   1.74978   1.75597   1.76005
 Alpha virt. eigenvalues --    1.76673   1.77120   1.77584   1.78003   1.78606
 Alpha virt. eigenvalues --    1.79395   1.79918   1.80110   1.80221   1.80438
 Alpha virt. eigenvalues --    1.80967   1.81397   1.81505   1.82651   1.83829
 Alpha virt. eigenvalues --    1.84598   1.86032   1.86575   1.86977   1.87286
 Alpha virt. eigenvalues --    1.88568   1.89670   1.89746   1.90333   1.90590
 Alpha virt. eigenvalues --    1.91208   1.91546   1.92071   1.92617   1.92832
 Alpha virt. eigenvalues --    1.93881   1.94539   1.95329   1.96259   1.97228
 Alpha virt. eigenvalues --    1.97619   1.97881   1.98913   1.99862   2.00286
 Alpha virt. eigenvalues --    2.01157   2.01487   2.01994   2.02666   2.03405
 Alpha virt. eigenvalues --    2.03717   2.04369   2.05212   2.05835   2.06657
 Alpha virt. eigenvalues --    2.07770   2.07994   2.08532   2.09137   2.09488
 Alpha virt. eigenvalues --    2.10424   2.10901   2.11239   2.12493   2.12987
 Alpha virt. eigenvalues --    2.13833   2.14277   2.15360   2.15781   2.16733
 Alpha virt. eigenvalues --    2.17669   2.17898   2.18392   2.18776   2.19659
 Alpha virt. eigenvalues --    2.19780   2.20190   2.20629   2.21490   2.22276
 Alpha virt. eigenvalues --    2.23259   2.23521   2.24303   2.24795   2.25290
 Alpha virt. eigenvalues --    2.25995   2.27335   2.28165   2.28210   2.28564
 Alpha virt. eigenvalues --    2.28930   2.29605   2.30182   2.30551   2.32080
 Alpha virt. eigenvalues --    2.32282   2.33356   2.34211   2.35097   2.35147
 Alpha virt. eigenvalues --    2.35807   2.36211   2.36800   2.37398   2.37829
 Alpha virt. eigenvalues --    2.38995   2.40768   2.41078   2.41558   2.42373
 Alpha virt. eigenvalues --    2.42778   2.43535   2.44106   2.45457   2.46345
 Alpha virt. eigenvalues --    2.46865   2.47446   2.48616   2.49240   2.49638
 Alpha virt. eigenvalues --    2.50105   2.50467   2.51098   2.52067   2.52361
 Alpha virt. eigenvalues --    2.53486   2.54506   2.54713   2.54873   2.55247
 Alpha virt. eigenvalues --    2.55904   2.56282   2.57361   2.58402   2.59219
 Alpha virt. eigenvalues --    2.59320   2.59690   2.60462   2.60923   2.61220
 Alpha virt. eigenvalues --    2.61897   2.62226   2.62393   2.62911   2.63598
 Alpha virt. eigenvalues --    2.64627   2.65174   2.65487   2.65806   2.66506
 Alpha virt. eigenvalues --    2.66812   2.67123   2.68234   2.68258   2.68748
 Alpha virt. eigenvalues --    2.69060   2.69661   2.70271   2.70448   2.70519
 Alpha virt. eigenvalues --    2.70813   2.71100   2.71450   2.71817   2.72104
 Alpha virt. eigenvalues --    2.72381   2.73065   2.73347   2.73508   2.73831
 Alpha virt. eigenvalues --    2.74305   2.74762   2.74882   2.76020   2.76166
 Alpha virt. eigenvalues --    2.76770   2.77008   2.77342   2.77984   2.78102
 Alpha virt. eigenvalues --    2.78660   2.79279   2.79383   2.79949   2.80719
 Alpha virt. eigenvalues --    2.81124   2.81623   2.82745   2.83091   2.83517
 Alpha virt. eigenvalues --    2.84062   2.84305   2.84500   2.84815   2.85210
 Alpha virt. eigenvalues --    2.85373   2.85859   2.86719   2.87586   2.88127
 Alpha virt. eigenvalues --    2.88204   2.88567   2.88950   2.89339   2.90713
 Alpha virt. eigenvalues --    2.91124   2.91653   2.92180   2.92389   2.93308
 Alpha virt. eigenvalues --    2.94149   2.94317   2.94523   2.95349   2.96417
 Alpha virt. eigenvalues --    2.96564   2.97035   2.97267   2.97806   2.98647
 Alpha virt. eigenvalues --    2.99368   2.99870   3.00806   3.01019   3.01527
 Alpha virt. eigenvalues --    3.02472   3.02688   3.03596   3.04536   3.04876
 Alpha virt. eigenvalues --    3.05461   3.05996   3.06314   3.06729   3.07195
 Alpha virt. eigenvalues --    3.07868   3.08117   3.08455   3.08607   3.10019
 Alpha virt. eigenvalues --    3.10578   3.10878   3.11170   3.12061   3.12295
 Alpha virt. eigenvalues --    3.12531   3.12751   3.13909   3.14007   3.15012
 Alpha virt. eigenvalues --    3.15079   3.15468   3.15801   3.16042   3.16369
 Alpha virt. eigenvalues --    3.16819   3.17011   3.17330   3.18373   3.18643
 Alpha virt. eigenvalues --    3.19149   3.19496   3.19920   3.20499   3.21146
 Alpha virt. eigenvalues --    3.21381   3.21780   3.22773   3.23302   3.23423
 Alpha virt. eigenvalues --    3.24191   3.24589   3.24732   3.25783   3.26194
 Alpha virt. eigenvalues --    3.26414   3.27574   3.27933   3.28616   3.28749
 Alpha virt. eigenvalues --    3.29206   3.29244   3.30373   3.30651   3.30980
 Alpha virt. eigenvalues --    3.31589   3.31616   3.31900   3.32032   3.32587
 Alpha virt. eigenvalues --    3.33314   3.33389   3.34160   3.34639   3.34835
 Alpha virt. eigenvalues --    3.35524   3.36057   3.36278   3.36819   3.36997
 Alpha virt. eigenvalues --    3.37223   3.37920   3.38121   3.38491   3.39049
 Alpha virt. eigenvalues --    3.39417   3.39692   3.40249   3.40833   3.41825
 Alpha virt. eigenvalues --    3.42121   3.42568   3.42986   3.43051   3.44126
 Alpha virt. eigenvalues --    3.44387   3.44949   3.45236   3.45811   3.46272
 Alpha virt. eigenvalues --    3.46549   3.46797   3.47622   3.47896   3.48207
 Alpha virt. eigenvalues --    3.48324   3.49003   3.49650   3.50110   3.50569
 Alpha virt. eigenvalues --    3.50790   3.51487   3.51520   3.52279   3.52370
 Alpha virt. eigenvalues --    3.52694   3.52991   3.53040   3.54020   3.54272
 Alpha virt. eigenvalues --    3.55746   3.56075   3.56438   3.56728   3.57686
 Alpha virt. eigenvalues --    3.58439   3.58677   3.59188   3.59875   3.61464
 Alpha virt. eigenvalues --    3.62100   3.62259   3.62661   3.63575   3.64966
 Alpha virt. eigenvalues --    3.65224   3.65622   3.67113   3.67763   3.68064
 Alpha virt. eigenvalues --    3.68368   3.70221   3.71222   3.72427   3.72627
 Alpha virt. eigenvalues --    3.74282   3.75426   3.76216   3.76485   3.76897
 Alpha virt. eigenvalues --    3.78474   3.78670   3.81916   3.82231   3.82720
 Alpha virt. eigenvalues --    3.84480   3.84898   3.85644   3.86344   3.87246
 Alpha virt. eigenvalues --    3.87589   3.88760   3.89302   3.91613   3.92555
 Alpha virt. eigenvalues --    3.93537   3.93553   3.94539   3.95471   3.96467
 Alpha virt. eigenvalues --    3.97905   3.98942   3.99072   3.99998   4.00376
 Alpha virt. eigenvalues --    4.02706   4.03360   4.03807   4.04163   4.04865
 Alpha virt. eigenvalues --    4.05487   4.05717   4.06050   4.06898   4.07717
 Alpha virt. eigenvalues --    4.08978   4.09464   4.10383   4.11092   4.11723
 Alpha virt. eigenvalues --    4.11832   4.12460   4.12744   4.14024   4.14308
 Alpha virt. eigenvalues --    4.15825   4.16074   4.16420   4.16695   4.17502
 Alpha virt. eigenvalues --    4.17545   4.17768   4.18035   4.18715   4.19123
 Alpha virt. eigenvalues --    4.19751   4.20730   4.20861   4.21365   4.21849
 Alpha virt. eigenvalues --    4.22824   4.23455   4.23679   4.24777   4.25436
 Alpha virt. eigenvalues --    4.27018   4.27939   4.29168   4.30340   4.30778
 Alpha virt. eigenvalues --    4.31677   4.32232   4.33850   4.34620   4.36495
 Alpha virt. eigenvalues --    4.37284   4.39274   4.39847   4.40422   4.43242
 Alpha virt. eigenvalues --    4.43737   4.44979   4.45500   4.47360   4.49031
 Alpha virt. eigenvalues --    4.49440   4.50836   4.51774   4.53382   4.55094
 Alpha virt. eigenvalues --    4.56195   4.56432   4.57317   4.58912   4.59661
 Alpha virt. eigenvalues --    4.61364   4.62202   4.63124   4.64842   4.66083
 Alpha virt. eigenvalues --    4.66334   4.68257   4.72390   4.73439   4.73913
 Alpha virt. eigenvalues --    4.75416   4.76304   4.78461   4.78833   4.79988
 Alpha virt. eigenvalues --    4.81697   4.82032   4.85735   4.86731   4.88615
 Alpha virt. eigenvalues --    4.88829   4.90453   4.91829   4.93785   4.95846
 Alpha virt. eigenvalues --    4.96894   4.99043   4.99315   5.04581   5.06082
 Alpha virt. eigenvalues --    5.06557   5.09674   5.10461   5.12190   5.12812
 Alpha virt. eigenvalues --    5.14335   5.15262   5.19231   5.20011   5.20585
 Alpha virt. eigenvalues --    5.21951   5.22838   5.26462   5.27791   5.28903
 Alpha virt. eigenvalues --    5.29466   5.29575   5.32956   5.33998   5.35370
 Alpha virt. eigenvalues --    5.36676   5.37420   5.40708   5.44389   5.44884
 Alpha virt. eigenvalues --    5.45786   5.46621   5.47417   5.49031   5.51677
 Alpha virt. eigenvalues --    5.52007   5.53504   5.60380   5.61224   5.63539
 Alpha virt. eigenvalues --    5.64803   5.67641   5.68872   5.69697   5.71934
 Alpha virt. eigenvalues --    5.74900   5.75789   5.78905   5.82682   5.92608
 Alpha virt. eigenvalues --    5.93326   5.96013   6.01255   6.13849   6.27705
 Alpha virt. eigenvalues --    6.28582   6.30429   6.31143   6.34639   6.43282
 Alpha virt. eigenvalues --    6.51792   6.51937   6.62513   6.69675   6.72037
 Alpha virt. eigenvalues --    6.75580   6.76471   6.77173   6.84987   6.86164
 Alpha virt. eigenvalues --    6.94830   7.15026   7.21908   7.29190   7.37809
 Alpha virt. eigenvalues --   16.17863  22.32795  22.40526  22.45292  22.52818
 Alpha virt. eigenvalues --   22.57498  22.68796  22.71461  22.71931  22.73324
 Alpha virt. eigenvalues --   22.75404  22.77079  22.79015  22.81700  22.85992
 Alpha virt. eigenvalues --   22.87321  22.94220  22.98181  23.00440  23.02382
 Alpha virt. eigenvalues --   23.07530  23.17709  23.24498  23.39102  23.44217
 Alpha virt. eigenvalues --   23.46039  23.79649  33.41640  43.74354  43.90504
 Alpha virt. eigenvalues --   44.37653
          Condensed to atoms (all electrons):
 Mulliken charges:
               1
     1  C   -0.129756
     2  C   -0.183271
     3  C    0.142928
     4  C    0.152714
     5  C   -0.242321
     6  C   -0.170370
     7  C   -0.110161
     8  C    0.239213
     9  C    0.102216
    10  C   -0.179153
    11  H    0.220406
    12  C   -0.135753
    13  C   -0.160176
    14  C   -0.272541
    15  H    0.201154
    16  H    0.220534
    17  H    0.225284
    18  H    0.197685
    19  H    0.200822
    20  H    0.198007
    21  H    0.229027
    22  N    0.084539
    23  C   -0.069247
    24  C   -0.111004
    25  C   -0.222784
    26  C   -0.208097
    27  C   -0.145397
    28  C   -0.179263
    29  H    0.191478
    30  H    0.205045
    31  C   -0.168376
    32  C   -0.165481
    33  C   -0.149940
    34  C   -0.230513
    35  H    0.200673
    36  C   -0.201256
    37  H    0.199368
    38  C    0.307770
    39  H    0.210891
    40  H    0.191488
    41  O   -0.282881
    42  C   -0.319331
    43  H    0.176837
    44  H    0.173196
    45  H    0.173015
    46  H    0.188491
    47  B    0.389685
    48  O   -0.452073
    49  O   -0.459628
    50  H    0.369804
    51  H    0.371437
    52  H    0.185067
 Sum of Mulliken charges =   1.00000
 Mulliken charges with hydrogens summed into heavy atoms:
               1
     1  C    0.071398
     2  C    0.037263
     3  C    0.142928
     4  C    0.152714
     5  C   -0.017037
     6  C    0.027315
     7  C   -0.110161
     8  C    0.239213
     9  C    0.102216
    10  C    0.041253
    12  C    0.065069
    13  C    0.037831
    14  C   -0.043514
    22  N    0.084539
    23  C   -0.069247
    24  C   -0.111004
    25  C   -0.017739
[...]
 Alpha virt. eigenvalues --    0.52522   0.52679   0.53232   0.53457   0.53584
 Alpha virt. eigenvalues --    0.53836   0.54221   0.54433   0.54762   0.55427
 Alpha virt. eigenvalues --    0.56037   0.56173   0.56464   0.57584   0.57669
 Alpha virt. eigenvalues --    0.58199   0.58773   0.59123   0.59662   0.60633
 Alpha virt. eigenvalues --    0.61560   0.61668   0.62333   0.62479   0.63027
 Alpha virt. eigenvalues --    0.63064   0.63379   0.63842   0.64667   0.65374
 Alpha virt. eigenvalues --    0.66103   0.66270   0.66674   0.67081   0.67179
 Alpha virt. eigenvalues --    0.67563   0.67918   0.68178   0.68709   0.69094
 Alpha virt. eigenvalues --    0.69456   0.69508   0.69798   0.70384   0.70682
 Alpha virt. eigenvalues --    0.71353   0.71935   0.72304   0.72795   0.73287
 Alpha virt. eigenvalues --    0.73690   0.73865   0.74035   0.74389   0.75147
 Alpha virt. eigenvalues --    0.75373   0.75686   0.76010   0.76655   0.76758
 Alpha virt. eigenvalues --    0.77152   0.77300   0.77565   0.78289   0.78439
 Alpha virt. eigenvalues --    0.78724   0.79262   0.79947   0.80124   0.80343
 Alpha virt. eigenvalues --    0.81258   0.81403   0.82283   0.82624   0.82837
 Alpha virt. eigenvalues --    0.83561   0.84123   0.84295   0.84757   0.85119
 Alpha virt. eigenvalues --    0.85561   0.86321   0.87071   0.87706   0.87780
 Alpha virt. eigenvalues --    0.88410   0.89041   0.89092   0.89544   0.90067
 Alpha virt. eigenvalues --    0.90416   0.90664   0.91197   0.91390   0.91942
 Alpha virt. eigenvalues --    0.92044   0.93111   0.93322   0.94172   0.94639
 Alpha virt. eigenvalues --    0.94814   0.95892   0.96340   0.96674   0.97033
 Alpha virt. eigenvalues --    0.97827   0.98220   0.98607   0.99697   0.99862
 Alpha virt. eigenvalues --    1.00614   1.01229   1.01398   1.02650   1.03126
 Alpha virt. eigenvalues --    1.03933   1.04502   1.05048   1.06014   1.06296
 Alpha virt. eigenvalues --    1.06889   1.07154   1.08248   1.09049   1.09262
 Alpha virt. eigenvalues --    1.10321   1.10622   1.11355   1.11944   1.12154
 Alpha virt. eigenvalues --    1.12636   1.13203   1.13618   1.13796   1.14249
 Alpha virt. eigenvalues --    1.14793   1.15791   1.16274   1.17258   1.17520
 Alpha virt. eigenvalues --    1.17897   1.18882   1.19612   1.20077   1.20422
 Alpha virt. eigenvalues --    1.21222   1.21677   1.22365   1.23657   1.24182
 Alpha virt. eigenvalues --    1.24686   1.25254   1.26049   1.26450   1.26480
 Alpha virt. eigenvalues --    1.26866   1.27304   1.27704   1.28203   1.28610
 Alpha virt. eigenvalues --    1.29170   1.29304   1.30153   1.30388   1.30915
 Alpha virt. eigenvalues --    1.31764   1.32302   1.32463   1.33600   1.34113
 Alpha virt. eigenvalues --    1.34543   1.34572   1.35038   1.36126   1.36333
 Alpha virt. eigenvalues --    1.36996   1.37779   1.37893   1.39189   1.40361
 Alpha virt. eigenvalues --    1.40965   1.42785   1.43048   1.44077   1.44603
 Alpha virt. eigenvalues --    1.45339   1.45654   1.46245   1.47472   1.47824
 Alpha virt. eigenvalues --    1.48313   1.48578   1.49500   1.49863   1.50196
 Alpha virt. eigenvalues --    1.50484   1.51677   1.52099   1.52418   1.52535
 Alpha virt. eigenvalues --    1.53326   1.54515   1.54649   1.55086   1.55417
 Alpha virt. eigenvalues --    1.55994   1.56530   1.56831   1.57088   1.57861
 Alpha virt. eigenvalues --    1.58240   1.58440   1.58940   1.59060   1.59600
 Alpha virt. eigenvalues --    1.60192   1.60942   1.61265   1.61683   1.61718
 Alpha virt. eigenvalues --    1.62309   1.62654   1.63025   1.64222   1.64386
 Alpha virt. eigenvalues --    1.64885   1.65403   1.65737   1.66012   1.66751
 Alpha virt. eigenvalues --    1.67266   1.67732   1.68469   1.68878   1.69252
 Alpha virt. eigenvalues --    1.70001   1.70494   1.71534   1.71749   1.72294
 Alpha virt. eigenvalues --    1.72830   1.73033   1.73657   1.73727   1.74385
 Alpha virt. eigenvalues --    1.74665   1.75034   1.75805   1.76312   1.76731
 Alpha virt. eigenvalues --    1.77532   1.77757   1.78121   1.78719   1.79358
 Alpha virt. eigenvalues --    1.79863   1.80585   1.80721   1.81012   1.81377
 Alpha virt. eigenvalues --    1.81553   1.81571   1.82301   1.82712   1.84222
 Alpha virt. eigenvalues --    1.85296   1.86093   1.87061   1.87660   1.88489
 Alpha virt. eigenvalues --    1.89220   1.90217   1.90506   1.91198   1.91389
 Alpha virt. eigenvalues --    1.92030   1.92096   1.92786   1.93344   1.93579
 Alpha virt. eigenvalues --    1.94518   1.95423   1.95906   1.96817   1.97728
 Alpha virt. eigenvalues --    1.98180   1.98711   1.99810   2.00609   2.00885
 Alpha virt. eigenvalues --    2.01969   2.02272   2.02952   2.03800   2.04260
 Alpha virt. eigenvalues --    2.04852   2.05213   2.06191   2.07029   2.07791
 Alpha virt. eigenvalues --    2.08510   2.08763   2.08873   2.09890   2.10449
 Alpha virt. eigenvalues --    2.10875   2.11663   2.11953   2.13122   2.13710
 Alpha virt. eigenvalues --    2.14597   2.14953   2.16009   2.16154   2.17370
 Alpha virt. eigenvalues --    2.17949   2.18439   2.19237   2.19867   2.20519
 Alpha virt. eigenvalues --    2.20539   2.21309   2.21488   2.22405   2.23212
 Alpha virt. eigenvalues --    2.24019   2.24615   2.25364   2.25742   2.26260
 Alpha virt. eigenvalues --    2.27112   2.28110   2.28670   2.28894   2.29589
 Alpha virt. eigenvalues --    2.29745   2.30834   2.31786   2.31853   2.32650
 Alpha virt. eigenvalues --    2.33222   2.33961   2.35040   2.35626   2.35705
 Alpha virt. eigenvalues --    2.36832   2.37273   2.37532   2.38555   2.38596
 Alpha virt. eigenvalues --    2.39822   2.41018   2.41600   2.42483   2.43115
 Alpha virt. eigenvalues --    2.43734   2.44144   2.45153   2.46409   2.47071
 Alpha virt. eigenvalues --    2.47753   2.48289   2.49267   2.49529   2.50038
 Alpha virt. eigenvalues --    2.50687   2.50885   2.51953   2.52525   2.52992
 Alpha virt. eigenvalues --    2.53833   2.55126   2.55376   2.55549   2.56199
 Alpha virt. eigenvalues --    2.56921   2.57523   2.58418   2.59391   2.59682
 Alpha virt. eigenvalues --    2.60326   2.60516   2.61562   2.62353   2.62662
 Alpha virt. eigenvalues --    2.62946   2.63443   2.63671   2.64125   2.64963
 Alpha virt. eigenvalues --    2.66005   2.66353   2.66722   2.66953   2.67397
 Alpha virt. eigenvalues --    2.67809   2.68396   2.68871   2.69331   2.69391
 Alpha virt. eigenvalues --    2.70482   2.71054   2.71403   2.71583   2.71781
 Alpha virt. eigenvalues --    2.72012   2.72098   2.72549   2.72852   2.73136
 Alpha virt. eigenvalues --    2.73469   2.73973   2.74206   2.74593   2.74747
 Alpha virt. eigenvalues --    2.75137   2.75423   2.76106   2.76812   2.77307
 Alpha virt. eigenvalues --    2.77753   2.77881   2.78239   2.78660   2.79040
 Alpha virt. eigenvalues --    2.79651   2.80227   2.80504   2.80896   2.81492
 Alpha virt. eigenvalues --    2.82223   2.82705   2.84011   2.84281   2.84481
 Alpha virt. eigenvalues --    2.84803   2.85148   2.85559   2.85801   2.86445
 Alpha virt. eigenvalues --    2.86782   2.87258   2.87949   2.88438   2.88847
 Alpha virt. eigenvalues --    2.89666   2.89698   2.90050   2.90540   2.91895
 Alpha virt. eigenvalues --    2.92309   2.92910   2.93184   2.93363   2.94294
 Alpha virt. eigenvalues --    2.94682   2.95029   2.95603   2.96719   2.97012
 Alpha virt. eigenvalues --    2.97465   2.97732   2.97918   2.98506   2.99146
 Alpha virt. eigenvalues --    2.99810   3.00907   3.01235   3.02055   3.02093
 Alpha virt. eigenvalues --    3.03144   3.03427   3.04685   3.05246   3.05531
 Alpha virt. eigenvalues --    3.06226   3.06376   3.07290   3.07529   3.07824
 Alpha virt. eigenvalues --    3.08321   3.08649   3.09225   3.09656   3.10331
 Alpha virt. eigenvalues --    3.11290   3.11503   3.11811   3.12545   3.12734
 Alpha virt. eigenvalues --    3.12866   3.13386   3.14276   3.14550   3.15369
 Alpha virt. eigenvalues --    3.15476   3.15995   3.16468   3.16675   3.16883
 Alpha virt. eigenvalues --    3.17459   3.17688   3.18028   3.19038   3.19316
 Alpha virt. eigenvalues --    3.19716   3.20339   3.20594   3.21750   3.22006
 Alpha virt. eigenvalues --    3.22624   3.22802   3.23483   3.24205   3.24470
 Alpha virt. eigenvalues --    3.25032   3.25353   3.25508   3.26607   3.26910
 Alpha virt. eigenvalues --    3.27069   3.28320   3.28584   3.29085   3.29435
 Alpha virt. eigenvalues --    3.30003   3.30282   3.31052   3.31648   3.31906
 Alpha virt. eigenvalues --    3.32341   3.32682   3.32909   3.33070   3.34064
 Alpha virt. eigenvalues --    3.34469   3.34732   3.35134   3.35522   3.35990
 Alpha virt. eigenvalues --    3.36670   3.37329   3.37423   3.37956   3.38366
 Alpha virt. eigenvalues --    3.38515   3.38891   3.39159   3.39321   3.39898
 Alpha virt. eigenvalues --    3.40595   3.41005   3.41309   3.41856   3.42764
 Alpha virt. eigenvalues --    3.43029   3.43580   3.43768   3.44482   3.45248
 Alpha virt. eigenvalues --    3.45444   3.46000   3.46383   3.46834   3.47276
 Alpha virt. eigenvalues --    3.47431   3.47948   3.48764   3.49072   3.49569
 Alpha virt. eigenvalues --    3.49690   3.50353   3.50789   3.51476   3.51654
 Alpha virt. eigenvalues --    3.51881   3.52163   3.52685   3.53103   3.53496
 Alpha virt. eigenvalues --    3.53575   3.54203   3.54496   3.55189   3.55386
 Alpha virt. eigenvalues --    3.56752   3.57154   3.57615   3.57959   3.58827
 Alpha virt. eigenvalues --    3.59547   3.59668   3.60176   3.61087   3.63085
 Alpha virt. eigenvalues --    3.63263   3.63672   3.63840   3.64990   3.65686
 Alpha virt. eigenvalues --    3.66401   3.67324   3.68283   3.68709   3.69346
 Alpha virt. eigenvalues --    3.69940   3.71340   3.71675   3.73586   3.74157
 Alpha virt. eigenvalues --    3.75373   3.77337   3.77505   3.78018   3.78581
 Alpha virt. eigenvalues --    3.80280   3.80488   3.83307   3.83610   3.84508
 Alpha virt. eigenvalues --    3.86048   3.86392   3.87820   3.88162   3.88846
 Alpha virt. eigenvalues --    3.89725   3.90429   3.90961   3.93673   3.94283
 Alpha virt. eigenvalues --    3.95288   3.95540   3.96201   3.97760   3.98894
 Alpha virt. eigenvalues --    4.00325   4.00939   4.01191   4.01799   4.02246
 Alpha virt. eigenvalues --    4.04510   4.05255   4.05570   4.06366   4.06728
 Alpha virt. eigenvalues --    4.06879   4.07609   4.08153   4.09037   4.09476
 Alpha virt. eigenvalues --    4.10563   4.11410   4.12196   4.12866   4.13912
 Alpha virt. eigenvalues --    4.14264   4.14812   4.15378   4.16233   4.16501
 Alpha virt. eigenvalues --    4.17950   4.18200   4.18871   4.19229   4.19389
 Alpha virt. eigenvalues --    4.19694   4.19866   4.20407   4.20687   4.21874
 Alpha virt. eigenvalues --    4.22027   4.22678   4.23252   4.23776   4.23973
 Alpha virt. eigenvalues --    4.25267   4.25526   4.26315   4.27405   4.28209
 Alpha virt. eigenvalues --    4.29565   4.30602   4.31760   4.32777   4.32916
 Alpha virt. eigenvalues --    4.33423   4.34985   4.36770   4.36944   4.39339
 Alpha virt. eigenvalues --    4.40090   4.41781   4.42301   4.43502   4.45318
 Alpha virt. eigenvalues --    4.46133   4.47024   4.48025   4.49659   4.51456
 Alpha virt. eigenvalues --    4.52148   4.53691   4.54427   4.55864   4.57515
 Alpha virt. eigenvalues --    4.58690   4.59221   4.59821   4.61146   4.62171
 Alpha virt. eigenvalues --    4.62835   4.63936   4.65121   4.67177   4.67875
 Alpha virt. eigenvalues --    4.68761   4.69634   4.74756   4.75202   4.76391
 Alpha virt. eigenvalues --    4.77566   4.78595   4.80079   4.81140   4.82321
 Alpha virt. eigenvalues --    4.83774   4.85447   4.87745   4.88174   4.90335
 Alpha virt. eigenvalues --    4.90426   4.92650   4.94109   4.96230   4.97971
 Alpha virt. eigenvalues --    4.99148   5.00652   5.01420   5.08694   5.09026
 Alpha virt. eigenvalues --    5.10378   5.12991   5.13907   5.14214   5.16092
 Alpha virt. eigenvalues --    5.17344   5.17812   5.21737   5.22429   5.22916
 Alpha virt. eigenvalues --    5.24127   5.25158   5.27374   5.27917   5.29589
 Alpha virt. eigenvalues --    5.30529   5.32580   5.34753   5.35617   5.36542
 Alpha virt. eigenvalues --    5.37519   5.38318   5.41397   5.45542   5.46626
 Alpha virt. eigenvalues --    5.47364   5.48214   5.50124   5.51382   5.52271
 Alpha virt. eigenvalues --    5.53182   5.54664   5.62048   5.62272   5.64249
 Alpha virt. eigenvalues --    5.66089   5.69831   5.71254   5.72752   5.73732
 Alpha virt. eigenvalues --    5.75195   5.78334   5.79454   5.82372   5.90497
 Alpha virt. eigenvalues --    5.96633   5.96954   6.02261   6.16738   6.28425
 Alpha virt. eigenvalues --    6.29043   6.31416   6.35301   6.35459   6.42378
 Alpha virt. eigenvalues --    6.50984   6.51215   6.63471   6.69970   6.72349
 Alpha virt. eigenvalues --    6.75468   6.76355   6.77269   6.84402   6.85947
 Alpha virt. eigenvalues --    6.94904   7.15399   7.21978   7.29086   7.38102
 Alpha virt. eigenvalues --   16.18971  22.34794  22.42986  22.49229  22.55514
 Alpha virt. eigenvalues --   22.61504  22.73479  22.75433  22.76045  22.78918
 Alpha virt. eigenvalues --   22.80677  22.84075  22.85328  22.87784  22.90135
 Alpha virt. eigenvalues --   22.91771  23.00338  23.03083  23.05968  23.07688
 Alpha virt. eigenvalues --   23.13545  23.23211  23.31363  23.44963  23.50520
 Alpha virt. eigenvalues --   23.52719  23.86719  33.44050  43.73234  43.89339
 Alpha virt. eigenvalues --   44.37062
          Condensed to atoms (all electrons):
 Mulliken charges:
               1
     1  C   -0.127351
     2  C   -0.186941
     3  C    0.148507
     4  C    0.167388
     5  C   -0.249718
     6  C   -0.168050
     7  C   -0.129301
     8  C    0.252835
     9  C    0.109843
    10  C   -0.181429
    11  H    0.217579
    12  C   -0.134399
    13  C   -0.157728
    14  C   -0.285089
    15  H    0.198251
    16  H    0.217933
    17  H    0.221517
    18  H    0.195036
    19  H    0.197898
    20  H    0.195413
    21  H    0.225638
    22  N    0.091322
    23  C   -0.071494
    24  C   -0.099103
    25  C   -0.218321
    26  C   -0.204710
    27  C   -0.145089
    28  C   -0.177099
    29  H    0.188515
    30  H    0.201251
    31  C   -0.157351
    32  C   -0.170458
    33  C   -0.147983
    34  C   -0.228743
    35  H    0.198943
    36  C   -0.200958
    37  H    0.197267
    38  C    0.318394
    39  H    0.208511
    40  H    0.189846
    41  O   -0.289407
    42  C   -0.314722
    43  H    0.174732
    44  H    0.171832
    45  H    0.171778
    46  H    0.185865
    47  B    0.400086
    48  O   -0.451402
    49  O   -0.470546
    50  H    0.369871
    51  H    0.369897
    52  H    0.181446
 Sum of Mulliken charges =   1.00000
 Mulliken charges with hydrogens summed into heavy atoms:
               1
     1  C    0.070900
     2  C    0.030991
     3  C    0.148507
     4  C    0.167388
     5  C   -0.028202
     6  C    0.026986
     7  C   -0.129301
     8  C    0.252835
     9  C    0.109843
    10  C    0.036150
    12  C    0.063500
    13  C    0.037685
    14  C   -0.059451
    22  N    0.091322
    23  C   -0.071494
    24  C   -0.099103
    25  C   -0.017070
    26  C   -0.023264
    27  C    0.043426
    28  C    0.008766
    31  C   -0.157351
    32  C    0.028486
    33  C    0.049284
    34  C   -0.020232
    36  C   -0.011112
    38  C    0.318394
    41  O   -0.289407
    42  C    0.203619
    47  B    0.400086
    48  O   -0.081531
    49  O   -0.100649
 Electronic spatial extent (au):  <R**2>=          13544.1413
 Charge=              1.0000 electrons
 Dipole moment (field-independent basis, Debye):
    X=             -3.0496    Y=              1.9793    Z=              0.1437  Tot=              3.6385
 Quadrupole moment (field-independent basis, Debye-Ang):
   XX=           -116.1057   YY=           -139.8490   ZZ=           -162.8506
   XY=              8.8280   XZ=            -15.9031   YZ=              1.5770
 Traceless Quadrupole moment (field-independent basis, Debye-Ang):
   XX=             23.4961   YY=             -0.2472   ZZ=            -23.2488
   XY=              8.8280   XZ=            -15.9031   YZ=              1.5770
 Octapole moment (field-independent basis, Debye-Ang**2):
  XXX=           -142.6218  YYY=              5.6560  ZZZ=             24.8464  XYY=             -2.7340
  XXY=             11.1745  XXZ=             68.9869  XZZ=            -18.3091  YZZ=            -13.4383
  YYZ=              6.3262  XYZ=             -8.7536
 Hexadecapole moment (field-independent basis, Debye-Ang**3):
 XXXX=         -10735.9152 YYYY=          -2603.0833 ZZZZ=          -1328.5268 XXXY=            336.7147
 XXXZ=           -793.2358 YYYX=            -41.4595 YYYZ=            119.3030 ZZZX=             71.7833
 ZZZY=           -134.4255 XXYY=          -2790.6605 XXZZ=          -2181.3648 YYZZ=           -740.3046
 XXYZ=           -141.2923 YYXZ=              5.7385 ZZXY=            -21.5420
 N-N= 2.886900370719D+03 E-N=-8.792398431825D+03  KE= 1.302268212557D+03
 Leave Link  601 at Tue Feb 23 07:43:36 2021, MaxMem=  5242880000 cpu:         7.5
 (Enter /opt/nce/packages/global/g09/l9999.exe)
 1\1\GINC-CN016\SP\RM062X TD-FC\Gen\C26H21B1N1O3(1+)\PNG4RJV\23-Feb-202
 1\0\\#p m062x chkbasis geom=allcheck Guess=Read int=ultrafine scrf=(SM
 D,solvent=Acetonitrile) td=(NStates=30)\\Title\\1,1\C,0,-0.6465019908,
 3.6825739524,0.4006987188\C,0,-1.2757879475,2.4971540017,0.1543652321\
 C,0,-0.5072075143,1.3358261442,-0.0939575008\C,0,0.9141432553,1.420843
 1938,-0.1074602507\C,0,1.5228768593,2.6778553736,0.1798567834\C,0,0.76
 45440106,3.7788686609,0.4258587582\C,0,1.6719365866,0.2684477564,-0.36
 98947963\C,0,1.01878391,-0.9518841871,-0.6091990695\C,0,-0.4027096561,
 -1.0046249674,-0.561048438\C,0,-1.0662069215,-2.2353228768,-0.77452378
 98\H,0,-2.1435267851,-2.284880698,-0.7306681246\C,0,-0.3370037441,-3.3
 586815134,-1.0365989888\C,0,1.0745151399,-3.3210838908,-1.1122816318\C
 ,0,1.7328595586,-2.1491096339,-0.9072505508\H,0,-1.2429513686,4.565887
 6675,0.5898491559\H,0,-2.353890088,2.443398781,0.151616752\H,0,2.60151
 97408,2.740099734,0.2030701658\H,0,1.2335579445,4.7287366487,0.6437939
 848\H,0,-0.8536763864,-4.2961185655,-1.1978273363\H,0,1.6240783912,-4.
 2243801706,-1.3398882086\H,0,2.8108787582,-2.1097097794,-0.9782216509\
 N,0,-1.1120138264,0.1333802898,-0.3099745735\C,0,3.1569989649,0.338188
 2722,-0.3981774018\C,0,3.9311038185,-0.288693109,0.5902307331\C,0,3.76
 14739354,1.0064623312,-1.4601606276\C,0,5.3213234774,-0.2219426427,0.4
 687807681\C,0,5.1445296732,1.0592086571,-1.5543987115\C,0,5.9272947895
 ,0.4457768127,-0.5861898752\H,0,5.6068969946,1.5765303812,-2.385363555
 5\H,0,3.1444697037,1.4758449911,-2.2171094384\C,0,-2.5573062542,0.0576
 917367,-0.2562003935\C,0,-3.1759626985,-0.1842072254,0.9535285222\C,0,
 -3.2926143634,0.2270072728,-1.4207383644\C,0,-4.5615590932,-0.26041430
 62,1.0164160711\H,0,-2.5802372281,-0.3144879727,1.8487467141\C,0,-4.66
 95443311,0.1526897899,-1.364669111\H,0,-2.7853799744,0.4149874215,-2.3
 590583587\C,0,-5.3119147702,-0.0906811004,-0.1463639161\H,0,-5.0382130
 616,-0.4513999522,1.966570846\H,0,-5.2695815147,0.2810896215,-2.256103
 043\O,0,-6.657373623,-0.1446630217,-0.1888346783\C,0,-7.3524688066,-0.
 3859065095,1.0262338075\H,0,-8.4092825954,-0.3844158223,0.7726687776\H
 ,0,-7.0791790178,-1.3559527867,1.4471282536\H,0,-7.1505553797,0.401761
 6914,1.7553353935\H,0,7.0070235108,0.48484394,-0.6547980093\B,0,3.3225
 086916,-1.043050664,1.8348235755\O,0,2.2175189712,-0.6267454888,2.5202
 693482\O,0,3.9613226107,-2.1675689195,2.2582631727\H,0,1.8571876783,0.
 2238277979,2.2437064259\H,0,3.5656540768,-2.5497969636,3.0524855888\H,
 0,5.9376468888,-0.7020731535,1.2195148457\\Version=ES64L-G09RevE.01\St
 ate=1-A\HF=-1308.6577959\RMSD=1.895e-09\PG=C01 [X(C26H21B1N1O3)]\\@


 YOU ARE IN A MAZE OF TWISTY LITTLE PASSAGES.
 Job cpu time:       3 days  3 hours 46 minutes 11.7 seconds.
 File lengths (MBytes):  RWF=   5832 Int=      0 D2E=      0 Chk=   1053 Scr=      1
 Normal termination of Gaussian 09 at Tue Feb 23 07:43:37 2021.
