 Entering Gaussian System, Link 0=g09
 Input=/home/png4rjv/fotokatalizis/benchmark/OPCs/BF3-Acr_p_TPSS_def2TZVP.gjf
 Output=/home/png4rjv/fotokatalizis/benchmark/OPCs/BF3-Acr_p_TPSS_def2TZVP.log
 Initial command:
 /opt/nce/packages/global/g09/l1.exe "/home/png4rjv/fotokatalizis/benchmark/OPCs/BF3-Acr_p_TPSS_def2TZVP/Gau-4665.inp" -scrdir="/home/png4rjv/fotokatalizis/benchmark/OPCs/BF3-Acr_p_TPSS_def2TZVP/"
 Default is to use a total of  12 processors:
                               12 via shared-memory
                                1 via Linda
 Entering Link 1 = /opt/nce/packages/global/g09/l1.exe PID=      4666.
  
 Copyright (c) 1988,1990,1992,1993,1995,1998,2003,2009,2015,
            Gaussian, Inc.  All Rights Reserved.
  
 This is part of the Gaussian(R) 09 program.  It is based on
 the Gaussian(R) 03 system (copyright 2003, Gaussian, Inc.),
 the Gaussian(R) 98 system (copyright 1998, Gaussian, Inc.),
 the Gaussian(R) 94 system (copyright 1995, Gaussian, Inc.),
 the Gaussian 92(TM) system (copyright 1992, Gaussian, Inc.),
 the Gaussian 90(TM) system (copyright 1990, Gaussian, Inc.),
 the Gaussian 88(TM) system (copyright 1988, Gaussian, Inc.),
 the Gaussian 86(TM) system (copyright 1986, Carnegie Mellon
 University), and the Gaussian 82(TM) system (copyright 1983,
 Carnegie Mellon University). Gaussian is a federally registered
 trademark of Gaussian, Inc.
  
 This software contains proprietary and confidential information,
 including trade secrets, belonging to Gaussian, Inc.
  
 This software is provided under written license and may be
 used, copied, transmitted, or stored only in accord with that
 written license.
  
 The following legend is applicable only to US Government
 contracts under FAR:
  
                    RESTRICTED RIGHTS LEGEND
  
 Use, reproduction and disclosure by the US Government is
 subject to restrictions as set forth in subparagraphs (a)
 and (c) of the Commercial Computer Software - Restricted
 Rights clause in FAR 52.227-19.
  
 Gaussian, Inc.
 340 Quinnipiac St., Bldg. 40, Wallingford CT 06492
  
  
 ---------------------------------------------------------------
 Warning -- This program may not be used in any manner that
 competes with the business of Gaussian, Inc. or will provide
 assistance to any competitor of Gaussian, Inc.  The licensee
 of this program is prohibited from giving any competitor of
 Gaussian, Inc. access to this program.  By using this program,
 the user acknowledges that Gaussian, Inc. is engaged in the
 business of creating and licensing software in the field of
 computational chemistry and represents and warrants to the
 licensee that it is not a competitor of Gaussian, Inc. and that
 it will not use this program in any manner prohibited above.
 ---------------------------------------------------------------
  

 Cite this work as:
 Gaussian 09, Revision E.01,
 M. J. Frisch, G. W. Trucks, H. B. Schlegel, G. E. Scuseria, 
 M. A. Robb, J. R. Cheeseman, G. Scalmani, V. Barone, B. Mennucci, 
 G. A. Petersson, H. Nakatsuji, M. Caricato, X. Li, H. P. Hratchian, 
 A. F. Izmaylov, J. Bloino, G. Zheng, J. L. Sonnenberg, M. Hada, 
 M. Ehara, K. Toyota, R. Fukuda, J. Hasegawa, M. Ishida, T. Nakajima, 
 Y. Honda, O. Kitao, H. Nakai, T. Vreven, J. A. Montgomery, Jr., 
 J. E. Peralta, F. Ogliaro, M. Bearpark, J. J. Heyd, E. Brothers, 
 K. N. Kudin, V. N. Staroverov, T. Keith, R. Kobayashi, J. Normand, 
 K. Raghavachari, A. Rendell, J. C. Burant, S. S. Iyengar, J. Tomasi, 
 M. Cossi, N. Rega, J. M. Millam, M. Klene, J. E. Knox, J. B. Cross, 
 V. Bakken, C. Adamo, J. Jaramillo, R. Gomperts, R. E. Stratmann, 
 O. Yazyev, A. J. Austin, R. Cammi, C. Pomelli, J. W. Ochterski, 
 R. L. Martin, K. Morokuma, V. G. Zakrzewski, G. A. Voth, 
 P. Salvador, J. J. Dannenberg, S. Dapprich, A. D. Daniels, 
 O. Farkas, J. B. Foresman, J. V. Ortiz, J. Cioslowski, 
 and D. J. Fox, Gaussian, Inc., Wallingford CT, 2013.
 
 ******************************************
 Gaussian 09:  ES64L-G09RevE.01 30-Nov-2015
                30-Mar-2021 
 ******************************************
 %chk=cp.chk
 Default route:  MaxDisk=500GB
 ----------------------------------------------------------------------
 #p TPSSTPSS/def2TZVP opt freq=noraman nosymm int=ultrafine scrf=(SMD,s
 olvent=Acetonitrile)
 ----------------------------------------------------------------------
 1/14=-1,18=20,19=15,26=4,38=1/1,3;
 2/9=110,12=2,15=1,17=6,18=5,40=1/2;
 3/5=44,7=101,11=2,16=1,25=1,30=1,70=32201,71=1,72=2,74=2523,75=-5/1,2,3;
 4//1;
 5/5=2,38=5,53=2/2;
 6/7=2,8=2,9=2,10=2,28=1/1;
 7/30=1/1,2,3,16;
 1/14=-1,18=20,19=15,26=4/3(2);
 2/9=110,15=1/2;
 99//99;
 2/9=110,15=1/2;
 3/5=44,7=101,11=2,16=1,25=1,30=1,70=32205,71=1,72=2,74=2523,75=-5/1,2,3;
 4/5=5,16=3,69=1/1;
 5/5=2,38=5,53=2/2;
 7/30=1/1,2,3,16;
 1/14=-1,18=20,19=15,26=4/3(-5);
 2/9=110,15=1/2;
 6/7=2,8=2,9=2,10=2,19=2,28=1/1;
 99/9=1/99;
 Leave Link    1 at Tue Mar 30 07:01:22 2021, MaxMem=           0 cpu:         1.1
 (Enter /opt/nce/packages/global/g09/l101.exe)
 -----
 Title
 -----
 Symbolic Z-matrix:
 Charge =  0 Multiplicity = 1
 C                     1.34428   3.63579  -0.02725 
 C                     2.00697   2.42717   0.06868 
 C                     1.27679   1.21484   0.05556 
 C                    -0.15248   1.24529  -0.01114 
 C                    -0.78453   2.51318  -0.17313 
 C                    -0.05866   3.68389  -0.17108 
 C                    -0.90033   0.0227    0.01443 
 C                    -0.17191  -1.21041   0.07585 
 C                     1.25917  -1.2005    0.0751 
 C                     1.97178  -2.42297   0.09998 
 H                     3.05921  -2.4133    0.07463 
 C                     1.28807  -3.62172   0.1691 
 C                    -0.12067  -3.64952   0.24597 
 C                    -0.82913  -2.46873   0.21037 
 H                     1.92237   4.5626   -0.01761 
 H                     3.09168   2.4019    0.14617 
 H                    -1.86281   2.53901  -0.31731 
 H                    -0.56514   4.64219  -0.29753 
 H                     1.85271  -4.55656   0.19121 
 H                    -0.64626  -4.60004   0.35127 
 H                    -1.91337  -2.47892   0.30306 
 N                     1.9383    0.00243   0.07847 
 C                    -2.35198   0.03134  -0.02045 
 C                    -3.06174  -0.76144  -0.9594 
 C                    -3.09875   0.83386   0.88082 
 C                    -4.44766  -0.72994  -0.99584 
 C                    -4.48522   0.80754   0.85738 
 C                    -5.20172   0.02852  -0.07557 
 H                    -5.0554    1.40219   1.57547 
 H                    -2.57069   1.42196   1.63568 
 C                     3.38042  -0.00781   0.10896 
 C                     4.10041   0.00753  -1.08322 
 C                     4.05116  -0.03296   1.33772 
 C                     5.4973   -0.00207  -1.063 
 H                     3.56645   0.02726  -2.03529 
 C                     5.43914  -0.04239   1.36717 
 H                     3.47712  -0.04513   2.26621 
 C                     6.17671  -0.02707   0.16707 
 H                     6.04199   0.01002  -2.00596 
 H                     5.98641  -0.06178   2.31073 
 O                     7.51685  -0.03799   0.29637 
 C                     8.32748  -0.02387  -0.86205 
 H                     9.36753  -0.03648  -0.51308 
 H                     8.14776  -0.9114   -1.49347 
 H                     8.15946   0.88657  -1.46336 
 H                    -4.98746  -1.29436  -1.76035 
 B                    -6.84664  -0.02481  -0.06644 
 F                    -7.33225   1.19291   0.43441 
 F                    -7.23685  -1.08578   0.76685 
 F                    -7.29399  -0.24534  -1.37828 
 H                    -2.5028   -1.34261  -1.69736 
 
 NAtoms=     51 NQM=       51 NQMF=       0 NMMI=      0 NMMIF=      0
                NMic=       0 NMicF=      0.
                    Isotopes and Nuclear Properties:
 (Nuclear quadrupole moments (NQMom) in fm**2, nuclear magnetic moments (NMagM)
  in nuclear magnetons)

  Atom         1           2           3           4           5           6           7           8           9          10
 IAtWgt=          12          12          12          12          12          12          12          12          12          12
 AtmWgt=  12.0000000  12.0000000  12.0000000  12.0000000  12.0000000  12.0000000  12.0000000  12.0000000  12.0000000  12.0000000
 NucSpn=           0           0           0           0           0           0           0           0           0           0
 AtZEff=   0.0000000   0.0000000   0.0000000   0.0000000   0.0000000   0.0000000   0.0000000   0.0000000   0.0000000   0.0000000
 NQMom=    0.0000000   0.0000000   0.0000000   0.0000000   0.0000000   0.0000000   0.0000000   0.0000000   0.0000000   0.0000000
 NMagM=    0.0000000   0.0000000   0.0000000   0.0000000   0.0000000   0.0000000   0.0000000   0.0000000   0.0000000   0.0000000
 AtZNuc=   6.0000000   6.0000000   6.0000000   6.0000000   6.0000000   6.0000000   6.0000000   6.0000000   6.0000000   6.0000000

  Atom        11          12          13          14          15          16          17          18          19          20
 IAtWgt=           1          12          12          12           1           1           1           1           1           1
 AtmWgt=   1.0078250  12.0000000  12.0000000  12.0000000   1.0078250   1.0078250   1.0078250   1.0078250   1.0078250   1.0078250
 NucSpn=           1           0           0           0           1           1           1           1           1           1
 AtZEff=   0.0000000   0.0000000   0.0000000   0.0000000   0.0000000   0.0000000   0.0000000   0.0000000   0.0000000   0.0000000
 NQMom=    0.0000000   0.0000000   0.0000000   0.0000000   0.0000000   0.0000000   0.0000000   0.0000000   0.0000000   0.0000000
 NMagM=    2.7928460   0.0000000   0.0000000   0.0000000   2.7928460   2.7928460   2.7928460   2.7928460   2.7928460   2.7928460
 AtZNuc=   1.0000000   6.0000000   6.0000000   6.0000000   1.0000000   1.0000000   1.0000000   1.0000000   1.0000000   1.0000000

  Atom        21          22          23          24          25          26          27          28          29          30
 IAtWgt=           1          14          12          12          12          12          12          12           1           1
 AtmWgt=   1.0078250  14.0030740  12.0000000  12.0000000  12.0000000  12.0000000  12.0000000  12.0000000   1.0078250   1.0078250
 NucSpn=           1           2           0           0           0           0           0           0           1           1
 AtZEff=   0.0000000   0.0000000   0.0000000   0.0000000   0.0000000   0.0000000   0.0000000   0.0000000   0.0000000   0.0000000
 NQMom=    0.0000000   2.0440000   0.0000000   0.0000000   0.0000000   0.0000000   0.0000000   0.0000000   0.0000000   0.0000000
 NMagM=    2.7928460   0.4037610   0.0000000   0.0000000   0.0000000   0.0000000   0.0000000   0.0000000   2.7928460   2.7928460
 AtZNuc=   1.0000000   7.0000000   6.0000000   6.0000000   6.0000000   6.0000000   6.0000000   6.0000000   1.0000000   1.0000000

  Atom        31          32          33          34          35          36          37          38          39          40
 IAtWgt=          12          12          12          12           1          12           1          12           1           1
 AtmWgt=  12.0000000  12.0000000  12.0000000  12.0000000   1.0078250  12.0000000   1.0078250  12.0000000   1.0078250   1.0078250
 NucSpn=           0           0           0           0           1           0           1           0           1           1
 AtZEff=   0.0000000   0.0000000   0.0000000   0.0000000   0.0000000   0.0000000   0.0000000   0.0000000   0.0000000   0.0000000
 NQMom=    0.0000000   0.0000000   0.0000000   0.0000000   0.0000000   0.0000000   0.0000000   0.0000000   0.0000000   0.0000000
 NMagM=    0.0000000   0.0000000   0.0000000   0.0000000   2.7928460   0.0000000   2.7928460   0.0000000   2.7928460   2.7928460
 AtZNuc=   6.0000000   6.0000000   6.0000000   6.0000000   1.0000000   6.0000000   1.0000000   6.0000000   1.0000000   1.0000000

  Atom        41          42          43          44          45          46          47          48          49          50
 IAtWgt=          16          12           1           1           1           1          11          19          19          19
 AtmWgt=  15.9949146  12.0000000   1.0078250   1.0078250   1.0078250   1.0078250  11.0093053  18.9984033  18.9984033  18.9984033
 NucSpn=           0           0           1           1           1           1           3           1           1           1
 AtZEff=   0.0000000   0.0000000   0.0000000   0.0000000   0.0000000   0.0000000   0.0000000   0.0000000   0.0000000   0.0000000
 NQMom=    0.0000000   0.0000000   0.0000000   0.0000000   0.0000000   0.0000000   4.0590000   0.0000000   0.0000000   0.0000000
 NMagM=    0.0000000   0.0000000   2.7928460   2.7928460   2.7928460   2.7928460   2.6886370   2.6288670   2.6288670   2.6288670
 AtZNuc=   8.0000000   6.0000000   1.0000000   1.0000000   1.0000000   1.0000000   5.0000000   9.0000000   9.0000000   9.0000000

  Atom        51
 IAtWgt=           1
 AtmWgt=   1.0078250
 NucSpn=           1
 AtZEff=   0.0000000
 NQMom=    0.0000000
 NMagM=    2.7928460
 AtZNuc=   1.0000000
 Leave Link  101 at Tue Mar 30 07:01:22 2021, MaxMem=  5242880000 cpu:         4.3
 (Enter /opt/nce/packages/global/g09/l103.exe)

 GradGradGradGradGradGradGradGradGradGradGradGradGradGradGradGradGradGrad
 Berny optimization.
 Initialization pass.
                           ----------------------------
                           !    Initial Parameters    !
                           ! (Angstroms and Degrees)  !
 --------------------------                            --------------------------
 ! Name  Definition              Value          Derivative Info.                !
 --------------------------------------------------------------------------------
 ! R1    R(1,2)                  1.3817         estimate D2E/DX2                !
 ! R2    R(1,6)                  1.4111         estimate D2E/DX2                !
 ! R3    R(1,15)                 1.0924         estimate D2E/DX2                !
 ! R4    R(2,3)                  1.4153         estimate D2E/DX2                !
 ! R5    R(2,16)                 1.0878         estimate D2E/DX2                !
 ! R6    R(3,4)                  1.4311         estimate D2E/DX2                !
 ! R7    R(3,22)                 1.3813         estimate D2E/DX2                !
 ! R8    R(4,5)                  1.4259         estimate D2E/DX2                !
 ! R9    R(4,7)                  1.4334         estimate D2E/DX2                !
 ! R10   R(5,6)                  1.3775         estimate D2E/DX2                !
 ! R11   R(5,17)                 1.0882         estimate D2E/DX2                !
 ! R12   R(6,18)                 1.0913         estimate D2E/DX2                !
 ! R13   R(7,8)                  1.4335         estimate D2E/DX2                !
 ! R14   R(7,23)                 1.4521         estimate D2E/DX2                !
 ! R15   R(8,9)                  1.4311         estimate D2E/DX2                !
 ! R16   R(8,14)                 1.426          estimate D2E/DX2                !
 ! R17   R(9,10)                 1.4152         estimate D2E/DX2                !
 ! R18   R(9,22)                 1.3814         estimate D2E/DX2                !
 ! R19   R(10,11)                1.0878         estimate D2E/DX2                !
 ! R20   R(10,12)                1.3817         estimate D2E/DX2                !
 ! R21   R(12,13)                1.4111         estimate D2E/DX2                !
 ! R22   R(12,19)                1.0924         estimate D2E/DX2                !
 ! R23   R(13,14)                1.3775         estimate D2E/DX2                !
 ! R24   R(13,20)                1.0912         estimate D2E/DX2                !
 ! R25   R(14,21)                1.0882         estimate D2E/DX2                !
 ! R26   R(22,31)                1.4425         estimate D2E/DX2                !
 ! R27   R(23,24)                1.4191         estimate D2E/DX2                !
 ! R28   R(23,25)                1.4191         estimate D2E/DX2                !
 ! R29   R(24,26)                1.3868         estimate D2E/DX2                !
 ! R30   R(24,51)                1.093          estimate D2E/DX2                !
 ! R31   R(25,27)                1.3869         estimate D2E/DX2                !
 ! R32   R(25,30)                1.0929         estimate D2E/DX2                !
 ! R33   R(26,28)                1.4109         estimate D2E/DX2                !
 ! R34   R(26,46)                1.0929         estimate D2E/DX2                !
 ! R35   R(27,28)                1.4109         estimate D2E/DX2                !
 ! R36   R(27,29)                1.0929         estimate D2E/DX2                !
 ! R37   R(28,47)                1.6458         estimate D2E/DX2                !
 ! R38   R(31,32)                1.3928         estimate D2E/DX2                !
 ! R39   R(31,33)                1.4001         estimate D2E/DX2                !
 ! R40   R(32,34)                1.3971         estimate D2E/DX2                !
 ! R41   R(32,35)                1.0918         estimate D2E/DX2                !
 ! R42   R(33,36)                1.3883         estimate D2E/DX2                !
 ! R43   R(33,37)                1.0917         estimate D2E/DX2                !
 ! R44   R(34,38)                1.4055         estimate D2E/DX2                !
 ! R45   R(34,39)                1.089          estimate D2E/DX2                !
 ! R46   R(36,38)                1.4087         estimate D2E/DX2                !
 ! R47   R(36,40)                1.091          estimate D2E/DX2                !
 ! R48   R(38,41)                1.3464         estimate D2E/DX2                !
 ! R49   R(41,42)                1.4139         estimate D2E/DX2                !
 ! R50   R(42,43)                1.0971         estimate D2E/DX2                !
 ! R51   R(42,44)                1.104          estimate D2E/DX2                !
 ! R52   R(42,45)                1.104          estimate D2E/DX2                !
 ! R53   R(47,48)                1.4034         estimate D2E/DX2                !
 ! R54   R(47,49)                1.4044         estimate D2E/DX2                !
 ! R55   R(47,50)                1.4035         estimate D2E/DX2                !
 ! A1    A(2,1,6)              120.9127         estimate D2E/DX2                !
 ! A2    A(2,1,15)             119.1919         estimate D2E/DX2                !
 ! A3    A(6,1,15)             119.8754         estimate D2E/DX2                !
 ! A4    A(1,2,3)              120.0795         estimate D2E/DX2                !
 ! A5    A(1,2,16)             120.2335         estimate D2E/DX2                !
 ! A6    A(3,2,16)             119.6851         estimate D2E/DX2                !
 ! A7    A(2,3,4)              119.8308         estimate D2E/DX2                !
 ! A8    A(2,3,22)             120.3059         estimate D2E/DX2                !
 ! A9    A(4,3,22)             119.8492         estimate D2E/DX2                !
 ! A10   A(3,4,5)              117.8328         estimate D2E/DX2                !
 ! A11   A(3,4,7)              120.1364         estimate D2E/DX2                !
 ! A12   A(5,4,7)              121.9486         estimate D2E/DX2                !
 ! A13   A(4,5,6)              121.4633         estimate D2E/DX2                !
 ! A14   A(4,5,17)             118.3841         estimate D2E/DX2                !
 ! A15   A(6,5,17)             120.1445         estimate D2E/DX2                !
 ! A16   A(1,6,5)              119.675          estimate D2E/DX2                !
 ! A17   A(1,6,18)             120.2108         estimate D2E/DX2                !
 ! A18   A(5,6,18)             120.1057         estimate D2E/DX2                !
 ! A19   A(4,7,8)              117.9916         estimate D2E/DX2                !
 ! A20   A(4,7,23)             121.0685         estimate D2E/DX2                !
 ! A21   A(8,7,23)             120.9398         estimate D2E/DX2                !
 ! A22   A(7,8,9)              120.1423         estimate D2E/DX2                !
 ! A23   A(7,8,14)             121.9322         estimate D2E/DX2                !
 ! A24   A(9,8,14)             117.8424         estimate D2E/DX2                !
 ! A25   A(8,9,10)             119.8364         estimate D2E/DX2                !
 ! A26   A(8,9,22)             119.8442         estimate D2E/DX2                !
 ! A27   A(10,9,22)            120.3054         estimate D2E/DX2                !
 ! A28   A(9,10,11)            119.6882         estimate D2E/DX2                !
 ! A29   A(9,10,12)            120.074          estimate D2E/DX2                !
 ! A30   A(11,10,12)           120.2349         estimate D2E/DX2                !
 ! A31   A(10,12,13)           120.9177         estimate D2E/DX2                !
 ! A32   A(10,12,19)           119.1894         estimate D2E/DX2                !
 ! A33   A(13,12,19)           119.8724         estimate D2E/DX2                !
 ! A34   A(12,13,14)           119.6797         estimate D2E/DX2                !
 ! A35   A(12,13,20)           120.2153         estimate D2E/DX2                !
 ! A36   A(14,13,20)           120.0958         estimate D2E/DX2                !
 ! A37   A(8,14,13)            121.4548         estimate D2E/DX2                !
 ! A38   A(8,14,21)            118.3916         estimate D2E/DX2                !
 ! A39   A(13,14,21)           120.145          estimate D2E/DX2                !
 ! A40   A(3,22,9)             121.9271         estimate D2E/DX2                !
 ! A41   A(3,22,31)            119.0359         estimate D2E/DX2                !
 ! A42   A(9,22,31)            119.0369         estimate D2E/DX2                !
 ! A43   A(7,23,24)            120.8343         estimate D2E/DX2                !
 ! A44   A(7,23,25)            120.9415         estimate D2E/DX2                !
 ! A45   A(24,23,25)           118.2242         estimate D2E/DX2                !
 ! A46   A(23,24,26)           120.3006         estimate D2E/DX2                !
 ! A47   A(23,24,51)           119.2079         estimate D2E/DX2                !
 ! A48   A(26,24,51)           120.357          estimate D2E/DX2                !
 ! A49   A(23,25,27)           120.3032         estimate D2E/DX2                !
 ! A50   A(23,25,30)           119.253          estimate D2E/DX2                !
 ! A51   A(27,25,30)           120.3237         estimate D2E/DX2                !
 ! A52   A(24,26,28)           121.9503         estimate D2E/DX2                !
 ! A53   A(24,26,46)           120.0172         estimate D2E/DX2                !
 ! A54   A(28,26,46)           118.0288         estimate D2E/DX2                !
 ! A55   A(25,27,28)           121.9595         estimate D2E/DX2                !
 ! A56   A(25,27,29)           120.008          estimate D2E/DX2                !
 ! A57   A(28,27,29)           118.0324         estimate D2E/DX2                !
 ! A58   A(26,28,27)           117.1741         estimate D2E/DX2                !
 ! A59   A(26,28,47)           121.3554         estimate D2E/DX2                !
 ! A60   A(27,28,47)           121.4516         estimate D2E/DX2                !
 ! A61   A(22,31,32)           119.9096         estimate D2E/DX2                !
 ! A62   A(22,31,33)           119.8419         estimate D2E/DX2                !
 ! A63   A(32,31,33)           120.2486         estimate D2E/DX2                !
 ! A64   A(31,32,34)           120.2912         estimate D2E/DX2                !
 ! A65   A(31,32,35)           119.592          estimate D2E/DX2                !
 ! A66   A(34,32,35)           120.1168         estimate D2E/DX2                !
 ! A67   A(31,33,36)           119.8458         estimate D2E/DX2                !
 ! A68   A(31,33,37)           119.6508         estimate D2E/DX2                !
 ! A69   A(36,33,37)           120.5034         estimate D2E/DX2                !
 ! A70   A(32,34,38)           119.7449         estimate D2E/DX2                !
 ! A71   A(32,34,39)           119.1752         estimate D2E/DX2                !
 ! A72   A(38,34,39)           121.0799         estimate D2E/DX2                !
 ! A73   A(33,36,38)           120.3516         estimate D2E/DX2                !
 ! A74   A(33,36,40)           121.3311         estimate D2E/DX2                !
 ! A75   A(38,36,40)           118.3173         estimate D2E/DX2                !
 ! A76   A(34,38,36)           119.5179         estimate D2E/DX2                !
 ! A77   A(34,38,41)           124.4265         estimate D2E/DX2                !
 ! A78   A(36,38,41)           116.0556         estimate D2E/DX2                !
 ! A79   A(38,41,42)           119.4645         estimate D2E/DX2                !
 ! A80   A(41,42,43)           106.4264         estimate D2E/DX2                !
 ! A81   A(41,42,44)           111.5454         estimate D2E/DX2                !
 ! A82   A(41,42,45)           111.5451         estimate D2E/DX2                !
 ! A83   A(43,42,44)           109.088          estimate D2E/DX2                !
 ! A84   A(43,42,45)           109.0878         estimate D2E/DX2                !
 ! A85   A(44,42,45)           109.0693         estimate D2E/DX2                !
 ! A86   A(28,47,48)           108.6451         estimate D2E/DX2                !
 ! A87   A(28,47,49)           107.7867         estimate D2E/DX2                !
 ! A88   A(28,47,50)           108.5713         estimate D2E/DX2                !
 ! A89   A(48,47,49)           110.3419         estimate D2E/DX2                !
 ! A90   A(48,47,50)           111.0776         estimate D2E/DX2                !
 ! A91   A(49,47,50)           110.3247         estimate D2E/DX2                !
 ! D1    D(6,1,2,3)             -1.5146         estimate D2E/DX2                !
 ! D2    D(6,1,2,16)           177.9723         estimate D2E/DX2                !
 ! D3    D(15,1,2,3)          -179.8837         estimate D2E/DX2                !
 ! D4    D(15,1,2,16)           -0.3968         estimate D2E/DX2                !
 ! D5    D(2,1,6,5)              2.1029         estimate D2E/DX2                !
 ! D6    D(2,1,6,18)          -176.8373         estimate D2E/DX2                !
 ! D7    D(15,1,6,5)          -179.539          estimate D2E/DX2                !
 ! D8    D(15,1,6,18)            1.5207         estimate D2E/DX2                !
 ! D9    D(1,2,3,4)             -2.1357         estimate D2E/DX2                !
 ! D10   D(1,2,3,22)           176.5008         estimate D2E/DX2                !
 ! D11   D(16,2,3,4)           178.3746         estimate D2E/DX2                !
 ! D12   D(16,2,3,22)           -2.9889         estimate D2E/DX2                !
 ! D13   D(2,3,4,5)              5.048          estimate D2E/DX2                !
 ! D14   D(2,3,4,7)           -178.1842         estimate D2E/DX2                !
 ! D15   D(22,3,4,5)          -173.5948         estimate D2E/DX2                !
 ! D16   D(22,3,4,7)             3.173          estimate D2E/DX2                !
 ! D17   D(2,3,22,9)           179.5862         estimate D2E/DX2                !
 ! D18   D(2,3,22,31)           -0.3132         estimate D2E/DX2                !
 ! D19   D(4,3,22,9)            -1.7775         estimate D2E/DX2                !
 ! D20   D(4,3,22,31)          178.323          estimate D2E/DX2                !
 ! D21   D(3,4,5,6)             -4.533          estimate D2E/DX2                !
 ! D22   D(3,4,5,17)           174.4285         estimate D2E/DX2                !
 ! D23   D(7,4,5,6)            178.7614         estimate D2E/DX2                !
 ! D24   D(7,4,5,17)            -2.2771         estimate D2E/DX2                !
 ! D25   D(3,4,7,8)             -1.4463         estimate D2E/DX2                !
 ! D26   D(3,4,7,23)           178.5393         estimate D2E/DX2                !
 ! D27   D(5,4,7,8)            175.1851         estimate D2E/DX2                !
 ! D28   D(5,4,7,23)            -4.8293         estimate D2E/DX2                !
 ! D29   D(4,5,6,1)              1.0182         estimate D2E/DX2                !
 ! D30   D(4,5,6,18)           179.9596         estimate D2E/DX2                !
 ! D31   D(17,5,6,1)          -177.9252         estimate D2E/DX2                !
 ! D32   D(17,5,6,18)            1.0161         estimate D2E/DX2                !
 ! D33   D(4,7,8,9)             -1.6091         estimate D2E/DX2                !
 ! D34   D(4,7,8,14)           175.0037         estimate D2E/DX2                !
 ! D35   D(23,7,8,9)           178.4053         estimate D2E/DX2                !
 ! D36   D(23,7,8,14)           -4.9819         estimate D2E/DX2                !
 ! D37   D(4,7,23,24)          128.8251         estimate D2E/DX2                !
 ! D38   D(4,7,23,25)          -51.054          estimate D2E/DX2                !
 ! D39   D(8,7,23,24)          -51.1897         estimate D2E/DX2                !
 ! D40   D(8,7,23,25)          128.9312         estimate D2E/DX2                !
 ! D41   D(7,8,9,10)          -178.321          estimate D2E/DX2                !
 ! D42   D(7,8,9,22)             3.0356         estimate D2E/DX2                !
 ! D43   D(14,8,9,10)            4.9298         estimate D2E/DX2                !
 ! D44   D(14,8,9,22)         -173.7136         estimate D2E/DX2                !
 ! D45   D(7,8,14,13)          178.9005         estimate D2E/DX2                !
 ! D46   D(7,8,14,21)           -2.1608         estimate D2E/DX2                !
 ! D47   D(9,8,14,13)           -4.4121         estimate D2E/DX2                !
 ! D48   D(9,8,14,21)          174.5266         estimate D2E/DX2                !
 ! D49   D(8,9,10,11)          178.4998         estimate D2E/DX2                !
 ! D50   D(8,9,10,12)           -2.1181         estimate D2E/DX2                !
 ! D51   D(22,9,10,11)          -2.8631         estimate D2E/DX2                !
 ! D52   D(22,9,10,12)         176.519          estimate D2E/DX2                !
 ! D53   D(8,9,22,3)            -1.3216         estimate D2E/DX2                !
 ! D54   D(8,9,22,31)          178.5778         estimate D2E/DX2                !
 ! D55   D(10,9,22,3)         -179.9586         estimate D2E/DX2                !
 ! D56   D(10,9,22,31)          -0.0592         estimate D2E/DX2                !
 ! D57   D(9,10,12,13)          -1.4275         estimate D2E/DX2                !
 ! D58   D(9,10,12,19)        -179.7768         estimate D2E/DX2                !
 ! D59   D(11,10,12,13)        177.9512         estimate D2E/DX2                !
 ! D60   D(11,10,12,19)         -0.398          estimate D2E/DX2                !
 ! D61   D(10,12,13,14)          2.0164         estimate D2E/DX2                !
 ! D62   D(10,12,13,20)       -176.8817         estimate D2E/DX2                !
 ! D63   D(19,12,13,14)       -179.6456         estimate D2E/DX2                !
 ! D64   D(19,12,13,20)          1.4563         estimate D2E/DX2                !
 ! D65   D(12,13,14,8)           0.9978         estimate D2E/DX2                !
 ! D66   D(12,13,14,21)       -177.9226         estimate D2E/DX2                !
 ! D67   D(20,13,14,8)         179.8972         estimate D2E/DX2                !
 ! D68   D(20,13,14,21)          0.9769         estimate D2E/DX2                !
 ! D69   D(3,22,31,32)         -88.6148         estimate D2E/DX2                !
 ! D70   D(3,22,31,33)          91.3771         estimate D2E/DX2                !
 ! D71   D(9,22,31,32)          91.4828         estimate D2E/DX2                !
 ! D72   D(9,22,31,33)         -88.5253         estimate D2E/DX2                !
 ! D73   D(7,23,24,26)        -179.0602         estimate D2E/DX2                !
 ! D74   D(7,23,24,51)          -3.2613         estimate D2E/DX2                !
 ! D75   D(25,23,24,26)          0.8221         estimate D2E/DX2                !
 ! D76   D(25,23,24,51)        176.6211         estimate D2E/DX2                !
 ! D77   D(7,23,25,27)        -178.4411         estimate D2E/DX2                !
 ! D78   D(7,23,25,30)          -2.4111         estimate D2E/DX2                !
 ! D79   D(24,23,25,27)          1.6767         estimate D2E/DX2                !
 ! D80   D(24,23,25,30)        177.7067         estimate D2E/DX2                !
 ! D81   D(23,24,26,28)         -3.0553         estimate D2E/DX2                !
 ! D82   D(23,24,26,46)        176.2331         estimate D2E/DX2                !
 ! D83   D(51,24,26,28)       -178.8056         estimate D2E/DX2                !
 ! D84   D(51,24,26,46)          0.4827         estimate D2E/DX2                !
 ! D85   D(23,25,27,28)         -2.0521         estimate D2E/DX2                !
 ! D86   D(23,25,27,29)        177.9738         estimate D2E/DX2                !
 ! D87   D(30,25,27,28)       -178.0393         estimate D2E/DX2                !
 ! D88   D(30,25,27,29)          1.9866         estimate D2E/DX2                !
 ! D89   D(24,26,28,27)          2.6692         estimate D2E/DX2                !
 ! D90   D(24,26,28,47)       -175.7722         estimate D2E/DX2                !
 ! D91   D(46,26,28,27)       -176.6327         estimate D2E/DX2                !
 ! D92   D(46,26,28,47)          4.9259         estimate D2E/DX2                !
 ! D93   D(25,27,28,26)         -0.0974         estimate D2E/DX2                !
 ! D94   D(25,27,28,47)        178.3424         estimate D2E/DX2                !
 ! D95   D(29,27,28,26)        179.8772         estimate D2E/DX2                !
 ! D96   D(29,27,28,47)         -1.683          estimate D2E/DX2                !
 ! D97   D(26,28,47,48)       -152.5101         estimate D2E/DX2                !
 ! D98   D(26,28,47,49)         87.9165         estimate D2E/DX2                !
 ! D99   D(26,28,47,50)        -31.5951         estimate D2E/DX2                !
 ! D100  D(27,28,47,48)         29.1153         estimate D2E/DX2                !
 ! D101  D(27,28,47,49)        -90.4581         estimate D2E/DX2                !
 ! D102  D(27,28,47,50)        150.0302         estimate D2E/DX2                !
 ! D103  D(22,31,32,34)        179.9924         estimate D2E/DX2                !
 ! D104  D(22,31,32,35)          0.0009         estimate D2E/DX2                !
 ! D105  D(33,31,32,34)          0.0005         estimate D2E/DX2                !
 ! D106  D(33,31,32,35)       -179.991          estimate D2E/DX2                !
 ! D107  D(22,31,33,36)       -179.9797         estimate D2E/DX2                !
 ! D108  D(22,31,33,37)          0.0268         estimate D2E/DX2                !
 ! D109  D(32,31,33,36)          0.0122         estimate D2E/DX2                !
 ! D110  D(32,31,33,37)       -179.9813         estimate D2E/DX2                !
 ! D111  D(31,32,34,38)         -0.0116         estimate D2E/DX2                !
 ! D112  D(31,32,34,39)        179.9881         estimate D2E/DX2                !
 ! D113  D(35,32,34,38)        179.9798         estimate D2E/DX2                !
 ! D114  D(35,32,34,39)         -0.0205         estimate D2E/DX2                !
 ! D115  D(31,33,36,38)         -0.0136         estimate D2E/DX2                !
 ! D116  D(31,33,36,40)        179.9915         estimate D2E/DX2                !
 ! D117  D(37,33,36,38)        179.9798         estimate D2E/DX2                !
 ! D118  D(37,33,36,40)         -0.0151         estimate D2E/DX2                !
 ! D119  D(32,34,38,36)          0.0101         estimate D2E/DX2                !
 ! D120  D(32,34,38,41)       -179.9934         estimate D2E/DX2                !
 ! D121  D(39,34,38,36)       -179.9896         estimate D2E/DX2                !
 ! D122  D(39,34,38,41)          0.007          estimate D2E/DX2                !
 ! D123  D(33,36,38,34)          0.0025         estimate D2E/DX2                !
 ! D124  D(33,36,38,41)       -179.9943         estimate D2E/DX2                !
 ! D125  D(40,36,38,34)        179.9975         estimate D2E/DX2                !
 ! D126  D(40,36,38,41)          0.0007         estimate D2E/DX2                !
 ! D127  D(34,38,41,42)          0.0021         estimate D2E/DX2                !
 ! D128  D(36,38,41,42)        179.9988         estimate D2E/DX2                !
 ! D129  D(38,41,42,43)        179.9988         estimate D2E/DX2                !
 ! D130  D(38,41,42,44)        -61.1231         estimate D2E/DX2                !
 ! D131  D(38,41,42,45)         61.121          estimate D2E/DX2                !
 --------------------------------------------------------------------------------
 Trust Radius=3.00D-01 FncErr=1.00D-07 GrdErr=1.00D-06
 Number of steps in this run=    287 maximum allowed number of steps=    306.
 GradGradGradGradGradGradGradGradGradGradGradGradGradGradGradGradGradGrad

 Leave Link  103 at Tue Mar 30 07:01:22 2021, MaxMem=  5242880000 cpu:         0.2
 (Enter /opt/nce/packages/global/g09/l202.exe)
 Symmetry turned off by external request.
 Stoichiometry    C26H19BF3NO
 Framework group  C1[X(C26H19BF3NO)]
 Deg. of freedom   147
 Full point group                 C1      NOp   1
                          Input orientation:                          
 ---------------------------------------------------------------------
 Center     Atomic      Atomic             Coordinates (Angstroms)
 Number     Number       Type             X           Y           Z
 ---------------------------------------------------------------------
      1          6           0        1.344283    3.635788   -0.027249
      2          6           0        2.006968    2.427166    0.068676
      3          6           0        1.276792    1.214836    0.055560
      4          6           0       -0.152476    1.245294   -0.011139
      5          6           0       -0.784528    2.513181   -0.173134
      6          6           0       -0.058659    3.683894   -0.171084
      7          6           0       -0.900332    0.022696    0.014431
      8          6           0       -0.171910   -1.210409    0.075851
      9          6           0        1.259169   -1.200496    0.075104
     10          6           0        1.971779   -2.422970    0.099982
     11          1           0        3.059211   -2.413295    0.074625
     12          6           0        1.288065   -3.621715    0.169104
     13          6           0       -0.120673   -3.649519    0.245968
     14          6           0       -0.829127   -2.468729    0.210365
     15          1           0        1.922367    4.562601   -0.017608
     16          1           0        3.091683    2.401903    0.146170
     17          1           0       -1.862806    2.539009   -0.317310
     18          1           0       -0.565136    4.642188   -0.297525
     19          1           0        1.852711   -4.556565    0.191212
     20          1           0       -0.646261   -4.600038    0.351272
     21          1           0       -1.913367   -2.478923    0.303055
     22          7           0        1.938299    0.002433    0.078473
     23          6           0       -2.351978    0.031341   -0.020448
     24          6           0       -3.061739   -0.761440   -0.959400
     25          6           0       -3.098750    0.833863    0.880815
     26          6           0       -4.447664   -0.729937   -0.995841
     27          6           0       -4.485223    0.807543    0.857375
     28          6           0       -5.201719    0.028522   -0.075571
     29          1           0       -5.055396    1.402189    1.575473
     30          1           0       -2.570688    1.421956    1.635680
     31          6           0        3.380424   -0.007806    0.108959
     32          6           0        4.100406    0.007526   -1.083224
     33          6           0        4.051162   -0.032963    1.337723
     34          6           0        5.497298   -0.002074   -1.062999
     35          1           0        3.566452    0.027261   -2.035292
     36          6           0        5.439136   -0.042393    1.367167
     37          1           0        3.477123   -0.045126    2.266209
     38          6           0        6.176705   -0.027073    0.167071
     39          1           0        6.041988    0.010019   -2.005956
     40          1           0        5.986410   -0.061780    2.310732
     41          8           0        7.516852   -0.037985    0.296366
     42          6           0        8.327477   -0.023867   -0.862049
     43          1           0        9.367525   -0.036478   -0.513084
     44          1           0        8.147756   -0.911400   -1.493471
     45          1           0        8.159458    0.886573   -1.463363
     46          1           0       -4.987455   -1.294359   -1.760354
     47          5           0       -6.846638   -0.024808   -0.066438
     48          9           0       -7.332250    1.192912    0.434406
     49          9           0       -7.236848   -1.085776    0.766847
     50          9           0       -7.293992   -0.245336   -1.378279
     51          1           0       -2.502802   -1.342605   -1.697361
 ---------------------------------------------------------------------
 Rotational constants (GHZ):      0.3582025      0.0563828      0.0507927
 Leave Link  202 at Tue Mar 30 07:01:22 2021, MaxMem=  5242880000 cpu:         0.1
 (Enter /opt/nce/packages/global/g09/l301.exe)
 Standard basis: def2TZVP (5D, 7F)
 Ernie: Thresh=  0.10000D-02 Tol=  0.10000D-05 Strict=F.
  1106 basis functions,  1784 primitive gaussians,  1266 cartesian basis functions
   111 alpha electrons      111 beta electrons
       nuclear repulsion energy      2924.6162976089 Hartrees.
 IExCor= 2523 DFT=T Ex=TPSS Corr=TPSS ExCW=0 ScaHFX=  0.000000
 ScaDFX=  1.000000  1.000000  1.000000  1.000000 ScalE2=  1.000000  1.000000
 IRadAn=      5 IRanWt=     -1 IRanGd=            0 ICorTp=0 IEmpDi=  4
 NAtoms=   51 NActive=   51 NUniq=   51 SFac= 1.00D+00 NAtFMM=   60 NAOKFM=F Big=F
 Integral buffers will be    131072 words long.
 Raffenetti 2 integral format.
 Two-electron integral symmetry is turned off.
 ------------------------------------------------------------------------------
 Polarizable Continuum Model (PCM)
 =================================
 Model                : PCM (using non-symmetric T matrix).
 Atomic radii         : SMD-Coulomb.
 Polarization charges : Total charges.
 Charge compensation  : None.
 Solution method      : On-the-fly selection.
 Cavity type          : VdW (van der Waals Surface) (Alpha=1.000).
 Cavity algorithm     : GePol (No added spheres)
                        Default sphere list used, NSphG=   51.
                        Lebedev-Laikov grids with approx.  5.0 points / Ang**2.
                        Smoothing algorithm: York/Karplus (Gamma=1.0000).
                        Polarization charges: spherical gaussians, with
                                              point-specific exponents (IZeta= 3).
                        Self-potential: point-specific (ISelfS= 7).
                        Self-field    : sphere-specific E.n sum rule (ISelfD= 2).
 1st derivatives      : Analytical E(r).r(x)/FMM algorithm (CHGder, D1EAlg=3).
                        Cavity 1st derivative terms included.
 Solvent              : Acetonitrile, Eps=  35.688000 Eps(inf)=   1.806874
 ------------------------------------------------------------------------------
 GePol: Number of generator spheres                  =      51
 GePol: Total number of spheres                      =      51
 GePol: Number of exposed spheres                    =      51 (100.00%)
 GePol: Number of points                             =    3812
 GePol: Average weight of points                     =       0.11
 GePol: Minimum weight of points                     =   0.95D-10
 GePol: Maximum weight of points                     =    0.21559
 GePol: Number of points with low weight             =     210
 GePol: Fraction of low-weight points (<1% of avg)   =       5.51%
 GePol: Cavity surface area                          =    438.089 Ang**2
 GePol: Cavity volume                                =    430.393 Ang**3
 ------------------------------------------------------------------------------
 Atomic radii for non-electrostatic terms: SMD-CDS.
 ------------------------------------------------------------------------------
 PCM non-electrostatic energy =        -0.0068478852 Hartrees.
 Nuclear repulsion after PCM non-electrostatic terms =     2924.6094497237 Hartrees.
 Leave Link  301 at Tue Mar 30 07:01:23 2021, MaxMem=  5242880000 cpu:         2.1
 (Enter /opt/nce/packages/global/g09/l302.exe)
 NPDir=0 NMtPBC=     1 NCelOv=     1 NCel=       1 NClECP=     1 NCelD=      1
         NCelK=      1 NCelE2=     1 NClLst=     1 CellRange=     0.0.
 One-electron integrals computed using PRISM.
   1 Symmetry operations used in ECPInt.
 ECPInt:  NShTT=   91806 NPrTT=  285396 LenC2=   70283 LenP2D=  149035.
 LDataN:  DoStor=T MaxTD1= 6 Len=  172
 NBasis=  1106 RedAO= T EigKep=  5.42D-06  NBF=  1106
 NBsUse=  1106 1.00D-06 EigRej= -1.00D+00 NBFU=  1106
 Precomputing XC quadrature grid using
 IXCGrd= 4 IRadAn=           5 IRanWt=          -1 IRanGd=           0 AccXCQ= 0.00D+00.
 Generated NRdTot=       0 NPtTot=           0 NUsed=           0 NTot=          32
 NSgBfM=  1143  1143  1143  1143  1143 MxSgAt=    51 MxSgA2=    51.
 Leave Link  302 at Tue Mar 30 07:01:25 2021, MaxMem=  5242880000 cpu:        31.4
 (Enter /opt/nce/packages/global/g09/l303.exe)
 DipDrv:  MaxL=1.
 Leave Link  303 at Tue Mar 30 07:01:26 2021, MaxMem=  5242880000 cpu:         2.9
 (Enter /opt/nce/packages/global/g09/l401.exe)
 ExpMin= 6.06D-02 ExpMax= 3.55D+04 ExpMxC= 1.21D+03 IAcc=3 IRadAn=         5 AccDes= 0.00D+00
 Harris functional with IExCor= 1009 and IRadAn=       5 diagonalized for initial guess.
 HarFok:  IExCor= 1009 AccDes= 0.00D+00 IRadAn=         5 IDoV= 1 UseB2=F ITyADJ=14
 ICtDFT=  3500011 ScaDFX=  1.000000  1.000000  1.000000  1.000000
 FoFCou: FMM=F IPFlag=           0 FMFlag=      100000 FMFlg1=           0
         NFxFlg=           0 DoJE=T BraDBF=F KetDBF=T FulRan=T
         wScrn=  0.000000 ICntrl=     500 IOpCl=  0 I1Cent=   200000004 NGrid=           0
         NMat0=    1 NMatS0=      1 NMatT0=    0 NMatD0=    1 NMtDS0=    0 NMtDT0=    0
 Symmetry not used in FoFCou.
 Harris En= -1455.95865877627    
 JPrj=0 DoOrth=F DoCkMO=F.
 Leave Link  401 at Tue Mar 30 07:01:36 2021, MaxMem=  5242880000 cpu:       127.9
 (Enter /opt/nce/packages/global/g09/l502.exe)
 Closed shell SCF:
 Using DIIS extrapolation, IDIIS=  1040.
 Two-electron integral symmetry not used.
 IVT=     4849708 IEndB=     4849708 NGot=  5242880000 MDV=  5239650955
 LenX=  5239650955 LenY=  5238046933
 Requested convergence on RMS density matrix=1.00D-08 within 128 cycles.
 Requested convergence on MAX density matrix=1.00D-06.
 Requested convergence on             energy=1.00D-06.
 No special actions if energy rises.
 Fock matrices will be formed incrementally for  20 cycles.

 Cycle   1  Pass 1  IDiag  1:
 FoFJK:  IHMeth= 1 ICntrl=     500 DoSepK=F KAlg= 0 I1Cent=   0 FoldK=F
 IRaf= 650000000 NMat=   1 IRICut=       1 DoRegI=T DoRafI=F ISym2E= 0.
 FoFCou: FMM=F IPFlag=           0 FMFlag=      100000 FMFlg1=           0
         NFxFlg=           0 DoJE=T BraDBF=F KetDBF=F FulRan=T
         wScrn=  0.000000 ICntrl=     500 IOpCl=  0 I1Cent=           0 NGrid=           0
         NMat0=    1 NMatS0=      1 NMatT0=    0 NMatD0=    1 NMtDS0=    0 NMtDT0=    0
 Symmetry not used in FoFCou.
 Inv3:  Mode=1 IEnd=    43594032.
 Iteration    1 A*A^-1 deviation from unit magnitude is 7.55D-15 for   3810.
 Iteration    1 A*A^-1 deviation from orthogonality  is 2.51D-15 for   1817    384.
 Iteration    1 A^-1*A deviation from unit magnitude is 8.10D-15 for   3810.
 Iteration    1 A^-1*A deviation from orthogonality  is 1.49D-08 for   3014   2977.
 Iteration    2 A*A^-1 deviation from unit magnitude is 2.00D-15 for     76.
 Iteration    2 A*A^-1 deviation from orthogonality  is 3.77D-15 for   2977    312.
 Iteration    2 A^-1*A deviation from unit magnitude is 9.99D-16 for    144.
 Iteration    2 A^-1*A deviation from orthogonality  is 3.39D-16 for   1849   1510.
 E= -1457.00252296911    
 DIIS: error= 1.84D-02 at cycle   1 NSaved=   1.
 NSaved= 1 IEnMin= 1 EnMin= -1457.00252296911     IErMin= 1 ErrMin= 1.84D-02
 ErrMax= 1.84D-02  0.00D+00 EMaxC= 1.00D-01 BMatC= 6.23D-01 BMatP= 6.23D-01
 IDIUse=3 WtCom= 8.16D-01 WtEn= 1.84D-01
 Coeff-Com:  0.100D+01
 Coeff-En:   0.100D+01
 Coeff:      0.100D+01
 Gap=     0.074 Goal=   None    Shift=    0.000
 GapD=    0.074 DampG=0.500 DampE=0.500 DampFc=0.2500 IDamp=-1.
 Damping current iteration by 2.50D-01
 RMSDP=3.93D-03 MaxDP=4.55D-01              OVMax= 4.59D-01

 Cycle   2  Pass 1  IDiag  1:
 RMSU=  9.82D-04    CP:  1.01D+00
 E= -1457.18736723502     Delta-E=       -0.184844265915 Rises=F Damp=T
 DIIS: error= 8.00D-03 at cycle   2 NSaved=   2.
 NSaved= 2 IEnMin= 2 EnMin= -1457.18736723502     IErMin= 2 ErrMin= 8.00D-03
 ErrMax= 8.00D-03  0.00D+00 EMaxC= 1.00D-01 BMatC= 1.57D-01 BMatP= 6.23D-01
 IDIUse=3 WtCom= 9.20D-01 WtEn= 8.00D-02
 Coeff-Com: -0.558D+00 0.156D+01
 Coeff-En:   0.000D+00 0.100D+01
 Coeff:     -0.513D+00 0.151D+01
 Gap=     0.109 Goal=   None    Shift=    0.000
 RMSDP=9.26D-04 MaxDP=6.84D-02 DE=-1.85D-01 OVMax= 6.00D-01

 Cycle   3  Pass 1  IDiag  1:
 RMSU=  8.95D-04    CP:  9.81D-01  1.18D+00
 E= -1457.38294684175     Delta-E=       -0.195579606730 Rises=F Damp=F
 DIIS: error= 1.37D-02 at cycle   3 NSaved=   3.
 NSaved= 3 IEnMin= 3 EnMin= -1457.38294684175     IErMin= 2 ErrMin= 8.00D-03
 ErrMax= 1.37D-02  0.00D+00 EMaxC= 1.00D-01 BMatC= 1.44D-01 BMatP= 1.57D-01
 IDIUse=3 WtCom= 8.63D-01 WtEn= 1.37D-01
 Coeff-Com: -0.467D+00 0.101D+01 0.461D+00
 Coeff-En:   0.000D+00 0.000D+00 0.100D+01
 Coeff:     -0.403D+00 0.868D+00 0.534D+00
 Gap=     0.089 Goal=   None    Shift=    0.000
 RMSDP=5.74D-04 MaxDP=8.01D-02 DE=-1.96D-01 OVMax= 2.54D-01

 Cycle   4  Pass 1  IDiag  1:
 RMSU=  4.94D-04    CP:  9.86D-01  1.11D+00  6.84D-01
 E= -1457.47056906543     Delta-E=       -0.087622223676 Rises=F Damp=F
 DIIS: error= 9.47D-03 at cycle   4 NSaved=   4.
 NSaved= 4 IEnMin= 4 EnMin= -1457.47056906543     IErMin= 2 ErrMin= 8.00D-03
 ErrMax= 9.47D-03  0.00D+00 EMaxC= 1.00D-01 BMatC= 7.21D-02 BMatP= 1.44D-01
 IDIUse=3 WtCom= 9.05D-01 WtEn= 9.47D-02
 Coeff-Com: -0.174D+00 0.350D+00 0.404D+00 0.419D+00
 Coeff-En:   0.000D+00 0.000D+00 0.364D+00 0.636D+00
 Coeff:     -0.158D+00 0.317D+00 0.401D+00 0.440D+00
 Gap=     0.071 Goal=   None    Shift=    0.000
 RMSDP=2.76D-04 MaxDP=4.04D-02 DE=-8.76D-02 OVMax= 1.62D-01

 Cycle   5  Pass 1  IDiag  1:
 RMSU=  1.91D-04    CP:  9.85D-01  1.07D+00  7.26D-01  6.10D-01
 E= -1457.54088237920     Delta-E=       -0.070313313775 Rises=F Damp=F
 DIIS: error= 2.90D-03 at cycle   5 NSaved=   5.
 NSaved= 5 IEnMin= 5 EnMin= -1457.54088237920     IErMin= 5 ErrMin= 2.90D-03
 ErrMax= 2.90D-03  0.00D+00 EMaxC= 1.00D-01 BMatC= 6.51D-03 BMatP= 7.21D-02
 IDIUse=3 WtCom= 9.71D-01 WtEn= 2.90D-02
 Coeff-Com: -0.424D-01 0.737D-01 0.199D+00 0.299D+00 0.471D+00
 Coeff-En:   0.000D+00 0.000D+00 0.000D+00 0.622D-01 0.938D+00
 Coeff:     -0.412D-01 0.716D-01 0.193D+00 0.292D+00 0.485D+00
 Gap=     0.075 Goal=   None    Shift=    0.000
 RMSDP=1.59D-04 MaxDP=2.70D-02 DE=-7.03D-02 OVMax= 4.46D-02

 Cycle   6  Pass 1  IDiag  1:
 RMSU=  6.04D-05    CP:  9.85D-01  1.14D+00  7.79D-01  6.21D-01  3.54D-01
 E= -1457.54632499894     Delta-E=       -0.005442619738 Rises=F Damp=F
 DIIS: error= 1.35D-03 at cycle   6 NSaved=   6.
 NSaved= 6 IEnMin= 6 EnMin= -1457.54632499894     IErMin= 6 ErrMin= 1.35D-03
 ErrMax= 1.35D-03  0.00D+00 EMaxC= 1.00D-01 BMatC= 1.36D-03 BMatP= 6.51D-03
 IDIUse=3 WtCom= 9.87D-01 WtEn= 1.35D-02
 Coeff-Com: -0.100D-01 0.125D-01 0.751D-01 0.129D+00 0.346D+00 0.447D+00
 Coeff-En:   0.000D+00 0.000D+00 0.000D+00 0.000D+00 0.235D+00 0.765D+00
 Coeff:     -0.990D-02 0.124D-01 0.741D-01 0.127D+00 0.345D+00 0.452D+00
 Gap=     0.074 Goal=   None    Shift=    0.000
 RMSDP=4.80D-05 MaxDP=5.19D-03 DE=-5.44D-03 OVMax= 1.91D-02

 Cycle   7  Pass 1  IDiag  1:
 RMSU=  2.58D-05    CP:  9.85D-01  1.13D+00  7.69D-01  6.17D-01  5.00D-01
                    CP:  5.82D-01
 E= -1457.54780410633     Delta-E=       -0.001479107393 Rises=F Damp=F
 DIIS: error= 3.09D-04 at cycle   7 NSaved=   7.
 NSaved= 7 IEnMin= 7 EnMin= -1457.54780410633     IErMin= 7 ErrMin= 3.09D-04
 ErrMax= 3.09D-04  0.00D+00 EMaxC= 1.00D-01 BMatC= 1.45D-04 BMatP= 1.36D-03
 IDIUse=3 WtCom= 9.97D-01 WtEn= 3.09D-03
 Coeff-Com: -0.151D-02 0.529D-03 0.110D-01 0.233D-01 0.139D+00 0.298D+00
 Coeff-Com:  0.529D+00
 Coeff-En:   0.000D+00 0.000D+00 0.000D+00 0.000D+00 0.000D+00 0.656D-01
 Coeff-En:   0.934D+00
 Coeff:     -0.150D-02 0.527D-03 0.110D-01 0.232D-01 0.139D+00 0.298D+00
 Coeff:      0.530D+00
 Gap=     0.075 Goal=   None    Shift=    0.000
 RMSDP=1.57D-05 MaxDP=2.10D-03 DE=-1.48D-03 OVMax= 4.32D-03

 Cycle   8  Pass 1  IDiag  1:
 RMSU=  1.02D-05    CP:  9.84D-01  1.12D+00  7.66D-01  6.17D-01  5.24D-01
                    CP:  6.50D-01  6.66D-01
 E= -1457.54793387904     Delta-E=       -0.000129772709 Rises=F Damp=F
 DIIS: error= 7.27D-05 at cycle   8 NSaved=   8.
 NSaved= 8 IEnMin= 8 EnMin= -1457.54793387904     IErMin= 8 ErrMin= 7.27D-05
 ErrMax= 7.27D-05  0.00D+00 EMaxC= 1.00D-01 BMatC= 1.04D-05 BMatP= 1.45D-04
 IDIUse=1 WtCom= 1.00D+00 WtEn= 0.00D+00
 Coeff-Com: -0.678D-03 0.369D-03 0.136D-02 0.435D-02 0.576D-01 0.146D+00
 Coeff-Com:  0.313D+00 0.478D+00
 Coeff:     -0.678D-03 0.369D-03 0.136D-02 0.435D-02 0.576D-01 0.146D+00
 Coeff:      0.313D+00 0.478D+00
 Gap=     0.074 Goal=   None    Shift=    0.000
 RMSDP=7.71D-06 MaxDP=1.54D-03 DE=-1.30D-04 OVMax= 1.59D-03

 Cycle   9  Pass 1  IDiag  1:
 RMSU=  3.99D-06    CP:  9.85D-01  1.13D+00  7.68D-01  6.18D-01  5.11D-01
                    CP:  6.64D-01  7.36D-01  6.34D-01
 E= -1457.54794272408     Delta-E=       -0.000008845036 Rises=F Damp=F
 DIIS: error= 3.03D-05 at cycle   9 NSaved=   9.
 NSaved= 9 IEnMin= 9 EnMin= -1457.54794272408     IErMin= 9 ErrMin= 3.03D-05
 ErrMax= 3.03D-05  0.00D+00 EMaxC= 1.00D-01 BMatC= 1.90D-06 BMatP= 1.04D-05
 IDIUse=1 WtCom= 1.00D+00 WtEn= 0.00D+00
 Coeff-Com: -0.316D-03 0.286D-03-0.456D-03-0.539D-04 0.202D-01 0.587D-01
 Coeff-Com:  0.137D+00 0.325D+00 0.459D+00
 Coeff:     -0.316D-03 0.286D-03-0.456D-03-0.539D-04 0.202D-01 0.587D-01
 Coeff:      0.137D+00 0.325D+00 0.459D+00
 Gap=     0.075 Goal=   None    Shift=    0.000
 RMSDP=2.74D-06 MaxDP=5.63D-04 DE=-8.85D-06 OVMax= 5.35D-04

 Cycle  10  Pass 1  IDiag  1:
 RMSU=  9.10D-07    CP:  9.85D-01  1.13D+00  7.67D-01  6.18D-01  5.16D-01
                    CP:  6.65D-01  7.23D-01  7.30D-01  6.36D-01
 E= -1457.54794456014     Delta-E=       -0.000001836062 Rises=F Damp=F
 DIIS: error= 5.05D-06 at cycle  10 NSaved=  10.
 NSaved=10 IEnMin=10 EnMin= -1457.54794456014     IErMin=10 ErrMin= 5.05D-06
 ErrMax= 5.05D-06  0.00D+00 EMaxC= 1.00D-01 BMatC= 5.99D-08 BMatP= 1.90D-06
 IDIUse=1 WtCom= 1.00D+00 WtEn= 0.00D+00
 Coeff-Com: -0.141D-03 0.138D-03-0.304D-03-0.229D-03 0.810D-02 0.249D-01
 Coeff-Com:  0.592D-01 0.154D+00 0.247D+00 0.508D+00
 Coeff:     -0.141D-03 0.138D-03-0.304D-03-0.229D-03 0.810D-02 0.249D-01
 Coeff:      0.592D-01 0.154D+00 0.247D+00 0.508D+00
 Gap=     0.075 Goal=   None    Shift=    0.000
 RMSDP=4.45D-07 MaxDP=8.82D-05 DE=-1.84D-06 OVMax= 7.95D-05

 Cycle  11  Pass 1  IDiag  1:
 RMSU=  2.36D-07    CP:  9.85D-01  1.13D+00  7.67D-01  6.18D-01  5.15D-01
                    CP:  6.67D-01  7.26D-01  7.23D-01  6.73D-01  8.98D-01
 E= -1457.54794460674     Delta-E=       -0.000000046602 Rises=F Damp=F
 DIIS: error= 2.73D-06 at cycle  11 NSaved=  11.
 NSaved=11 IEnMin=11 EnMin= -1457.54794460674     IErMin=11 ErrMin= 2.73D-06
 ErrMax= 2.73D-06  0.00D+00 EMaxC= 1.00D-01 BMatC= 9.45D-09 BMatP= 5.99D-08
 IDIUse=1 WtCom= 1.00D+00 WtEn= 0.00D+00
 Coeff-Com: -0.329D-04 0.405D-04-0.807D-04-0.901D-04 0.112D-02 0.398D-02
 Coeff-Com:  0.979D-02 0.309D-01 0.598D-01 0.302D+00 0.592D+00
 Coeff:     -0.329D-04 0.405D-04-0.807D-04-0.901D-04 0.112D-02 0.398D-02
 Coeff:      0.979D-02 0.309D-01 0.598D-01 0.302D+00 0.592D+00
 Gap=     0.075 Goal=   None    Shift=    0.000
 RMSDP=2.38D-07 MaxDP=4.54D-05 DE=-4.66D-08 OVMax= 2.63D-05

 Cycle  12  Pass 1  IDiag  1:
 RMSU=  1.06D-07    CP:  9.85D-01  1.13D+00  7.67D-01  6.18D-01  5.16D-01
                    CP:  6.67D-01  7.26D-01  7.36D-01  6.63D-01  9.46D-01
                    CP:  7.15D-01
 E= -1457.54794461468     Delta-E=       -0.000000007934 Rises=F Damp=F
 DIIS: error= 7.99D-07 at cycle  12 NSaved=  12.
 NSaved=12 IEnMin=12 EnMin= -1457.54794461468     IErMin=12 ErrMin= 7.99D-07
 ErrMax= 7.99D-07  0.00D+00 EMaxC= 1.00D-01 BMatC= 8.93D-10 BMatP= 9.45D-09
 IDIUse=1 WtCom= 1.00D+00 WtEn= 0.00D+00
 Coeff-Com: -0.860D-05 0.121D-04-0.198D-04-0.284D-04 0.294D-04 0.339D-03
 Coeff-Com:  0.101D-02 0.560D-02 0.148D-01 0.133D+00 0.336D+00 0.509D+00
 Coeff:     -0.860D-05 0.121D-04-0.198D-04-0.284D-04 0.294D-04 0.339D-03
 Coeff:      0.101D-02 0.560D-02 0.148D-01 0.133D+00 0.336D+00 0.509D+00
 Gap=     0.075 Goal=   None    Shift=    0.000
 RMSDP=8.67D-08 MaxDP=1.76D-05 DE=-7.93D-09 OVMax= 7.45D-06

 Cycle  13  Pass 1  IDiag  1:
 RMSU=  3.38D-08    CP:  9.85D-01  1.13D+00  7.67D-01  6.18D-01  5.16D-01
                    CP:  6.67D-01  7.27D-01  7.35D-01  6.71D-01  9.48D-01
                    CP:  7.81D-01  6.86D-01
 E= -1457.54794461535     Delta-E=       -0.000000000674 Rises=F Damp=F
 DIIS: error= 1.65D-07 at cycle  13 NSaved=  13.
 NSaved=13 IEnMin=13 EnMin= -1457.54794461535     IErMin=13 ErrMin= 1.65D-07
 ErrMax= 1.65D-07  0.00D+00 EMaxC= 1.00D-01 BMatC= 9.48D-11 BMatP= 8.93D-10
 IDIUse=1 WtCom= 1.00D+00 WtEn= 0.00D+00
 Coeff-Com: -0.163D-05 0.261D-05-0.255D-05-0.584D-05-0.969D-04-0.245D-03
 Coeff-Com: -0.469D-03-0.104D-03 0.230D-02 0.447D-01 0.133D+00 0.298D+00
 Coeff-Com:  0.523D+00
 Coeff:     -0.163D-05 0.261D-05-0.255D-05-0.584D-05-0.969D-04-0.245D-03
 Coeff:     -0.469D-03-0.104D-03 0.230D-02 0.447D-01 0.133D+00 0.298D+00
 Coeff:      0.523D+00
 Gap=     0.075 Goal=   None    Shift=    0.000
 RMSDP=1.70D-08 MaxDP=2.86D-06 DE=-6.74D-10 OVMax= 2.70D-06

 Cycle  14  Pass 1  IDiag  1:
 RMSU=  8.54D-09    CP:  9.85D-01  1.13D+00  7.67D-01  6.18D-01  5.16D-01
                    CP:  6.67D-01  7.27D-01  7.35D-01  6.71D-01  9.54D-01
                    CP:  7.80D-01  7.22D-01  8.47D-01
 E= -1457.54794461542     Delta-E=       -0.000000000073 Rises=F Damp=F
 DIIS: error= 7.76D-08 at cycle  14 NSaved=  14.
 NSaved=14 IEnMin=14 EnMin= -1457.54794461542     IErMin=14 ErrMin= 7.76D-08
 ErrMax= 7.76D-08  0.00D+00 EMaxC= 1.00D-01 BMatC= 1.06D-11 BMatP= 9.48D-11
 IDIUse=1 WtCom= 1.00D+00 WtEn= 0.00D+00
 Coeff-Com: -0.192D-06 0.439D-06 0.295D-06-0.103D-05-0.609D-04-0.190D-03
 Coeff-Com: -0.396D-03-0.695D-03-0.240D-03 0.119D-01 0.421D-01 0.120D+00
 Coeff-Com:  0.309D+00 0.519D+00
 Coeff:     -0.192D-06 0.439D-06 0.295D-06-0.103D-05-0.609D-04-0.190D-03
 Coeff:     -0.396D-03-0.695D-03-0.240D-03 0.119D-01 0.421D-01 0.120D+00
 Coeff:      0.309D+00 0.519D+00
 Gap=     0.075 Goal=   None    Shift=    0.000
 RMSDP=4.07D-09 MaxDP=5.02D-07 DE=-7.28D-11 OVMax= 8.21D-07

 Error on total polarization charges =  0.05762
 SCF Done:  E(RTPSS-TPSS) =  -1457.54794462     A.U. after   14 cycles
            NFock= 14  Conv=0.41D-08     -V/T= 2.0045
 KE= 1.451049602940D+03 PE=-9.252264995516D+03 EE= 3.419057998237D+03
 SMD-CDS (non-electrostatic) energy       (kcal/mol) =      -4.30
 (included in total energy above)
 Leave Link  502 at Tue Mar 30 07:17:56 2021, MaxMem=  5242880000 cpu:     11686.7
 (Enter /opt/nce/packages/global/g09/l601.exe)
 Copying SCF densities to generalized density rwf, IOpCl= 0 IROHF=0.

 **********************************************************************

            Population analysis using the SCF density.

 **********************************************************************

 Alpha  occ. eigenvalues --  -24.34838 -24.34829 -24.34827 -18.92093 -14.19467
 Alpha  occ. eigenvalues --  -10.06677 -10.06675 -10.05681 -10.04940 -10.03525
 Alpha  occ. eigenvalues --  -10.03338 -10.03004 -10.03003 -10.01123 -10.01123
 Alpha  occ. eigenvalues --  -10.00814 -10.00813 -10.00726 -10.00705 -10.00704
 Alpha  occ. eigenvalues --  -10.00503 -10.00461 -10.00213 -10.00212  -9.99701
 Alpha  occ. eigenvalues --   -9.99610  -9.99443  -9.99436  -9.98129  -9.98129
 Alpha  occ. eigenvalues --   -9.96052  -6.62739  -1.09046  -1.05145  -1.05077
 Alpha  occ. eigenvalues --   -1.00946  -0.95489  -0.83075  -0.81899  -0.80200
 Alpha  occ. eigenvalues --   -0.79068  -0.76219  -0.72736  -0.71763  -0.71179
 Alpha  occ. eigenvalues --   -0.70520  -0.69202  -0.68733  -0.68380  -0.64812
 Alpha  occ. eigenvalues --   -0.62708  -0.60716  -0.59581  -0.57626  -0.56563
 Alpha  occ. eigenvalues --   -0.55383  -0.55271  -0.53409  -0.51879  -0.51578
 Alpha  occ. eigenvalues --   -0.50530  -0.48684  -0.47972  -0.46772  -0.45935
 Alpha  occ. eigenvalues --   -0.45276  -0.43789  -0.43359  -0.42758  -0.42475
 Alpha  occ. eigenvalues --   -0.42158  -0.41506  -0.41251  -0.41187  -0.40865
 Alpha  occ. eigenvalues --   -0.40498  -0.40182  -0.39908  -0.39171  -0.39029
 Alpha  occ. eigenvalues --   -0.38389  -0.37487  -0.37307  -0.36651  -0.35561
 Alpha  occ. eigenvalues --   -0.35202  -0.35052  -0.34663  -0.33940  -0.33431
 Alpha  occ. eigenvalues --   -0.33261  -0.33134  -0.32468  -0.32276  -0.31443
 Alpha  occ. eigenvalues --   -0.31129  -0.30784  -0.30467  -0.29791  -0.29383
 Alpha  occ. eigenvalues --   -0.29103  -0.28996  -0.28683  -0.25730  -0.24958
 Alpha  occ. eigenvalues --   -0.24171  -0.23451  -0.22929  -0.22725  -0.20960
 Alpha  occ. eigenvalues --   -0.20768
 Alpha virt. eigenvalues --   -0.13315  -0.06850  -0.05537  -0.05214  -0.04198
 Alpha virt. eigenvalues --   -0.03897  -0.03164  -0.02528   0.00466   0.03507
 Alpha virt. eigenvalues --    0.04168   0.04470   0.05377   0.05412   0.05939
 Alpha virt. eigenvalues --    0.06751   0.07139   0.07236   0.07727   0.08184
 Alpha virt. eigenvalues --    0.08321   0.08624   0.08974   0.09228   0.09782
 Alpha virt. eigenvalues --    0.09939   0.10154   0.10352   0.10819   0.10938
 Alpha virt. eigenvalues --    0.11207   0.11258   0.11817   0.12017   0.12721
 Alpha virt. eigenvalues --    0.13134   0.13673   0.14218   0.14280   0.15744
 Alpha virt. eigenvalues --    0.16104   0.16242   0.16392   0.16764   0.17408
 Alpha virt. eigenvalues --    0.17918   0.18963   0.19194   0.19473   0.19654
 Alpha virt. eigenvalues --    0.19923   0.20191   0.20393   0.20507   0.20610
 Alpha virt. eigenvalues --    0.20814   0.21118   0.21592   0.21878   0.22035
 Alpha virt. eigenvalues --    0.22317   0.22467   0.23033   0.23453   0.23895
 Alpha virt. eigenvalues --    0.24049   0.24612   0.24768   0.25387   0.25505
 Alpha virt. eigenvalues --    0.25968   0.26162   0.26594   0.26969   0.27141
 Alpha virt. eigenvalues --    0.27472   0.27775   0.28319   0.28491   0.28669
 Alpha virt. eigenvalues --    0.29000   0.29229   0.29900   0.30164   0.30326
 Alpha virt. eigenvalues --    0.30779   0.31183   0.31685   0.31696   0.32128
 Alpha virt. eigenvalues --    0.32265   0.32540   0.32749   0.32920   0.33458
 Alpha virt. eigenvalues --    0.33835   0.34417   0.34785   0.34996   0.35012
 Alpha virt. eigenvalues --    0.35337   0.35509   0.35885   0.36573   0.37142
 Alpha virt. eigenvalues --    0.38047   0.38320   0.38576   0.38628   0.38916
 Alpha virt. eigenvalues --    0.39160   0.39256   0.39884   0.40012   0.40352
 Alpha virt. eigenvalues --    0.40832   0.40944   0.41168   0.41319   0.41546
 Alpha virt. eigenvalues --    0.41864   0.42359   0.42650   0.42790   0.43055
 Alpha virt. eigenvalues --    0.43165   0.43532   0.44020   0.44109   0.44496
 Alpha virt. eigenvalues --    0.44659   0.45232   0.45722   0.45954   0.46190
 Alpha virt. eigenvalues --    0.46626   0.46976   0.47046   0.47387   0.47786
 Alpha virt. eigenvalues --    0.48227   0.48296   0.48519   0.48920   0.49602
 Alpha virt. eigenvalues --    0.49931   0.50300   0.51829   0.52080   0.52845
 Alpha virt. eigenvalues --    0.53323   0.53922   0.54000   0.54571   0.55425
 Alpha virt. eigenvalues --    0.56203   0.56507   0.56817   0.57561   0.58082
 Alpha virt. eigenvalues --    0.58263   0.58625   0.59051   0.59613   0.59806
 Alpha virt. eigenvalues --    0.60030   0.60793   0.60856   0.61467   0.61516
 Alpha virt. eigenvalues --    0.62546   0.62670   0.63156   0.63272   0.63560
 Alpha virt. eigenvalues --    0.63794   0.64112   0.64286   0.64697   0.65044
 Alpha virt. eigenvalues --    0.65343   0.65433   0.65728   0.66034   0.66588
 Alpha virt. eigenvalues --    0.66673   0.67181   0.67524   0.67683   0.67916
 Alpha virt. eigenvalues --    0.68148   0.68916   0.69081   0.69178   0.69670
 Alpha virt. eigenvalues --    0.70099   0.70938   0.71003   0.71379   0.71579
 Alpha virt. eigenvalues --    0.71780   0.72004   0.72521   0.72745   0.73184
 Alpha virt. eigenvalues --    0.73529   0.74145   0.74752   0.74922   0.75352
 Alpha virt. eigenvalues --    0.75539   0.76150   0.76299   0.76976   0.77384
 Alpha virt. eigenvalues --    0.78084   0.78407   0.78673   0.79382   0.79588
 Alpha virt. eigenvalues --    0.79945   0.80480   0.80682   0.81471   0.82282
 Alpha virt. eigenvalues --    0.82597   0.82773   0.83394   0.84236   0.84519
 Alpha virt. eigenvalues --    0.84633   0.84787   0.84850   0.86440   0.86946
 Alpha virt. eigenvalues --    0.87028   0.87640   0.88126   0.88586   0.89090
 Alpha virt. eigenvalues --    0.90021   0.90294   0.91019   0.91352   0.92154
 Alpha virt. eigenvalues --    0.92781   0.93446   0.94095   0.94475   0.94600
 Alpha virt. eigenvalues --    0.95762   0.96058   0.97275   0.97541   0.97738
 Alpha virt. eigenvalues --    0.98143   0.99510   1.00126   1.01344   1.01779
 Alpha virt. eigenvalues --    1.01974   1.02676   1.03093   1.04065   1.04447
 Alpha virt. eigenvalues --    1.05066   1.05308   1.05321   1.05792   1.06205
 Alpha virt. eigenvalues --    1.06670   1.07562   1.08241   1.08704   1.09097
 Alpha virt. eigenvalues --    1.10572   1.11008   1.11591   1.12058   1.12329
 Alpha virt. eigenvalues --    1.12689   1.13978   1.14966   1.15271   1.15797
 Alpha virt. eigenvalues --    1.16543   1.16689   1.18133   1.18414   1.18871
 Alpha virt. eigenvalues --    1.19448   1.20022   1.20455   1.20619   1.20705
 Alpha virt. eigenvalues --    1.21365   1.21872   1.22048   1.22822   1.23646
 Alpha virt. eigenvalues --    1.23975   1.25194   1.25509   1.25872   1.26110
 Alpha virt. eigenvalues --    1.26365   1.26818   1.27589   1.27826   1.28134
 Alpha virt. eigenvalues --    1.28825   1.29434   1.30200   1.31060   1.31861
 Alpha virt. eigenvalues --    1.31946   1.32221   1.33161   1.34167   1.35098
 Alpha virt. eigenvalues --    1.35593   1.36139   1.37531   1.38139   1.38754
 Alpha virt. eigenvalues --    1.39277   1.39603   1.40172   1.40659   1.40878
 Alpha virt. eigenvalues --    1.41242   1.42193   1.44005   1.44981   1.45173
 Alpha virt. eigenvalues --    1.45434   1.46091   1.46438   1.47385   1.47560
 Alpha virt. eigenvalues --    1.47732   1.48566   1.49027   1.49206   1.50045
 Alpha virt. eigenvalues --    1.50348   1.50482   1.51156   1.51479   1.51855
 Alpha virt. eigenvalues --    1.51872   1.52664   1.52930   1.53236   1.54391
 Alpha virt. eigenvalues --    1.54594   1.55074   1.55886   1.56574   1.56788
 Alpha virt. eigenvalues --    1.57287   1.57733   1.58026   1.58504   1.59177
 Alpha virt. eigenvalues --    1.59233   1.59649   1.61440   1.61715   1.62022
 Alpha virt. eigenvalues --    1.62348   1.62822   1.63813   1.64040   1.64345
 Alpha virt. eigenvalues --    1.64635   1.65498   1.65708   1.66446   1.66989
 Alpha virt. eigenvalues --    1.67689   1.68023   1.68523   1.69501   1.70006
 Alpha virt. eigenvalues --    1.70482   1.70999   1.71601   1.72155   1.72194
 Alpha virt. eigenvalues --    1.72670   1.73151   1.73915   1.74217   1.74681
 Alpha virt. eigenvalues --    1.75162   1.75726   1.76062   1.77484   1.78702
 Alpha virt. eigenvalues --    1.78789   1.79762   1.80946   1.81953   1.82094
 Alpha virt. eigenvalues --    1.82891   1.83086   1.84082   1.84723   1.85429
 Alpha virt. eigenvalues --    1.85692   1.86129   1.86626   1.87272   1.87504
 Alpha virt. eigenvalues --    1.87826   1.88161   1.90207   1.90988   1.91775
 Alpha virt. eigenvalues --    1.92150   1.92762   1.93158   1.93954   1.94521
 Alpha virt. eigenvalues --    1.95496   1.95801   1.96506   1.97318   1.98442
 Alpha virt. eigenvalues --    1.99003   1.99389   1.99745   2.01962   2.02294
 Alpha virt. eigenvalues --    2.03246   2.03304   2.03691   2.04718   2.04992
 Alpha virt. eigenvalues --    2.05211   2.05925   2.06706   2.08011   2.08339
 Alpha virt. eigenvalues --    2.08655   2.08962   2.10145   2.10302   2.10803
 Alpha virt. eigenvalues --    2.11289   2.12246   2.12736   2.13340   2.13790
 Alpha virt. eigenvalues --    2.14314   2.14645   2.15306   2.15697   2.16415
 Alpha virt. eigenvalues --    2.17536   2.18692   2.19470   2.20024   2.20504
 Alpha virt. eigenvalues --    2.20897   2.21045   2.22346   2.22900   2.23146
 Alpha virt. eigenvalues --    2.23754   2.25058   2.26069   2.26512   2.26643
 Alpha virt. eigenvalues --    2.26789   2.28215   2.29095   2.29561   2.29894
 Alpha virt. eigenvalues --    2.31269   2.31753   2.33355   2.33679   2.33827
 Alpha virt. eigenvalues --    2.34693   2.36074   2.36406   2.37024   2.37971
 Alpha virt. eigenvalues --    2.39558   2.40294   2.40703   2.41162   2.42120
 Alpha virt. eigenvalues --    2.42875   2.44243   2.44865   2.45690   2.46253
 Alpha virt. eigenvalues --    2.47385   2.48103   2.48602   2.49440   2.50964
 Alpha virt. eigenvalues --    2.52117   2.52347   2.52738   2.53161   2.53278
 Alpha virt. eigenvalues --    2.53618   2.54116   2.54530   2.55618   2.56261
 Alpha virt. eigenvalues --    2.56773   2.57237   2.57552   2.57817   2.58522
 Alpha virt. eigenvalues --    2.58884   2.59666   2.59802   2.60185   2.60620
 Alpha virt. eigenvalues --    2.60902   2.61464   2.62373   2.62859   2.62997
 Alpha virt. eigenvalues --    2.63899   2.64494   2.64930   2.65207   2.65272
 Alpha virt. eigenvalues --    2.66228   2.66648   2.67007   2.67261   2.67777
 Alpha virt. eigenvalues --    2.67881   2.68294   2.68873   2.69019   2.69575
 Alpha virt. eigenvalues --    2.69798   2.70126   2.70696   2.71192   2.71864
 Alpha virt. eigenvalues --    2.72269   2.72530   2.73246   2.73646   2.74090
 Alpha virt. eigenvalues --    2.74438   2.74659   2.76235   2.76453   2.76561
 Alpha virt. eigenvalues --    2.76726   2.77570   2.77964   2.78253   2.78905
 Alpha virt. eigenvalues --    2.79227   2.79512   2.79888   2.80772   2.81188
 Alpha virt. eigenvalues --    2.81513   2.81946   2.82343   2.82557   2.82938
 Alpha virt. eigenvalues --    2.83728   2.84381   2.84596   2.85390   2.85859
 Alpha virt. eigenvalues --    2.86499   2.86740   2.86995   2.87755   2.87970
 Alpha virt. eigenvalues --    2.88032   2.89007   2.89301   2.89485   2.90147
 Alpha virt. eigenvalues --    2.90540   2.90787   2.91986   2.92581   2.93244
 Alpha virt. eigenvalues --    2.93621   2.94043   2.94572   2.94950   2.95757
 Alpha virt. eigenvalues --    2.96443   2.96827   2.97407   2.97556   2.97983
 Alpha virt. eigenvalues --    2.99215   3.00371   3.00682   3.01589   3.01938
 Alpha virt. eigenvalues --    3.02346   3.02353   3.03013   3.03533   3.04259
 Alpha virt. eigenvalues --    3.04768   3.05132   3.05923   3.06745   3.06856
 Alpha virt. eigenvalues --    3.07533   3.08336   3.08416   3.08923   3.09438
 Alpha virt. eigenvalues --    3.10081   3.10286   3.11078   3.11753   3.11950
 Alpha virt. eigenvalues --    3.12837   3.13428   3.13732   3.14013   3.14202
 Alpha virt. eigenvalues --    3.14677   3.15872   3.16396   3.16839   3.17042
 Alpha virt. eigenvalues --    3.17092   3.17682   3.18210   3.18744   3.18964
 Alpha virt. eigenvalues --    3.19617   3.21007   3.21048   3.21536   3.21767
 Alpha virt. eigenvalues --    3.22557   3.22973   3.23211   3.24334   3.24623
 Alpha virt. eigenvalues --    3.25731   3.26573   3.26934   3.27418   3.27792
 Alpha virt. eigenvalues --    3.28605   3.28909   3.29968   3.30174   3.30395
 Alpha virt. eigenvalues --    3.30571   3.31318   3.31658   3.31816   3.32248
 Alpha virt. eigenvalues --    3.32887   3.33070   3.33376   3.34435   3.34595
 Alpha virt. eigenvalues --    3.34913   3.35696   3.36061   3.36392   3.36749
 Alpha virt. eigenvalues --    3.36964   3.37101   3.37455   3.38080   3.39103
 Alpha virt. eigenvalues --    3.39271   3.39790   3.40646   3.40967   3.41283
 Alpha virt. eigenvalues --    3.41449   3.41945   3.42578   3.42932   3.43790
 Alpha virt. eigenvalues --    3.44392   3.44947   3.45253   3.46082   3.46460
 Alpha virt. eigenvalues --    3.46951   3.47606   3.47823   3.48001   3.48219
 Alpha virt. eigenvalues --    3.48410   3.49144   3.49724   3.50081   3.50464
 Alpha virt. eigenvalues --    3.51241   3.51429   3.51684   3.51889   3.52681
 Alpha virt. eigenvalues --    3.52981   3.53106   3.53763   3.54138   3.54662
 Alpha virt. eigenvalues --    3.54907   3.55237   3.55583   3.55937   3.56317
 Alpha virt. eigenvalues --    3.57524   3.58279   3.59152   3.59246   3.59742
 Alpha virt. eigenvalues --    3.60122   3.60425   3.61473   3.63763   3.64198
 Alpha virt. eigenvalues --    3.64818   3.65062   3.66742   3.67102   3.67911
 Alpha virt. eigenvalues --    3.68811   3.69292   3.70206   3.70619   3.71332
 Alpha virt. eigenvalues --    3.73463   3.74213   3.74885   3.76002   3.76649
 Alpha virt. eigenvalues --    3.77637   3.78706   3.80160   3.81812   3.82817
 Alpha virt. eigenvalues --    3.83092   3.83607   3.84104   3.84809   3.87081
 Alpha virt. eigenvalues --    3.87740   3.88206   3.90271   3.90472   3.91508
 Alpha virt. eigenvalues --    3.91899   3.94185   3.95610   3.95985   3.96334
 Alpha virt. eigenvalues --    3.96934   3.97137   3.98643   3.98769   3.99887
 Alpha virt. eigenvalues --    4.00592   4.01588   4.02088   4.03058   4.03395
 Alpha virt. eigenvalues --    4.04188   4.05078   4.06276   4.06683   4.07001
 Alpha virt. eigenvalues --    4.07626   4.07906   4.08704   4.10350   4.11518
 Alpha virt. eigenvalues --    4.12473   4.13066   4.13538   4.14288   4.14596
 Alpha virt. eigenvalues --    4.16123   4.16750   4.17109   4.17408   4.18077
 Alpha virt. eigenvalues --    4.19275   4.19477   4.20665   4.21049   4.21228
 Alpha virt. eigenvalues --    4.21880   4.22100   4.22468   4.23156   4.23575
 Alpha virt. eigenvalues --    4.23921   4.24530   4.25775   4.26528   4.27556
 Alpha virt. eigenvalues --    4.27739   4.27931   4.28794   4.29178   4.30201
 Alpha virt. eigenvalues --    4.31224   4.32798   4.32989   4.33784   4.34181
 Alpha virt. eigenvalues --    4.34901   4.35235   4.36930   4.38458   4.39795
 Alpha virt. eigenvalues --    4.40287   4.41858   4.42070   4.43755   4.45292
 Alpha virt. eigenvalues --    4.47100   4.48391   4.48710   4.49522   4.51332
 Alpha virt. eigenvalues --    4.53231   4.54807   4.55944   4.56648   4.57899
 Alpha virt. eigenvalues --    4.59753   4.61660   4.62357   4.62645   4.63620
 Alpha virt. eigenvalues --    4.65562   4.66288   4.68022   4.68971   4.71705
 Alpha virt. eigenvalues --    4.72683   4.73466   4.77581   4.79252   4.80406
 Alpha virt. eigenvalues --    4.80941   4.82462   4.83414   4.84658   4.85530
 Alpha virt. eigenvalues --    4.87026   4.88487   4.91538   4.92972   4.94208
 Alpha virt. eigenvalues --    4.95673   4.96448   4.97077   4.98194   4.99885
 Alpha virt. eigenvalues --    5.00380   5.02224   5.04719   5.07067   5.08028
 Alpha virt. eigenvalues --    5.11344   5.13761   5.14132   5.16855   5.19089
 Alpha virt. eigenvalues --    5.19778   5.23623   5.25252   5.25487   5.26810
 Alpha virt. eigenvalues --    5.26878   5.29086   5.32114   5.34071   5.34479
 Alpha virt. eigenvalues --    5.36567   5.40115   5.42063   5.47255   5.47558
 Alpha virt. eigenvalues --    5.49368   5.53452   5.53606   5.53966   5.55687
 Alpha virt. eigenvalues --    5.57641   5.64239   5.67951   5.70855   5.74726
 Alpha virt. eigenvalues --    5.78533   5.78895   5.80744   5.82520   5.92264
 Alpha virt. eigenvalues --    5.99678   5.99978   6.08466   6.21386   6.34500
 Alpha virt. eigenvalues --    6.42755   6.54236   6.59462   6.74341   6.83256
 Alpha virt. eigenvalues --    6.87567   6.90661   6.90878   6.91016   6.91386
 Alpha virt. eigenvalues --    6.91400   6.91765   6.92308   6.92682   7.01655
 Alpha virt. eigenvalues --    7.05884   7.07086   7.08439   7.09535   7.10165
 Alpha virt. eigenvalues --    7.14007   7.25584   7.27578   7.27658   7.30602
 Alpha virt. eigenvalues --    7.38765   7.40070   7.40511   8.29055   8.32896
 Alpha virt. eigenvalues --    8.33023   8.46126   8.46596   8.51448   8.78537
 Alpha virt. eigenvalues --    8.78754   8.81426   8.81779   8.85581   8.85750
 Alpha virt. eigenvalues --    8.86522   8.91411   8.93191  15.63892  22.15894
 Alpha virt. eigenvalues --   22.28526  22.30157  22.37634  22.40315  22.56554
 Alpha virt. eigenvalues --   22.57214  22.58748  22.59554  22.60572  22.62672
 Alpha virt. eigenvalues --   22.66172  22.67470  22.70985  22.71561  22.77992
 Alpha virt. eigenvalues --   22.83557  22.85579  22.87611  22.93238  23.02016
 Alpha virt. eigenvalues --   23.08651  23.22630  23.26957  23.32007  23.63848
 Alpha virt. eigenvalues --   33.26426  44.16334  56.98202  57.06294  57.11610
          Condensed to atoms (all electrons):
 Mulliken charges:
               1
     1  C   -0.107186
     2  C   -0.180447
     3  C    0.108255
     4  C    0.081913
     5  C   -0.215123
     6  C   -0.133021
     7  C    0.283351
     8  C    0.081175
     9  C    0.107802
    10  C   -0.180625
    11  H    0.169182
    12  C   -0.107244
    13  C   -0.132567
    14  C   -0.214036
    15  H    0.154913
    16  H    0.169222
    17  H    0.178868
    18  H    0.151360
    19  H    0.154904
    20  H    0.151399
    21  H    0.178438
    22  N    0.253069
    23  C    0.051498
    24  C   -0.273968
    25  C   -0.270589
    26  C   -0.227282
    27  C   -0.231170
    28  C    0.065960
    29  H    0.120353
    30  H    0.154447
    31  C   -0.062114
    32  C   -0.171814
    33  C   -0.145848
    34  C   -0.238056
    35  H    0.141213
    36  C   -0.198305
    37  H    0.136340
    38  C    0.343768
    39  H    0.156203
    40  H    0.127729
    41  O   -0.229070
    42  C   -0.238805
    43  H    0.161154
    44  H    0.147378
    45  H    0.147382
    46  H    0.121032
    47  B    0.526191
    48  F   -0.408819
    49  F   -0.402663
    50  F   -0.408499
    51  H    0.152754
 Sum of Mulliken charges =  -0.00000
 Mulliken charges with hydrogens summed into heavy atoms:
               1
     1  C    0.047726
     2  C   -0.011225
     3  C    0.108255
     4  C    0.081913
     5  C   -0.036255
     6  C    0.018339
     7  C    0.283351
     8  C    0.081175
     9  C    0.107802
    10  C   -0.011444
    12  C    0.047660
    13  C    0.018833
    14  C   -0.035598
    22  N    0.253069
    23  C    0.051498
    24  C   -0.121214
    25  C   -0.116142
    26  C   -0.106250
    27  C   -0.110817
    28  C    0.065960
    31  C   -0.062114
    32  C   -0.030601
    33  C   -0.009508
    34  C   -0.081853
    36  C   -0.070576
    38  C    0.343768
    41  O   -0.229070
    42  C    0.217108
    47  B    0.526191
    48  F   -0.408819
    49  F   -0.402663
    50  F   -0.408499
 Electronic spatial extent (au):  <R**2>=          19280.6783
 Charge=             -0.0000 electrons
 Dipole moment (field-independent basis, Debye):
    X=             36.8092    Y=              0.2285    Z=             -1.1252  Tot=             36.8271
 Quadrupole moment (field-independent basis, Debye-Ang):
   XX=           -329.3423   YY=           -152.5053   ZZ=           -179.3687
[...]
 Alpha virt. eigenvalues --    0.53364   0.53559   0.54087   0.54444   0.55044
 Alpha virt. eigenvalues --    0.55634   0.56564   0.56887   0.57496   0.57879
 Alpha virt. eigenvalues --    0.58053   0.58403   0.59254   0.59534   0.59688
 Alpha virt. eigenvalues --    0.59870   0.60521   0.60820   0.61566   0.62056
 Alpha virt. eigenvalues --    0.62434   0.62654   0.63031   0.63418   0.63510
 Alpha virt. eigenvalues --    0.63780   0.63962   0.64171   0.64693   0.64865
 Alpha virt. eigenvalues --    0.65240   0.65486   0.65558   0.65849   0.66124
 Alpha virt. eigenvalues --    0.66969   0.67246   0.67348   0.67788   0.68077
 Alpha virt. eigenvalues --    0.68453   0.68800   0.69078   0.69253   0.69704
 Alpha virt. eigenvalues --    0.70303   0.70665   0.71175   0.71559   0.71729
 Alpha virt. eigenvalues --    0.71890   0.72358   0.72585   0.72716   0.73246
 Alpha virt. eigenvalues --    0.73456   0.74124   0.74335   0.74753   0.75212
 Alpha virt. eigenvalues --    0.75325   0.76026   0.76703   0.76791   0.77647
 Alpha virt. eigenvalues --    0.78102   0.78463   0.78769   0.79442   0.79862
 Alpha virt. eigenvalues --    0.80004   0.80404   0.80621   0.81481   0.81874
 Alpha virt. eigenvalues --    0.82253   0.83069   0.83357   0.84005   0.84258
 Alpha virt. eigenvalues --    0.84423   0.84801   0.85229   0.86098   0.86784
 Alpha virt. eigenvalues --    0.87014   0.87401   0.87794   0.88437   0.88941
 Alpha virt. eigenvalues --    0.89976   0.90308   0.91310   0.91700   0.92113
 Alpha virt. eigenvalues --    0.92571   0.93794   0.93929   0.94215   0.94882
 Alpha virt. eigenvalues --    0.95810   0.96185   0.96837   0.97497   0.98027
 Alpha virt. eigenvalues --    0.98562   0.99669   1.00012   1.01354   1.01708
 Alpha virt. eigenvalues --    1.02305   1.03063   1.03615   1.03956   1.04325
 Alpha virt. eigenvalues --    1.05008   1.05321   1.05496   1.05668   1.06201
 Alpha virt. eigenvalues --    1.06694   1.07746   1.08159   1.08354   1.09184
 Alpha virt. eigenvalues --    1.10218   1.10855   1.11548   1.11854   1.12426
 Alpha virt. eigenvalues --    1.12835   1.13884   1.14458   1.14849   1.15398
 Alpha virt. eigenvalues --    1.16276   1.16916   1.18253   1.18500   1.19064
 Alpha virt. eigenvalues --    1.19645   1.20261   1.20379   1.20721   1.20946
 Alpha virt. eigenvalues --    1.21464   1.21820   1.22049   1.22778   1.23449
 Alpha virt. eigenvalues --    1.23679   1.25161   1.25483   1.25553   1.25969
 Alpha virt. eigenvalues --    1.26099   1.27162   1.27581   1.27845   1.28339
 Alpha virt. eigenvalues --    1.28823   1.29773   1.30512   1.31291   1.31380
 Alpha virt. eigenvalues --    1.32744   1.32967   1.33379   1.34248   1.35033
 Alpha virt. eigenvalues --    1.35508   1.36710   1.37105   1.37744   1.38759
 Alpha virt. eigenvalues --    1.39147   1.39497   1.40169   1.40385   1.40512
 Alpha virt. eigenvalues --    1.41130   1.41955   1.43757   1.44929   1.45203
 Alpha virt. eigenvalues --    1.45940   1.46127   1.46386   1.47522   1.47694
 Alpha virt. eigenvalues --    1.48354   1.48589   1.49104   1.49471   1.50000
 Alpha virt. eigenvalues --    1.50145   1.50549   1.51310   1.51472   1.51873
 Alpha virt. eigenvalues --    1.52246   1.52789   1.53232   1.53569   1.54025
 Alpha virt. eigenvalues --    1.54432   1.55042   1.55970   1.56122   1.56456
 Alpha virt. eigenvalues --    1.57015   1.57250   1.57719   1.57937   1.59039
 Alpha virt. eigenvalues --    1.59489   1.59785   1.61098   1.61602   1.61932
 Alpha virt. eigenvalues --    1.62239   1.62838   1.63031   1.63500   1.63957
 Alpha virt. eigenvalues --    1.64451   1.64928   1.65838   1.66675   1.66922
 Alpha virt. eigenvalues --    1.67535   1.67830   1.68439   1.69381   1.69558
 Alpha virt. eigenvalues --    1.69942   1.70544   1.70720   1.71497   1.72155
 Alpha virt. eigenvalues --    1.72811   1.72914   1.73858   1.74157   1.74480
 Alpha virt. eigenvalues --    1.74777   1.75255   1.75937   1.77108   1.78089
 Alpha virt. eigenvalues --    1.78534   1.79518   1.80251   1.81368   1.82351
 Alpha virt. eigenvalues --    1.82621   1.83328   1.84164   1.84803   1.85236
 Alpha virt. eigenvalues --    1.85506   1.86151   1.86662   1.87329   1.87400
 Alpha virt. eigenvalues --    1.87853   1.88669   1.90349   1.90808   1.91218
 Alpha virt. eigenvalues --    1.92033   1.92545   1.92947   1.94013   1.94214
 Alpha virt. eigenvalues --    1.95058   1.96300   1.96665   1.97540   1.98714
 Alpha virt. eigenvalues --    1.99594   1.99848   2.00761   2.02455   2.02907
 Alpha virt. eigenvalues --    2.03306   2.03642   2.03898   2.03954   2.04888
 Alpha virt. eigenvalues --    2.05363   2.06008   2.06540   2.07566   2.08283
 Alpha virt. eigenvalues --    2.08341   2.09103   2.09535   2.09834   2.10510
 Alpha virt. eigenvalues --    2.11117   2.11555   2.13008   2.13242   2.13715
 Alpha virt. eigenvalues --    2.14425   2.14571   2.15077   2.15579   2.17389
 Alpha virt. eigenvalues --    2.18137   2.18484   2.19901   2.20337   2.20913
 Alpha virt. eigenvalues --    2.21111   2.21133   2.23007   2.23164   2.23919
 Alpha virt. eigenvalues --    2.24605   2.25330   2.25747   2.25975   2.26662
 Alpha virt. eigenvalues --    2.26784   2.27869   2.28738   2.29038   2.29529
 Alpha virt. eigenvalues --    2.30523   2.32190   2.33618   2.33801   2.34155
 Alpha virt. eigenvalues --    2.34945   2.35290   2.36093   2.37322   2.38084
 Alpha virt. eigenvalues --    2.39842   2.39895   2.40182   2.40607   2.42102
 Alpha virt. eigenvalues --    2.43503   2.44639   2.45130   2.46193   2.47055
 Alpha virt. eigenvalues --    2.47749   2.47969   2.49230   2.49535   2.50710
 Alpha virt. eigenvalues --    2.51646   2.52378   2.53118   2.53339   2.53506
 Alpha virt. eigenvalues --    2.54028   2.54731   2.54949   2.55652   2.56286
 Alpha virt. eigenvalues --    2.56589   2.57267   2.57556   2.57821   2.58121
 Alpha virt. eigenvalues --    2.58485   2.59161   2.59627   2.60091   2.60499
 Alpha virt. eigenvalues --    2.61292   2.62207   2.62417   2.63041   2.63391
 Alpha virt. eigenvalues --    2.63786   2.64094   2.64686   2.64954   2.65247
 Alpha virt. eigenvalues --    2.66198   2.66599   2.67001   2.67319   2.67673
 Alpha virt. eigenvalues --    2.67873   2.68566   2.68728   2.68824   2.69139
 Alpha virt. eigenvalues --    2.69203   2.69857   2.70349   2.71195   2.71436
 Alpha virt. eigenvalues --    2.72219   2.72552   2.73553   2.73647   2.73711
 Alpha virt. eigenvalues --    2.74248   2.74605   2.75405   2.75929   2.76416
 Alpha virt. eigenvalues --    2.76807   2.77082   2.77311   2.78326   2.78586
 Alpha virt. eigenvalues --    2.78864   2.79146   2.79936   2.80562   2.80719
 Alpha virt. eigenvalues --    2.81056   2.81351   2.82218   2.82657   2.83310
 Alpha virt. eigenvalues --    2.83754   2.84360   2.84673   2.85197   2.85913
 Alpha virt. eigenvalues --    2.86195   2.86675   2.86942   2.87103   2.88108
 Alpha virt. eigenvalues --    2.88269   2.88587   2.88992   2.89649   2.90281
 Alpha virt. eigenvalues --    2.90655   2.90976   2.91436   2.92134   2.92617
 Alpha virt. eigenvalues --    2.93238   2.93790   2.94361   2.95004   2.95919
 Alpha virt. eigenvalues --    2.96113   2.96633   2.96971   2.97526   2.98132
 Alpha virt. eigenvalues --    2.98984   3.00096   3.00470   3.01264   3.01889
 Alpha virt. eigenvalues --    3.02188   3.02361   3.02834   3.03984   3.04339
 Alpha virt. eigenvalues --    3.04462   3.05455   3.05780   3.06332   3.06804
 Alpha virt. eigenvalues --    3.07405   3.08269   3.08870   3.09334   3.09954
 Alpha virt. eigenvalues --    3.10186   3.10502   3.10904   3.11606   3.11988
 Alpha virt. eigenvalues --    3.12557   3.12721   3.13535   3.13808   3.14268
 Alpha virt. eigenvalues --    3.14947   3.15871   3.16307   3.16842   3.16967
 Alpha virt. eigenvalues --    3.17522   3.17907   3.18269   3.18510   3.19022
 Alpha virt. eigenvalues --    3.19682   3.20484   3.21374   3.22057   3.22398
 Alpha virt. eigenvalues --    3.22658   3.22814   3.23870   3.24325   3.24518
 Alpha virt. eigenvalues --    3.25423   3.26272   3.26893   3.27205   3.27800
 Alpha virt. eigenvalues --    3.27974   3.28627   3.29190   3.29603   3.30389
 Alpha virt. eigenvalues --    3.31007   3.31659   3.32043   3.32403   3.32496
 Alpha virt. eigenvalues --    3.32730   3.33234   3.33454   3.34390   3.34579
 Alpha virt. eigenvalues --    3.35209   3.35685   3.35921   3.36150   3.36533
 Alpha virt. eigenvalues --    3.37018   3.37251   3.37856   3.38257   3.39005
 Alpha virt. eigenvalues --    3.39557   3.39872   3.40336   3.40612   3.40877
 Alpha virt. eigenvalues --    3.41357   3.41925   3.42383   3.42951   3.43649
 Alpha virt. eigenvalues --    3.44049   3.44404   3.45342   3.46059   3.46289
 Alpha virt. eigenvalues --    3.46753   3.47213   3.47357   3.47826   3.47987
 Alpha virt. eigenvalues --    3.48260   3.48726   3.49299   3.49639   3.50423
 Alpha virt. eigenvalues --    3.50660   3.50977   3.51176   3.51691   3.51955
 Alpha virt. eigenvalues --    3.52732   3.53081   3.54056   3.54187   3.54481
 Alpha virt. eigenvalues --    3.54699   3.54869   3.55373   3.56029   3.56504
 Alpha virt. eigenvalues --    3.57044   3.57587   3.58095   3.58586   3.59531
 Alpha virt. eigenvalues --    3.60024   3.60206   3.61207   3.61913   3.63278
 Alpha virt. eigenvalues --    3.64377   3.65240   3.65500   3.66702   3.67534
 Alpha virt. eigenvalues --    3.67659   3.68386   3.69528   3.70452   3.71338
 Alpha virt. eigenvalues --    3.73218   3.74034   3.74868   3.75289   3.76784
 Alpha virt. eigenvalues --    3.77770   3.79043   3.79312   3.81415   3.82301
 Alpha virt. eigenvalues --    3.82910   3.83281   3.84009   3.85670   3.86822
 Alpha virt. eigenvalues --    3.87382   3.88392   3.89909   3.90847   3.91450
 Alpha virt. eigenvalues --    3.92114   3.93775   3.95354   3.96169   3.96429
 Alpha virt. eigenvalues --    3.96948   3.97238   3.98852   3.99091   3.99849
 Alpha virt. eigenvalues --    4.01097   4.01318   4.02526   4.02924   4.03489
 Alpha virt. eigenvalues --    4.04314   4.05376   4.06355   4.06748   4.06978
 Alpha virt. eigenvalues --    4.07835   4.08283   4.09225   4.09710   4.11248
 Alpha virt. eigenvalues --    4.12469   4.13436   4.13699   4.14021   4.15628
 Alpha virt. eigenvalues --    4.16161   4.16743   4.17344   4.17907   4.18535
 Alpha virt. eigenvalues --    4.19999   4.20115   4.20502   4.20946   4.21528
 Alpha virt. eigenvalues --    4.21634   4.22213   4.22499   4.22693   4.23703
 Alpha virt. eigenvalues --    4.24518   4.25205   4.25540   4.26916   4.27411
 Alpha virt. eigenvalues --    4.27534   4.28112   4.28444   4.29036   4.29919
 Alpha virt. eigenvalues --    4.31059   4.31709   4.32435   4.33380   4.33945
 Alpha virt. eigenvalues --    4.34297   4.35097   4.37355   4.39357   4.41016
 Alpha virt. eigenvalues --    4.41330   4.42729   4.43371   4.45187   4.45688
 Alpha virt. eigenvalues --    4.47009   4.47879   4.49377   4.49510   4.52354
 Alpha virt. eigenvalues --    4.54986   4.55439   4.55989   4.57370   4.57797
 Alpha virt. eigenvalues --    4.59483   4.61314   4.62720   4.62981   4.64061
 Alpha virt. eigenvalues --    4.65916   4.66427   4.67705   4.68745   4.71734
 Alpha virt. eigenvalues --    4.72353   4.73231   4.77304   4.79728   4.80839
 Alpha virt. eigenvalues --    4.81447   4.83228   4.83762   4.85091   4.86065
 Alpha virt. eigenvalues --    4.86428   4.89299   4.91387   4.93696   4.94053
 Alpha virt. eigenvalues --    4.95304   4.96468   4.97317   4.97743   4.99393
 Alpha virt. eigenvalues --    5.00346   5.02068   5.04416   5.07678   5.08914
 Alpha virt. eigenvalues --    5.12791   5.14818   5.15645   5.16920   5.19694
 Alpha virt. eigenvalues --    5.21273   5.23067   5.25271   5.25845   5.26052
 Alpha virt. eigenvalues --    5.28087   5.30120   5.32331   5.33112   5.33604
 Alpha virt. eigenvalues --    5.37496   5.41758   5.43406   5.45782   5.46243
 Alpha virt. eigenvalues --    5.49120   5.52945   5.55251   5.55746   5.56122
 Alpha virt. eigenvalues --    5.58118   5.66144   5.68440   5.71482   5.72386
 Alpha virt. eigenvalues --    5.76821   5.78325   5.80961   5.83448   5.87320
 Alpha virt. eigenvalues --    5.96939   6.00841   6.07681   6.21003   6.31812
 Alpha virt. eigenvalues --    6.42828   6.49528   6.59218   6.74611   6.81331
 Alpha virt. eigenvalues --    6.88383   6.91085   6.91389   6.91584   6.91664
 Alpha virt. eigenvalues --    6.91747   6.92085   6.92184   6.93005   7.01107
 Alpha virt. eigenvalues --    7.02872   7.03785   7.07947   7.09131   7.09307
 Alpha virt. eigenvalues --    7.12806   7.22914   7.25454   7.26414   7.29010
 Alpha virt. eigenvalues --    7.37792   7.38705   7.38721   8.29922   8.31917
 Alpha virt. eigenvalues --    8.32199   8.45650   8.45797   8.52016   8.72831
 Alpha virt. eigenvalues --    8.74614   8.75337   8.78909   8.82294   8.86108
 Alpha virt. eigenvalues --    8.86581   8.91473   8.93171  15.45726  22.18044
 Alpha virt. eigenvalues --   22.25577  22.27910  22.37089  22.42678  22.57467
 Alpha virt. eigenvalues --   22.57977  22.59717  22.60544  22.62204  22.64765
 Alpha virt. eigenvalues --   22.65644  22.68206  22.71740  22.73998  22.77867
 Alpha virt. eigenvalues --   22.85717  22.86013  22.88105  22.94079  23.04624
 Alpha virt. eigenvalues --   23.11513  23.23359  23.26126  23.33807  23.66428
 Alpha virt. eigenvalues --   33.26002  44.13882  56.96106  57.02786  57.05231
          Condensed to atoms (all electrons):
 Mulliken charges:
               1
     1  C   -0.102276
     2  C   -0.179093
     3  C    0.106110
     4  C    0.096330
     5  C   -0.206940
     6  C   -0.124935
     7  C    0.272906
     8  C    0.095347
     9  C    0.106914
    10  C   -0.179397
    11  H    0.168141
    12  C   -0.102174
    13  C   -0.124567
    14  C   -0.205982
    15  H    0.155600
    16  H    0.168330
    17  H    0.171517
    18  H    0.151364
    19  H    0.155596
    20  H    0.151401
    21  H    0.171260
    22  N    0.262149
    23  C   -0.005569
    24  C   -0.240725
    25  C   -0.238740
    26  C   -0.227312
    27  C   -0.230101
    28  C    0.079591
    29  H    0.120841
    30  H    0.136918
    31  C   -0.054647
    32  C   -0.176257
    33  C   -0.146103
    34  C   -0.231964
    35  H    0.142502
    36  C   -0.200700
    37  H    0.138009
    38  C    0.343728
    39  H    0.156304
    40  H    0.128610
    41  O   -0.239749
    42  C   -0.239019
    43  H    0.161585
    44  H    0.152112
    45  H    0.152055
    46  H    0.121415
    47  B    0.517221
    48  F   -0.422382
    49  F   -0.418798
    50  F   -0.422785
    51  H    0.136356
 Sum of Mulliken charges =  -0.00000
 Mulliken charges with hydrogens summed into heavy atoms:
               1
     1  C    0.053324
     2  C   -0.010763
     3  C    0.106110
     4  C    0.096330
     5  C   -0.035423
     6  C    0.026430
     7  C    0.272906
     8  C    0.095347
     9  C    0.106914
    10  C   -0.011256
    12  C    0.053422
    13  C    0.026834
    14  C   -0.034722
    22  N    0.262149
    23  C   -0.005569
    24  C   -0.104369
    25  C   -0.101822
    26  C   -0.105896
    27  C   -0.109259
    28  C    0.079591
    31  C   -0.054647
    32  C   -0.033755
    33  C   -0.008094
    34  C   -0.075661
    36  C   -0.072090
    38  C    0.343728
    41  O   -0.239749
    42  C    0.226733
    47  B    0.517221
    48  F   -0.422382
    49  F   -0.418798
    50  F   -0.422785
 Electronic spatial extent (au):  <R**2>=          19404.1154
 Charge=             -0.0000 electrons
 Dipole moment (field-independent basis, Debye):
    X=            -39.2606    Y=              0.1326    Z=              1.0346  Tot=             39.2744
 Quadrupole moment (field-independent basis, Debye-Ang):
   XX=           -346.7547   YY=           -152.4338   ZZ=           -177.8275
   XY=              0.7940   XZ=            -16.2969   YZ=             -1.8431
 Traceless Quadrupole moment (field-independent basis, Debye-Ang):
   XX=           -121.0827   YY=             73.2382   ZZ=             47.8445
   XY=              0.7940   XZ=            -16.2969   YZ=             -1.8431
 Octapole moment (field-independent basis, Debye-Ang**2):
  XXX=          -2043.5888  YYY=              0.8869  ZZZ=             -3.6946  XYY=            -33.9244
  XXY=              5.8270  XXZ=             92.6154  XZZ=            -44.2746  YZZ=             -1.0310
  YYZ=              2.4855  XYZ=            -11.8545
 Hexadecapole moment (field-independent basis, Debye-Ang**3):
 XXXX=         -29749.7891 YYYY=          -2570.7027 ZZZZ=           -742.3700 XXXY=             34.6936
 XXXZ=          -1081.5416 YYYX=              1.3831 YYYZ=             36.8612 ZZZX=            -29.1039
 ZZZY=            -22.3431 XXYY=          -4197.2831 XXZZ=          -3563.7667 YYZZ=           -733.9472
 XXYZ=            -51.6216 YYXZ=             20.7560 ZZXY=             -3.8327
 N-N= 2.918826305312D+03 E-N=-9.240465113423D+03  KE= 1.451081418862D+03
 Leave Link  601 at Tue Mar 30 20:59:53 2021, MaxMem=  5242880000 cpu:         6.0
 (Enter /opt/nce/packages/global/g09/l9999.exe)
 1\1\GINC-CN007\SP\RTPSSTPSS TD-FC\Gen\C26H19B1F3N1O1\PNG4RJV\30-Mar-20
 21\0\\#p TPSSTPSS chkbasis geom=allcheck Guess=Read int=ultrafine scrf
 =(SMD,solvent=Acetonitrile) td=(NStates=30)\\Title\\0,1\C,0,1.33880644
 33,3.619965199,-0.1144699035\C,0,2.0094108789,2.4212694323,-0.00960532
 45\C,0,1.2840631711,1.2081309251,0.0210631747\C,0,-0.1503983298,1.2304
 844629,-0.0297233464\C,0,-0.7941227508,2.495387439,-0.1708902594\C,0,-
 0.0714220838,3.6617058768,-0.2095113838\C,0,-0.878340798,0.0158924334,
 0.0274447339\C,0,-0.1654839688,-1.2056506059,0.1176436742\C,0,1.269969
 876,-1.1971813044,0.1278498477\C,0,1.9815800125,-2.4171411621,0.191685
 653\H,0,3.0644777959,-2.4095383182,0.1825621512\C,0,1.2955697833,-3.60
 9107246,0.2699480234\C,0,-0.1177837433,-3.6371602326,0.3041766731\C,0,
 -0.8269344829,-2.4640926568,0.2325724957\H,0,1.9079354465,4.5448309994
 ,-0.1376306602\H,0,3.0907474626,2.4034531891,0.046096564\H,0,-1.874091
 3489,2.519006473,-0.2569368919\H,0,-0.5781685695,4.6154589369,-0.31969
 94081\H,0,1.8541998209,-4.539319663,0.3196470347\H,0,-0.6379343872,-4.
 5858040025,0.3940488117\H,0,-1.9098212058,-2.4774148803,0.2720966524\N
 ,0,1.9465897187,0.0021117455,0.0870806636\C,0,-2.3594734815,0.02198748
 ,-0.0083215963\C,0,-3.053042403,-0.6052699454,-1.0576324889\C,0,-3.101
 1405475,0.6562423302,1.0029046629\C,0,-4.4464819265,-0.5806640564,-1.0
 919235624\C,0,-4.4949372194,0.6441036559,0.9643309361\C,0,-5.209873928
 2,0.034386599,-0.0825620258\H,0,-5.0394543739,1.1309888617,1.771262745
 9\H,0,-2.5813896268,1.1379709196,1.8274753658\C,0,3.4042569518,-0.0043
 698485,0.1160221706\C,0,4.1145839141,-0.0351837464,-1.0795779918\C,0,4
 .0680831532,0.0227953645,1.3448883203\C,0,5.5100561275,-0.03884978,-1.
 0594556001\H,0,3.5847256148,-0.0561674426,-2.0274457914\C,0,5.45591958
 23,0.019537013,1.371085634\H,0,3.5010664435,0.0468278157,2.270783889\C
 ,0,6.1855914301,-0.0108846213,0.1698094246\H,0,6.0543772377,-0.0631028
 802,-1.9966298385\H,0,5.9911141533,0.04079967,2.3158045157\O,0,7.53976
 41876,-0.0107366973,0.2987357888\C,0,8.3289005428,-0.0363384198,-0.908
 9707118\H,0,9.3664587813,-0.0303651441,-0.5729069246\H,0,8.1284893461,
 -0.9464813944,-1.4848596307\H,0,8.1299290196,0.8498693163,-1.521570068
 \H,0,-4.9518005889,-1.0543125697,-1.9316634259\B,0,-6.833314385,0.0049
 646517,-0.1071656487\F,0,-7.3930888638,1.122990685,0.587585239\F,0,-7.
 3346417771,-1.1850806883,0.5226198978\F,0,-7.3394114564,0.0220076809,-
 1.4454507088\H,0,-2.4950326488,-1.0881228495,-1.8561295521\\Version=ES
 64L-G09RevE.01\State=1-A\HF=-1457.5539533\RMSD=4.424e-09\PG=C01 [X(C26
 H19B1F3N1O1)]\\@


 Change starts when someone sees the next step.
                            -- William Drayton
 Job cpu time:       2 days 11 hours 31 minutes 56.8 seconds.
 File lengths (MBytes):  RWF=   4985 Int=      0 D2E=      0 Chk=   1099 Scr=      1
 Normal termination of Gaussian 09 at Tue Mar 30 20:59:55 2021.
