 Entering Gaussian System, Link 0=g09
 Input=/home/png4rjv/fotokatalizis/benchmark/OPCs/BF3-Acr_p_PBE-D3_def2TZVP.gjf
 Output=/home/png4rjv/fotokatalizis/benchmark/OPCs/BF3-Acr_p_PBE-D3_def2TZVP.log
 Initial command:
 /opt/nce/packages/global/g09/l1.exe "/home/png4rjv/fotokatalizis/benchmark/OPCs/BF3-Acr_p_PBE-D3_def2TZVP/Gau-65287.inp" -scrdir="/home/png4rjv/fotokatalizis/benchmark/OPCs/BF3-Acr_p_PBE-D3_def2TZVP/"
 Default is to use a total of  12 processors:
                               12 via shared-memory
                                1 via Linda
 Entering Link 1 = /opt/nce/packages/global/g09/l1.exe PID=     65288.
  
 Copyright (c) 1988,1990,1992,1993,1995,1998,2003,2009,2015,
            Gaussian, Inc.  All Rights Reserved.
  
 This is part of the Gaussian(R) 09 program.  It is based on
 the Gaussian(R) 03 system (copyright 2003, Gaussian, Inc.),
 the Gaussian(R) 98 system (copyright 1998, Gaussian, Inc.),
 the Gaussian(R) 94 system (copyright 1995, Gaussian, Inc.),
 the Gaussian 92(TM) system (copyright 1992, Gaussian, Inc.),
 the Gaussian 90(TM) system (copyright 1990, Gaussian, Inc.),
 the Gaussian 88(TM) system (copyright 1988, Gaussian, Inc.),
 the Gaussian 86(TM) system (copyright 1986, Carnegie Mellon
 University), and the Gaussian 82(TM) system (copyright 1983,
 Carnegie Mellon University). Gaussian is a federally registered
 trademark of Gaussian, Inc.
  
 This software contains proprietary and confidential information,
 including trade secrets, belonging to Gaussian, Inc.
  
 This software is provided under written license and may be
 used, copied, transmitted, or stored only in accord with that
 written license.
  
 The following legend is applicable only to US Government
 contracts under FAR:
  
                    RESTRICTED RIGHTS LEGEND
  
 Use, reproduction and disclosure by the US Government is
 subject to restrictions as set forth in subparagraphs (a)
 and (c) of the Commercial Computer Software - Restricted
 Rights clause in FAR 52.227-19.
  
 Gaussian, Inc.
 340 Quinnipiac St., Bldg. 40, Wallingford CT 06492
  
  
 ---------------------------------------------------------------
 Warning -- This program may not be used in any manner that
 competes with the business of Gaussian, Inc. or will provide
 assistance to any competitor of Gaussian, Inc.  The licensee
 of this program is prohibited from giving any competitor of
 Gaussian, Inc. access to this program.  By using this program,
 the user acknowledges that Gaussian, Inc. is engaged in the
 business of creating and licensing software in the field of
 computational chemistry and represents and warrants to the
 licensee that it is not a competitor of Gaussian, Inc. and that
 it will not use this program in any manner prohibited above.
 ---------------------------------------------------------------
  

 Cite this work as:
 Gaussian 09, Revision E.01,
 M. J. Frisch, G. W. Trucks, H. B. Schlegel, G. E. Scuseria, 
 M. A. Robb, J. R. Cheeseman, G. Scalmani, V. Barone, B. Mennucci, 
 G. A. Petersson, H. Nakatsuji, M. Caricato, X. Li, H. P. Hratchian, 
 A. F. Izmaylov, J. Bloino, G. Zheng, J. L. Sonnenberg, M. Hada, 
 M. Ehara, K. Toyota, R. Fukuda, J. Hasegawa, M. Ishida, T. Nakajima, 
 Y. Honda, O. Kitao, H. Nakai, T. Vreven, J. A. Montgomery, Jr., 
 J. E. Peralta, F. Ogliaro, M. Bearpark, J. J. Heyd, E. Brothers, 
 K. N. Kudin, V. N. Staroverov, T. Keith, R. Kobayashi, J. Normand, 
 K. Raghavachari, A. Rendell, J. C. Burant, S. S. Iyengar, J. Tomasi, 
 M. Cossi, N. Rega, J. M. Millam, M. Klene, J. E. Knox, J. B. Cross, 
 V. Bakken, C. Adamo, J. Jaramillo, R. Gomperts, R. E. Stratmann, 
 O. Yazyev, A. J. Austin, R. Cammi, C. Pomelli, J. W. Ochterski, 
 R. L. Martin, K. Morokuma, V. G. Zakrzewski, G. A. Voth, 
 P. Salvador, J. J. Dannenberg, S. Dapprich, A. D. Daniels, 
 O. Farkas, J. B. Foresman, J. V. Ortiz, J. Cioslowski, 
 and D. J. Fox, Gaussian, Inc., Wallingford CT, 2013.
 
 ******************************************
 Gaussian 09:  ES64L-G09RevE.01 30-Nov-2015
                26-Mar-2021 
 ******************************************
 %chk=cp.chk
 Default route:  MaxDisk=500GB
 ----------------------------------------------------------------------
 #p PBEPBE/def2TZVP opt freq=noraman nosymm int=ultrafine scrf=(SMD,sol
 vent=Acetonitrile) EmpiricalDispersion=GD3BJ
 ----------------------------------------------------------------------
 1/14=-1,18=20,19=15,26=4,38=1/1,3;
 2/9=110,12=2,15=1,17=6,18=5,40=1/2;
 3/5=44,7=101,11=2,16=1,25=1,30=1,70=32201,71=1,72=2,74=1009,75=-5,124=41/1,2,3;
 4//1;
 5/5=2,38=5,53=2/2;
 6/7=2,8=2,9=2,10=2,28=1/1;
 7/30=1/1,2,3,16;
 1/14=-1,18=20,19=15,26=4/3(2);
 2/9=110,15=1/2;
 99//99;
 2/9=110,15=1/2;
 3/5=44,7=101,11=2,16=1,25=1,30=1,70=32205,71=1,72=2,74=1009,75=-5,124=41/1,2,3;
 4/5=5,16=3,69=1/1;
 5/5=2,38=5,53=2/2;
 7/30=1/1,2,3,16;
 1/14=-1,18=20,19=15,26=4/3(-5);
 2/9=110,15=1/2;
 6/7=2,8=2,9=2,10=2,19=2,28=1/1;
 99/9=1/99;
 Leave Link    1 at Fri Mar 26 23:18:51 2021, MaxMem=           0 cpu:         1.7
 (Enter /opt/nce/packages/global/g09/l101.exe)
 -----
 Title
 -----
 Symbolic Z-matrix:
 Charge =  0 Multiplicity = 1
 C                     1.34428   3.63579  -0.02725 
 C                     2.00697   2.42717   0.06868 
 C                     1.27679   1.21484   0.05556 
 C                    -0.15248   1.24529  -0.01114 
 C                    -0.78453   2.51318  -0.17313 
 C                    -0.05866   3.68389  -0.17108 
 C                    -0.90033   0.0227    0.01443 
 C                    -0.17191  -1.21041   0.07585 
 C                     1.25917  -1.2005    0.0751 
 C                     1.97178  -2.42297   0.09998 
 H                     3.05921  -2.4133    0.07463 
 C                     1.28807  -3.62172   0.1691 
 C                    -0.12067  -3.64952   0.24597 
 C                    -0.82913  -2.46873   0.21037 
 H                     1.92237   4.5626   -0.01761 
 H                     3.09168   2.4019    0.14617 
 H                    -1.86281   2.53901  -0.31731 
 H                    -0.56514   4.64219  -0.29753 
 H                     1.85271  -4.55656   0.19121 
 H                    -0.64626  -4.60004   0.35127 
 H                    -1.91337  -2.47892   0.30306 
 N                     1.9383    0.00243   0.07847 
 C                    -2.35198   0.03134  -0.02045 
 C                    -3.06174  -0.76144  -0.9594 
 C                    -3.09875   0.83386   0.88082 
 C                    -4.44766  -0.72994  -0.99584 
 C                    -4.48522   0.80754   0.85738 
 C                    -5.20172   0.02852  -0.07557 
 H                    -5.0554    1.40219   1.57547 
 H                    -2.57069   1.42196   1.63568 
 C                     3.38042  -0.00781   0.10896 
 C                     4.10041   0.00753  -1.08322 
 C                     4.05116  -0.03296   1.33772 
 C                     5.4973   -0.00207  -1.063 
 H                     3.56645   0.02726  -2.03529 
 C                     5.43914  -0.04239   1.36717 
 H                     3.47712  -0.04513   2.26621 
 C                     6.17671  -0.02707   0.16707 
 H                     6.04199   0.01002  -2.00596 
 H                     5.98641  -0.06178   2.31073 
 O                     7.51685  -0.03799   0.29637 
 C                     8.32748  -0.02387  -0.86205 
 H                     9.36753  -0.03648  -0.51308 
 H                     8.14776  -0.9114   -1.49347 
 H                     8.15946   0.88657  -1.46336 
 H                    -4.98746  -1.29436  -1.76035 
 B                    -6.84664  -0.02481  -0.06644 
 F                    -7.33225   1.19291   0.43441 
 F                    -7.23685  -1.08578   0.76685 
 F                    -7.29399  -0.24534  -1.37828 
 H                    -2.5028   -1.34261  -1.69736 
 
 NAtoms=     51 NQM=       51 NQMF=       0 NMMI=      0 NMMIF=      0
                NMic=       0 NMicF=      0.
                    Isotopes and Nuclear Properties:
 (Nuclear quadrupole moments (NQMom) in fm**2, nuclear magnetic moments (NMagM)
  in nuclear magnetons)

  Atom         1           2           3           4           5           6           7           8           9          10
 IAtWgt=          12          12          12          12          12          12          12          12          12          12
 AtmWgt=  12.0000000  12.0000000  12.0000000  12.0000000  12.0000000  12.0000000  12.0000000  12.0000000  12.0000000  12.0000000
 NucSpn=           0           0           0           0           0           0           0           0           0           0
 AtZEff=   0.0000000   0.0000000   0.0000000   0.0000000   0.0000000   0.0000000   0.0000000   0.0000000   0.0000000   0.0000000
 NQMom=    0.0000000   0.0000000   0.0000000   0.0000000   0.0000000   0.0000000   0.0000000   0.0000000   0.0000000   0.0000000
 NMagM=    0.0000000   0.0000000   0.0000000   0.0000000   0.0000000   0.0000000   0.0000000   0.0000000   0.0000000   0.0000000
 AtZNuc=   6.0000000   6.0000000   6.0000000   6.0000000   6.0000000   6.0000000   6.0000000   6.0000000   6.0000000   6.0000000

  Atom        11          12          13          14          15          16          17          18          19          20
 IAtWgt=           1          12          12          12           1           1           1           1           1           1
 AtmWgt=   1.0078250  12.0000000  12.0000000  12.0000000   1.0078250   1.0078250   1.0078250   1.0078250   1.0078250   1.0078250
 NucSpn=           1           0           0           0           1           1           1           1           1           1
 AtZEff=   0.0000000   0.0000000   0.0000000   0.0000000   0.0000000   0.0000000   0.0000000   0.0000000   0.0000000   0.0000000
 NQMom=    0.0000000   0.0000000   0.0000000   0.0000000   0.0000000   0.0000000   0.0000000   0.0000000   0.0000000   0.0000000
 NMagM=    2.7928460   0.0000000   0.0000000   0.0000000   2.7928460   2.7928460   2.7928460   2.7928460   2.7928460   2.7928460
 AtZNuc=   1.0000000   6.0000000   6.0000000   6.0000000   1.0000000   1.0000000   1.0000000   1.0000000   1.0000000   1.0000000

  Atom        21          22          23          24          25          26          27          28          29          30
 IAtWgt=           1          14          12          12          12          12          12          12           1           1
 AtmWgt=   1.0078250  14.0030740  12.0000000  12.0000000  12.0000000  12.0000000  12.0000000  12.0000000   1.0078250   1.0078250
 NucSpn=           1           2           0           0           0           0           0           0           1           1
 AtZEff=   0.0000000   0.0000000   0.0000000   0.0000000   0.0000000   0.0000000   0.0000000   0.0000000   0.0000000   0.0000000
 NQMom=    0.0000000   2.0440000   0.0000000   0.0000000   0.0000000   0.0000000   0.0000000   0.0000000   0.0000000   0.0000000
 NMagM=    2.7928460   0.4037610   0.0000000   0.0000000   0.0000000   0.0000000   0.0000000   0.0000000   2.7928460   2.7928460
 AtZNuc=   1.0000000   7.0000000   6.0000000   6.0000000   6.0000000   6.0000000   6.0000000   6.0000000   1.0000000   1.0000000

  Atom        31          32          33          34          35          36          37          38          39          40
 IAtWgt=          12          12          12          12           1          12           1          12           1           1
 AtmWgt=  12.0000000  12.0000000  12.0000000  12.0000000   1.0078250  12.0000000   1.0078250  12.0000000   1.0078250   1.0078250
 NucSpn=           0           0           0           0           1           0           1           0           1           1
 AtZEff=   0.0000000   0.0000000   0.0000000   0.0000000   0.0000000   0.0000000   0.0000000   0.0000000   0.0000000   0.0000000
 NQMom=    0.0000000   0.0000000   0.0000000   0.0000000   0.0000000   0.0000000   0.0000000   0.0000000   0.0000000   0.0000000
 NMagM=    0.0000000   0.0000000   0.0000000   0.0000000   2.7928460   0.0000000   2.7928460   0.0000000   2.7928460   2.7928460
 AtZNuc=   6.0000000   6.0000000   6.0000000   6.0000000   1.0000000   6.0000000   1.0000000   6.0000000   1.0000000   1.0000000

  Atom        41          42          43          44          45          46          47          48          49          50
 IAtWgt=          16          12           1           1           1           1          11          19          19          19
 AtmWgt=  15.9949146  12.0000000   1.0078250   1.0078250   1.0078250   1.0078250  11.0093053  18.9984033  18.9984033  18.9984033
 NucSpn=           0           0           1           1           1           1           3           1           1           1
 AtZEff=   0.0000000   0.0000000   0.0000000   0.0000000   0.0000000   0.0000000   0.0000000   0.0000000   0.0000000   0.0000000
 NQMom=    0.0000000   0.0000000   0.0000000   0.0000000   0.0000000   0.0000000   4.0590000   0.0000000   0.0000000   0.0000000
 NMagM=    0.0000000   0.0000000   2.7928460   2.7928460   2.7928460   2.7928460   2.6886370   2.6288670   2.6288670   2.6288670
 AtZNuc=   8.0000000   6.0000000   1.0000000   1.0000000   1.0000000   1.0000000   5.0000000   9.0000000   9.0000000   9.0000000

  Atom        51
 IAtWgt=           1
 AtmWgt=   1.0078250
 NucSpn=           1
 AtZEff=   0.0000000
 NQMom=    0.0000000
 NMagM=    2.7928460
 AtZNuc=   1.0000000
 Leave Link  101 at Fri Mar 26 23:18:51 2021, MaxMem=  5242880000 cpu:         4.3
 (Enter /opt/nce/packages/global/g09/l103.exe)

 GradGradGradGradGradGradGradGradGradGradGradGradGradGradGradGradGradGrad
 Berny optimization.
 Initialization pass.
                           ----------------------------
                           !    Initial Parameters    !
                           ! (Angstroms and Degrees)  !
 --------------------------                            --------------------------
 ! Name  Definition              Value          Derivative Info.                !
 --------------------------------------------------------------------------------
 ! R1    R(1,2)                  1.3817         estimate D2E/DX2                !
 ! R2    R(1,6)                  1.4111         estimate D2E/DX2                !
 ! R3    R(1,15)                 1.0924         estimate D2E/DX2                !
 ! R4    R(2,3)                  1.4153         estimate D2E/DX2                !
 ! R5    R(2,16)                 1.0878         estimate D2E/DX2                !
 ! R6    R(3,4)                  1.4311         estimate D2E/DX2                !
 ! R7    R(3,22)                 1.3813         estimate D2E/DX2                !
 ! R8    R(4,5)                  1.4259         estimate D2E/DX2                !
 ! R9    R(4,7)                  1.4334         estimate D2E/DX2                !
 ! R10   R(5,6)                  1.3775         estimate D2E/DX2                !
 ! R11   R(5,17)                 1.0882         estimate D2E/DX2                !
 ! R12   R(6,18)                 1.0913         estimate D2E/DX2                !
 ! R13   R(7,8)                  1.4335         estimate D2E/DX2                !
 ! R14   R(7,23)                 1.4521         estimate D2E/DX2                !
 ! R15   R(8,9)                  1.4311         estimate D2E/DX2                !
 ! R16   R(8,14)                 1.426          estimate D2E/DX2                !
 ! R17   R(9,10)                 1.4152         estimate D2E/DX2                !
 ! R18   R(9,22)                 1.3814         estimate D2E/DX2                !
 ! R19   R(10,11)                1.0878         estimate D2E/DX2                !
 ! R20   R(10,12)                1.3817         estimate D2E/DX2                !
 ! R21   R(12,13)                1.4111         estimate D2E/DX2                !
 ! R22   R(12,19)                1.0924         estimate D2E/DX2                !
 ! R23   R(13,14)                1.3775         estimate D2E/DX2                !
 ! R24   R(13,20)                1.0912         estimate D2E/DX2                !
 ! R25   R(14,21)                1.0882         estimate D2E/DX2                !
 ! R26   R(22,31)                1.4425         estimate D2E/DX2                !
 ! R27   R(23,24)                1.4191         estimate D2E/DX2                !
 ! R28   R(23,25)                1.4191         estimate D2E/DX2                !
 ! R29   R(24,26)                1.3868         estimate D2E/DX2                !
 ! R30   R(24,51)                1.093          estimate D2E/DX2                !
 ! R31   R(25,27)                1.3869         estimate D2E/DX2                !
 ! R32   R(25,30)                1.0929         estimate D2E/DX2                !
 ! R33   R(26,28)                1.4109         estimate D2E/DX2                !
 ! R34   R(26,46)                1.0929         estimate D2E/DX2                !
 ! R35   R(27,28)                1.4109         estimate D2E/DX2                !
 ! R36   R(27,29)                1.0929         estimate D2E/DX2                !
 ! R37   R(28,47)                1.6458         estimate D2E/DX2                !
 ! R38   R(31,32)                1.3928         estimate D2E/DX2                !
 ! R39   R(31,33)                1.4001         estimate D2E/DX2                !
 ! R40   R(32,34)                1.3971         estimate D2E/DX2                !
 ! R41   R(32,35)                1.0918         estimate D2E/DX2                !
 ! R42   R(33,36)                1.3883         estimate D2E/DX2                !
 ! R43   R(33,37)                1.0917         estimate D2E/DX2                !
 ! R44   R(34,38)                1.4055         estimate D2E/DX2                !
 ! R45   R(34,39)                1.089          estimate D2E/DX2                !
 ! R46   R(36,38)                1.4087         estimate D2E/DX2                !
 ! R47   R(36,40)                1.091          estimate D2E/DX2                !
 ! R48   R(38,41)                1.3464         estimate D2E/DX2                !
 ! R49   R(41,42)                1.4139         estimate D2E/DX2                !
 ! R50   R(42,43)                1.0971         estimate D2E/DX2                !
 ! R51   R(42,44)                1.104          estimate D2E/DX2                !
 ! R52   R(42,45)                1.104          estimate D2E/DX2                !
 ! R53   R(47,48)                1.4034         estimate D2E/DX2                !
 ! R54   R(47,49)                1.4044         estimate D2E/DX2                !
 ! R55   R(47,50)                1.4035         estimate D2E/DX2                !
 ! A1    A(2,1,6)              120.9127         estimate D2E/DX2                !
 ! A2    A(2,1,15)             119.1919         estimate D2E/DX2                !
 ! A3    A(6,1,15)             119.8754         estimate D2E/DX2                !
 ! A4    A(1,2,3)              120.0795         estimate D2E/DX2                !
 ! A5    A(1,2,16)             120.2335         estimate D2E/DX2                !
 ! A6    A(3,2,16)             119.6851         estimate D2E/DX2                !
 ! A7    A(2,3,4)              119.8308         estimate D2E/DX2                !
 ! A8    A(2,3,22)             120.3059         estimate D2E/DX2                !
 ! A9    A(4,3,22)             119.8492         estimate D2E/DX2                !
 ! A10   A(3,4,5)              117.8328         estimate D2E/DX2                !
 ! A11   A(3,4,7)              120.1364         estimate D2E/DX2                !
 ! A12   A(5,4,7)              121.9486         estimate D2E/DX2                !
 ! A13   A(4,5,6)              121.4633         estimate D2E/DX2                !
 ! A14   A(4,5,17)             118.3841         estimate D2E/DX2                !
 ! A15   A(6,5,17)             120.1445         estimate D2E/DX2                !
 ! A16   A(1,6,5)              119.675          estimate D2E/DX2                !
 ! A17   A(1,6,18)             120.2108         estimate D2E/DX2                !
 ! A18   A(5,6,18)             120.1057         estimate D2E/DX2                !
 ! A19   A(4,7,8)              117.9916         estimate D2E/DX2                !
 ! A20   A(4,7,23)             121.0685         estimate D2E/DX2                !
 ! A21   A(8,7,23)             120.9398         estimate D2E/DX2                !
 ! A22   A(7,8,9)              120.1423         estimate D2E/DX2                !
 ! A23   A(7,8,14)             121.9322         estimate D2E/DX2                !
 ! A24   A(9,8,14)             117.8424         estimate D2E/DX2                !
 ! A25   A(8,9,10)             119.8364         estimate D2E/DX2                !
 ! A26   A(8,9,22)             119.8442         estimate D2E/DX2                !
 ! A27   A(10,9,22)            120.3054         estimate D2E/DX2                !
 ! A28   A(9,10,11)            119.6882         estimate D2E/DX2                !
 ! A29   A(9,10,12)            120.074          estimate D2E/DX2                !
 ! A30   A(11,10,12)           120.2349         estimate D2E/DX2                !
 ! A31   A(10,12,13)           120.9177         estimate D2E/DX2                !
 ! A32   A(10,12,19)           119.1894         estimate D2E/DX2                !
 ! A33   A(13,12,19)           119.8724         estimate D2E/DX2                !
 ! A34   A(12,13,14)           119.6797         estimate D2E/DX2                !
 ! A35   A(12,13,20)           120.2153         estimate D2E/DX2                !
 ! A36   A(14,13,20)           120.0958         estimate D2E/DX2                !
 ! A37   A(8,14,13)            121.4548         estimate D2E/DX2                !
 ! A38   A(8,14,21)            118.3916         estimate D2E/DX2                !
 ! A39   A(13,14,21)           120.145          estimate D2E/DX2                !
 ! A40   A(3,22,9)             121.9271         estimate D2E/DX2                !
 ! A41   A(3,22,31)            119.0359         estimate D2E/DX2                !
 ! A42   A(9,22,31)            119.0369         estimate D2E/DX2                !
 ! A43   A(7,23,24)            120.8343         estimate D2E/DX2                !
 ! A44   A(7,23,25)            120.9415         estimate D2E/DX2                !
 ! A45   A(24,23,25)           118.2242         estimate D2E/DX2                !
 ! A46   A(23,24,26)           120.3006         estimate D2E/DX2                !
 ! A47   A(23,24,51)           119.2079         estimate D2E/DX2                !
 ! A48   A(26,24,51)           120.357          estimate D2E/DX2                !
 ! A49   A(23,25,27)           120.3032         estimate D2E/DX2                !
 ! A50   A(23,25,30)           119.253          estimate D2E/DX2                !
 ! A51   A(27,25,30)           120.3237         estimate D2E/DX2                !
 ! A52   A(24,26,28)           121.9503         estimate D2E/DX2                !
 ! A53   A(24,26,46)           120.0172         estimate D2E/DX2                !
 ! A54   A(28,26,46)           118.0288         estimate D2E/DX2                !
 ! A55   A(25,27,28)           121.9595         estimate D2E/DX2                !
 ! A56   A(25,27,29)           120.008          estimate D2E/DX2                !
 ! A57   A(28,27,29)           118.0324         estimate D2E/DX2                !
 ! A58   A(26,28,27)           117.1741         estimate D2E/DX2                !
 ! A59   A(26,28,47)           121.3554         estimate D2E/DX2                !
 ! A60   A(27,28,47)           121.4516         estimate D2E/DX2                !
 ! A61   A(22,31,32)           119.9096         estimate D2E/DX2                !
 ! A62   A(22,31,33)           119.8419         estimate D2E/DX2                !
 ! A63   A(32,31,33)           120.2486         estimate D2E/DX2                !
 ! A64   A(31,32,34)           120.2912         estimate D2E/DX2                !
 ! A65   A(31,32,35)           119.592          estimate D2E/DX2                !
 ! A66   A(34,32,35)           120.1168         estimate D2E/DX2                !
 ! A67   A(31,33,36)           119.8458         estimate D2E/DX2                !
 ! A68   A(31,33,37)           119.6508         estimate D2E/DX2                !
 ! A69   A(36,33,37)           120.5034         estimate D2E/DX2                !
 ! A70   A(32,34,38)           119.7449         estimate D2E/DX2                !
 ! A71   A(32,34,39)           119.1752         estimate D2E/DX2                !
 ! A72   A(38,34,39)           121.0799         estimate D2E/DX2                !
 ! A73   A(33,36,38)           120.3516         estimate D2E/DX2                !
 ! A74   A(33,36,40)           121.3311         estimate D2E/DX2                !
 ! A75   A(38,36,40)           118.3173         estimate D2E/DX2                !
 ! A76   A(34,38,36)           119.5179         estimate D2E/DX2                !
 ! A77   A(34,38,41)           124.4265         estimate D2E/DX2                !
 ! A78   A(36,38,41)           116.0556         estimate D2E/DX2                !
 ! A79   A(38,41,42)           119.4645         estimate D2E/DX2                !
 ! A80   A(41,42,43)           106.4264         estimate D2E/DX2                !
 ! A81   A(41,42,44)           111.5454         estimate D2E/DX2                !
 ! A82   A(41,42,45)           111.5451         estimate D2E/DX2                !
 ! A83   A(43,42,44)           109.088          estimate D2E/DX2                !
 ! A84   A(43,42,45)           109.0878         estimate D2E/DX2                !
 ! A85   A(44,42,45)           109.0693         estimate D2E/DX2                !
 ! A86   A(28,47,48)           108.6451         estimate D2E/DX2                !
 ! A87   A(28,47,49)           107.7867         estimate D2E/DX2                !
 ! A88   A(28,47,50)           108.5713         estimate D2E/DX2                !
 ! A89   A(48,47,49)           110.3419         estimate D2E/DX2                !
 ! A90   A(48,47,50)           111.0776         estimate D2E/DX2                !
 ! A91   A(49,47,50)           110.3247         estimate D2E/DX2                !
 ! D1    D(6,1,2,3)             -1.5146         estimate D2E/DX2                !
 ! D2    D(6,1,2,16)           177.9723         estimate D2E/DX2                !
 ! D3    D(15,1,2,3)          -179.8837         estimate D2E/DX2                !
 ! D4    D(15,1,2,16)           -0.3968         estimate D2E/DX2                !
 ! D5    D(2,1,6,5)              2.1029         estimate D2E/DX2                !
 ! D6    D(2,1,6,18)          -176.8373         estimate D2E/DX2                !
 ! D7    D(15,1,6,5)          -179.539          estimate D2E/DX2                !
 ! D8    D(15,1,6,18)            1.5207         estimate D2E/DX2                !
 ! D9    D(1,2,3,4)             -2.1357         estimate D2E/DX2                !
 ! D10   D(1,2,3,22)           176.5008         estimate D2E/DX2                !
 ! D11   D(16,2,3,4)           178.3746         estimate D2E/DX2                !
 ! D12   D(16,2,3,22)           -2.9889         estimate D2E/DX2                !
 ! D13   D(2,3,4,5)              5.048          estimate D2E/DX2                !
 ! D14   D(2,3,4,7)           -178.1842         estimate D2E/DX2                !
 ! D15   D(22,3,4,5)          -173.5948         estimate D2E/DX2                !
 ! D16   D(22,3,4,7)             3.173          estimate D2E/DX2                !
 ! D17   D(2,3,22,9)           179.5862         estimate D2E/DX2                !
 ! D18   D(2,3,22,31)           -0.3132         estimate D2E/DX2                !
 ! D19   D(4,3,22,9)            -1.7775         estimate D2E/DX2                !
 ! D20   D(4,3,22,31)          178.323          estimate D2E/DX2                !
 ! D21   D(3,4,5,6)             -4.533          estimate D2E/DX2                !
 ! D22   D(3,4,5,17)           174.4285         estimate D2E/DX2                !
 ! D23   D(7,4,5,6)            178.7614         estimate D2E/DX2                !
 ! D24   D(7,4,5,17)            -2.2771         estimate D2E/DX2                !
 ! D25   D(3,4,7,8)             -1.4463         estimate D2E/DX2                !
 ! D26   D(3,4,7,23)           178.5393         estimate D2E/DX2                !
 ! D27   D(5,4,7,8)            175.1851         estimate D2E/DX2                !
 ! D28   D(5,4,7,23)            -4.8293         estimate D2E/DX2                !
 ! D29   D(4,5,6,1)              1.0182         estimate D2E/DX2                !
 ! D30   D(4,5,6,18)           179.9596         estimate D2E/DX2                !
 ! D31   D(17,5,6,1)          -177.9252         estimate D2E/DX2                !
 ! D32   D(17,5,6,18)            1.0161         estimate D2E/DX2                !
 ! D33   D(4,7,8,9)             -1.6091         estimate D2E/DX2                !
 ! D34   D(4,7,8,14)           175.0037         estimate D2E/DX2                !
 ! D35   D(23,7,8,9)           178.4053         estimate D2E/DX2                !
 ! D36   D(23,7,8,14)           -4.9819         estimate D2E/DX2                !
 ! D37   D(4,7,23,24)          128.8251         estimate D2E/DX2                !
 ! D38   D(4,7,23,25)          -51.054          estimate D2E/DX2                !
 ! D39   D(8,7,23,24)          -51.1897         estimate D2E/DX2                !
 ! D40   D(8,7,23,25)          128.9312         estimate D2E/DX2                !
 ! D41   D(7,8,9,10)          -178.321          estimate D2E/DX2                !
 ! D42   D(7,8,9,22)             3.0356         estimate D2E/DX2                !
 ! D43   D(14,8,9,10)            4.9298         estimate D2E/DX2                !
 ! D44   D(14,8,9,22)         -173.7136         estimate D2E/DX2                !
 ! D45   D(7,8,14,13)          178.9005         estimate D2E/DX2                !
 ! D46   D(7,8,14,21)           -2.1608         estimate D2E/DX2                !
 ! D47   D(9,8,14,13)           -4.4121         estimate D2E/DX2                !
 ! D48   D(9,8,14,21)          174.5266         estimate D2E/DX2                !
 ! D49   D(8,9,10,11)          178.4998         estimate D2E/DX2                !
 ! D50   D(8,9,10,12)           -2.1181         estimate D2E/DX2                !
 ! D51   D(22,9,10,11)          -2.8631         estimate D2E/DX2                !
 ! D52   D(22,9,10,12)         176.519          estimate D2E/DX2                !
 ! D53   D(8,9,22,3)            -1.3216         estimate D2E/DX2                !
 ! D54   D(8,9,22,31)          178.5778         estimate D2E/DX2                !
 ! D55   D(10,9,22,3)         -179.9586         estimate D2E/DX2                !
 ! D56   D(10,9,22,31)          -0.0592         estimate D2E/DX2                !
 ! D57   D(9,10,12,13)          -1.4275         estimate D2E/DX2                !
 ! D58   D(9,10,12,19)        -179.7768         estimate D2E/DX2                !
 ! D59   D(11,10,12,13)        177.9512         estimate D2E/DX2                !
 ! D60   D(11,10,12,19)         -0.398          estimate D2E/DX2                !
 ! D61   D(10,12,13,14)          2.0164         estimate D2E/DX2                !
 ! D62   D(10,12,13,20)       -176.8817         estimate D2E/DX2                !
 ! D63   D(19,12,13,14)       -179.6456         estimate D2E/DX2                !
 ! D64   D(19,12,13,20)          1.4563         estimate D2E/DX2                !
 ! D65   D(12,13,14,8)           0.9978         estimate D2E/DX2                !
 ! D66   D(12,13,14,21)       -177.9226         estimate D2E/DX2                !
 ! D67   D(20,13,14,8)         179.8972         estimate D2E/DX2                !
 ! D68   D(20,13,14,21)          0.9769         estimate D2E/DX2                !
 ! D69   D(3,22,31,32)         -88.6148         estimate D2E/DX2                !
 ! D70   D(3,22,31,33)          91.3771         estimate D2E/DX2                !
 ! D71   D(9,22,31,32)          91.4828         estimate D2E/DX2                !
 ! D72   D(9,22,31,33)         -88.5253         estimate D2E/DX2                !
 ! D73   D(7,23,24,26)        -179.0602         estimate D2E/DX2                !
 ! D74   D(7,23,24,51)          -3.2613         estimate D2E/DX2                !
 ! D75   D(25,23,24,26)          0.8221         estimate D2E/DX2                !
 ! D76   D(25,23,24,51)        176.6211         estimate D2E/DX2                !
 ! D77   D(7,23,25,27)        -178.4411         estimate D2E/DX2                !
 ! D78   D(7,23,25,30)          -2.4111         estimate D2E/DX2                !
 ! D79   D(24,23,25,27)          1.6767         estimate D2E/DX2                !
 ! D80   D(24,23,25,30)        177.7067         estimate D2E/DX2                !
 ! D81   D(23,24,26,28)         -3.0553         estimate D2E/DX2                !
 ! D82   D(23,24,26,46)        176.2331         estimate D2E/DX2                !
 ! D83   D(51,24,26,28)       -178.8056         estimate D2E/DX2                !
 ! D84   D(51,24,26,46)          0.4827         estimate D2E/DX2                !
 ! D85   D(23,25,27,28)         -2.0521         estimate D2E/DX2                !
 ! D86   D(23,25,27,29)        177.9738         estimate D2E/DX2                !
 ! D87   D(30,25,27,28)       -178.0393         estimate D2E/DX2                !
 ! D88   D(30,25,27,29)          1.9866         estimate D2E/DX2                !
 ! D89   D(24,26,28,27)          2.6692         estimate D2E/DX2                !
 ! D90   D(24,26,28,47)       -175.7722         estimate D2E/DX2                !
 ! D91   D(46,26,28,27)       -176.6327         estimate D2E/DX2                !
 ! D92   D(46,26,28,47)          4.9259         estimate D2E/DX2                !
 ! D93   D(25,27,28,26)         -0.0974         estimate D2E/DX2                !
 ! D94   D(25,27,28,47)        178.3424         estimate D2E/DX2                !
 ! D95   D(29,27,28,26)        179.8772         estimate D2E/DX2                !
 ! D96   D(29,27,28,47)         -1.683          estimate D2E/DX2                !
 ! D97   D(26,28,47,48)       -152.5101         estimate D2E/DX2                !
 ! D98   D(26,28,47,49)         87.9165         estimate D2E/DX2                !
 ! D99   D(26,28,47,50)        -31.5951         estimate D2E/DX2                !
 ! D100  D(27,28,47,48)         29.1153         estimate D2E/DX2                !
 ! D101  D(27,28,47,49)        -90.4581         estimate D2E/DX2                !
 ! D102  D(27,28,47,50)        150.0302         estimate D2E/DX2                !
 ! D103  D(22,31,32,34)        179.9924         estimate D2E/DX2                !
 ! D104  D(22,31,32,35)          0.0009         estimate D2E/DX2                !
 ! D105  D(33,31,32,34)          0.0005         estimate D2E/DX2                !
 ! D106  D(33,31,32,35)       -179.991          estimate D2E/DX2                !
 ! D107  D(22,31,33,36)       -179.9797         estimate D2E/DX2                !
 ! D108  D(22,31,33,37)          0.0268         estimate D2E/DX2                !
 ! D109  D(32,31,33,36)          0.0122         estimate D2E/DX2                !
 ! D110  D(32,31,33,37)       -179.9813         estimate D2E/DX2                !
 ! D111  D(31,32,34,38)         -0.0116         estimate D2E/DX2                !
 ! D112  D(31,32,34,39)        179.9881         estimate D2E/DX2                !
 ! D113  D(35,32,34,38)        179.9798         estimate D2E/DX2                !
 ! D114  D(35,32,34,39)         -0.0205         estimate D2E/DX2                !
 ! D115  D(31,33,36,38)         -0.0136         estimate D2E/DX2                !
 ! D116  D(31,33,36,40)        179.9915         estimate D2E/DX2                !
 ! D117  D(37,33,36,38)        179.9798         estimate D2E/DX2                !
 ! D118  D(37,33,36,40)         -0.0151         estimate D2E/DX2                !
 ! D119  D(32,34,38,36)          0.0101         estimate D2E/DX2                !
 ! D120  D(32,34,38,41)       -179.9934         estimate D2E/DX2                !
 ! D121  D(39,34,38,36)       -179.9896         estimate D2E/DX2                !
 ! D122  D(39,34,38,41)          0.007          estimate D2E/DX2                !
 ! D123  D(33,36,38,34)          0.0025         estimate D2E/DX2                !
 ! D124  D(33,36,38,41)       -179.9943         estimate D2E/DX2                !
 ! D125  D(40,36,38,34)        179.9975         estimate D2E/DX2                !
 ! D126  D(40,36,38,41)          0.0007         estimate D2E/DX2                !
 ! D127  D(34,38,41,42)          0.0021         estimate D2E/DX2                !
 ! D128  D(36,38,41,42)        179.9988         estimate D2E/DX2                !
 ! D129  D(38,41,42,43)        179.9988         estimate D2E/DX2                !
 ! D130  D(38,41,42,44)        -61.1231         estimate D2E/DX2                !
 ! D131  D(38,41,42,45)         61.121          estimate D2E/DX2                !
 --------------------------------------------------------------------------------
 Trust Radius=3.00D-01 FncErr=1.00D-07 GrdErr=1.00D-06
 Number of steps in this run=    287 maximum allowed number of steps=    306.
 GradGradGradGradGradGradGradGradGradGradGradGradGradGradGradGradGradGrad

 Leave Link  103 at Fri Mar 26 23:18:51 2021, MaxMem=  5242880000 cpu:         0.2
 (Enter /opt/nce/packages/global/g09/l202.exe)
 Symmetry turned off by external request.
 Stoichiometry    C26H19BF3NO
 Framework group  C1[X(C26H19BF3NO)]
 Deg. of freedom   147
 Full point group                 C1      NOp   1
                          Input orientation:                          
 ---------------------------------------------------------------------
 Center     Atomic      Atomic             Coordinates (Angstroms)
 Number     Number       Type             X           Y           Z
 ---------------------------------------------------------------------
      1          6           0        1.344283    3.635788   -0.027249
      2          6           0        2.006968    2.427166    0.068676
      3          6           0        1.276792    1.214836    0.055560
      4          6           0       -0.152476    1.245294   -0.011139
      5          6           0       -0.784528    2.513181   -0.173134
      6          6           0       -0.058659    3.683894   -0.171084
      7          6           0       -0.900332    0.022696    0.014431
      8          6           0       -0.171910   -1.210409    0.075851
      9          6           0        1.259169   -1.200496    0.075104
     10          6           0        1.971779   -2.422970    0.099982
     11          1           0        3.059211   -2.413295    0.074625
     12          6           0        1.288065   -3.621715    0.169104
     13          6           0       -0.120673   -3.649519    0.245968
     14          6           0       -0.829127   -2.468729    0.210365
     15          1           0        1.922367    4.562601   -0.017608
     16          1           0        3.091683    2.401903    0.146170
     17          1           0       -1.862806    2.539009   -0.317310
     18          1           0       -0.565136    4.642188   -0.297525
     19          1           0        1.852711   -4.556565    0.191212
     20          1           0       -0.646261   -4.600038    0.351272
     21          1           0       -1.913367   -2.478923    0.303055
     22          7           0        1.938299    0.002433    0.078473
     23          6           0       -2.351978    0.031341   -0.020448
     24          6           0       -3.061739   -0.761440   -0.959400
     25          6           0       -3.098750    0.833863    0.880815
     26          6           0       -4.447664   -0.729937   -0.995841
     27          6           0       -4.485223    0.807543    0.857375
     28          6           0       -5.201719    0.028522   -0.075571
     29          1           0       -5.055396    1.402189    1.575473
     30          1           0       -2.570688    1.421956    1.635680
     31          6           0        3.380424   -0.007806    0.108959
     32          6           0        4.100406    0.007526   -1.083224
     33          6           0        4.051162   -0.032963    1.337723
     34          6           0        5.497298   -0.002074   -1.062999
     35          1           0        3.566452    0.027261   -2.035292
     36          6           0        5.439136   -0.042393    1.367167
     37          1           0        3.477123   -0.045126    2.266209
     38          6           0        6.176705   -0.027073    0.167071
     39          1           0        6.041988    0.010019   -2.005956
     40          1           0        5.986410   -0.061780    2.310732
     41          8           0        7.516852   -0.037985    0.296366
     42          6           0        8.327477   -0.023867   -0.862049
     43          1           0        9.367525   -0.036478   -0.513084
     44          1           0        8.147756   -0.911400   -1.493471
     45          1           0        8.159458    0.886573   -1.463363
     46          1           0       -4.987455   -1.294359   -1.760354
     47          5           0       -6.846638   -0.024808   -0.066438
     48          9           0       -7.332250    1.192912    0.434406
     49          9           0       -7.236848   -1.085776    0.766847
     50          9           0       -7.293992   -0.245336   -1.378279
     51          1           0       -2.502802   -1.342605   -1.697361
 ---------------------------------------------------------------------
 Rotational constants (GHZ):      0.3582025      0.0563828      0.0507927
 Leave Link  202 at Fri Mar 26 23:18:51 2021, MaxMem=  5242880000 cpu:         0.1
 (Enter /opt/nce/packages/global/g09/l301.exe)
 Standard basis: def2TZVP (5D, 7F)
 Ernie: Thresh=  0.10000D-02 Tol=  0.10000D-05 Strict=F.
  1106 basis functions,  1784 primitive gaussians,  1266 cartesian basis functions
   111 alpha electrons      111 beta electrons
       nuclear repulsion energy      2924.6162976089 Hartrees.
 IExCor= 1009 DFT=T Ex=PBE Corr=PBE ExCW=0 ScaHFX=  0.000000
 ScaDFX=  1.000000  1.000000  1.000000  1.000000 ScalE2=  1.000000  1.000000
 IRadAn=      5 IRanWt=     -1 IRanGd=            0 ICorTp=0 IEmpDi=141
 NAtoms=   51 NActive=   51 NUniq=   51 SFac= 1.00D+00 NAtFMM=   60 NAOKFM=F Big=F
 Integral buffers will be    131072 words long.
 Raffenetti 2 integral format.
 Two-electron integral symmetry is turned off.
 R6Disp:  Grimme-D3(BJ) Dispersion energy=       -0.0764697650 Hartrees.
 Nuclear repulsion after empirical dispersion term =     2924.5398278438 Hartrees.
 ------------------------------------------------------------------------------
 Polarizable Continuum Model (PCM)
 =================================
 Model                : PCM (using non-symmetric T matrix).
 Atomic radii         : SMD-Coulomb.
 Polarization charges : Total charges.
 Charge compensation  : None.
 Solution method      : On-the-fly selection.
 Cavity type          : VdW (van der Waals Surface) (Alpha=1.000).
 Cavity algorithm     : GePol (No added spheres)
                        Default sphere list used, NSphG=   51.
                        Lebedev-Laikov grids with approx.  5.0 points / Ang**2.
                        Smoothing algorithm: York/Karplus (Gamma=1.0000).
                        Polarization charges: spherical gaussians, with
                                              point-specific exponents (IZeta= 3).
                        Self-potential: point-specific (ISelfS= 7).
                        Self-field    : sphere-specific E.n sum rule (ISelfD= 2).
 1st derivatives      : Analytical E(r).r(x)/FMM algorithm (CHGder, D1EAlg=3).
                        Cavity 1st derivative terms included.
 Solvent              : Acetonitrile, Eps=  35.688000 Eps(inf)=   1.806874
 ------------------------------------------------------------------------------
 GePol: Number of generator spheres                  =      51
 GePol: Total number of spheres                      =      51
 GePol: Number of exposed spheres                    =      51 (100.00%)
 GePol: Number of points                             =    3812
 GePol: Average weight of points                     =       0.11
 GePol: Minimum weight of points                     =   0.95D-10
 GePol: Maximum weight of points                     =    0.21559
 GePol: Number of points with low weight             =     210
 GePol: Fraction of low-weight points (<1% of avg)   =       5.51%
 GePol: Cavity surface area                          =    438.089 Ang**2
 GePol: Cavity volume                                =    430.393 Ang**3
 ------------------------------------------------------------------------------
 Atomic radii for non-electrostatic terms: SMD-CDS.
 ------------------------------------------------------------------------------
 PCM non-electrostatic energy =        -0.0068478852 Hartrees.
 Nuclear repulsion after PCM non-electrostatic terms =     2924.5329799586 Hartrees.
 Leave Link  301 at Fri Mar 26 23:18:51 2021, MaxMem=  5242880000 cpu:         2.1
 (Enter /opt/nce/packages/global/g09/l302.exe)
 NPDir=0 NMtPBC=     1 NCelOv=     1 NCel=       1 NClECP=     1 NCelD=      1
         NCelK=      1 NCelE2=     1 NClLst=     1 CellRange=     0.0.
 One-electron integrals computed using PRISM.
   1 Symmetry operations used in ECPInt.
 ECPInt:  NShTT=   91806 NPrTT=  285396 LenC2=   70283 LenP2D=  149035.
 LDataN:  DoStor=T MaxTD1= 6 Len=  172
 NBasis=  1106 RedAO= T EigKep=  5.42D-06  NBF=  1106
 NBsUse=  1106 1.00D-06 EigRej= -1.00D+00 NBFU=  1106
 Precomputing XC quadrature grid using
 IXCGrd= 4 IRadAn=           5 IRanWt=          -1 IRanGd=           0 AccXCQ= 0.00D+00.
 Generated NRdTot=       0 NPtTot=           0 NUsed=           0 NTot=          32
 NSgBfM=  1143  1143  1143  1143  1143 MxSgAt=    51 MxSgA2=    51.
 Leave Link  302 at Fri Mar 26 23:18:54 2021, MaxMem=  5242880000 cpu:        31.0
 (Enter /opt/nce/packages/global/g09/l303.exe)
 DipDrv:  MaxL=1.
 Leave Link  303 at Fri Mar 26 23:18:54 2021, MaxMem=  5242880000 cpu:         3.0
 (Enter /opt/nce/packages/global/g09/l401.exe)
 ExpMin= 6.06D-02 ExpMax= 3.55D+04 ExpMxC= 1.21D+03 IAcc=3 IRadAn=         5 AccDes= 0.00D+00
 Harris functional with IExCor= 1009 and IRadAn=       5 diagonalized for initial guess.
 HarFok:  IExCor= 1009 AccDes= 0.00D+00 IRadAn=         5 IDoV= 1 UseB2=F ITyADJ=14
 ICtDFT=  3500011 ScaDFX=  1.000000  1.000000  1.000000  1.000000
 FoFCou: FMM=F IPFlag=           0 FMFlag=      100000 FMFlg1=           0
         NFxFlg=           0 DoJE=T BraDBF=F KetDBF=T FulRan=T
         wScrn=  0.000000 ICntrl=     500 IOpCl=  0 I1Cent=   200000004 NGrid=           0
         NMat0=    1 NMatS0=      1 NMatT0=    0 NMatD0=    1 NMtDS0=    0 NMtDT0=    0
 Symmetry not used in FoFCou.
 Harris En= -1456.03512854131    
 JPrj=0 DoOrth=F DoCkMO=F.
 Leave Link  401 at Fri Mar 26 23:19:05 2021, MaxMem=  5242880000 cpu:       127.5
 (Enter /opt/nce/packages/global/g09/l502.exe)
 Closed shell SCF:
 Using DIIS extrapolation, IDIIS=  1040.
 Two-electron integral symmetry not used.
 IVT=     4849708 IEndB=     4849708 NGot=  5242880000 MDV=  5239650955
 LenX=  5239650955 LenY=  5238046933
 Requested convergence on RMS density matrix=1.00D-08 within 128 cycles.
 Requested convergence on MAX density matrix=1.00D-06.
 Requested convergence on             energy=1.00D-06.
 No special actions if energy rises.
 Fock matrices will be formed incrementally for  20 cycles.

 Cycle   1  Pass 1  IDiag  1:
 FoFJK:  IHMeth= 1 ICntrl=     500 DoSepK=F KAlg= 0 I1Cent=   0 FoldK=F
 IRaf= 650000000 NMat=   1 IRICut=       1 DoRegI=T DoRafI=F ISym2E= 0.
 FoFCou: FMM=F IPFlag=           0 FMFlag=      100000 FMFlg1=           0
         NFxFlg=           0 DoJE=T BraDBF=F KetDBF=F FulRan=T
         wScrn=  0.000000 ICntrl=     500 IOpCl=  0 I1Cent=           0 NGrid=           0
         NMat0=    1 NMatS0=      1 NMatT0=    0 NMatD0=    1 NMtDS0=    0 NMtDT0=    0
 Symmetry not used in FoFCou.
 Inv3:  Mode=1 IEnd=    43594032.
 Iteration    1 A*A^-1 deviation from unit magnitude is 7.33D-15 for   3810.
 Iteration    1 A*A^-1 deviation from orthogonality  is 2.55D-15 for   2580    859.
 Iteration    1 A^-1*A deviation from unit magnitude is 7.88D-15 for   3810.
 Iteration    1 A^-1*A deviation from orthogonality  is 1.49D-08 for   3014   2977.
 Iteration    2 A*A^-1 deviation from unit magnitude is 2.22D-15 for    639.
 Iteration    2 A*A^-1 deviation from orthogonality  is 3.77D-15 for   2977    312.
 Iteration    2 A^-1*A deviation from unit magnitude is 8.88D-16 for    707.
 Iteration    2 A^-1*A deviation from orthogonality  is 3.33D-16 for   2459    619.
 E= -1455.11992308677    
 DIIS: error= 1.82D-02 at cycle   1 NSaved=   1.
 NSaved= 1 IEnMin= 1 EnMin= -1455.11992308677     IErMin= 1 ErrMin= 1.82D-02
 ErrMax= 1.82D-02  0.00D+00 EMaxC= 1.00D-01 BMatC= 5.64D-01 BMatP= 5.64D-01
 IDIUse=3 WtCom= 8.18D-01 WtEn= 1.82D-01
 Coeff-Com:  0.100D+01
 Coeff-En:   0.100D+01
 Coeff:      0.100D+01
 Gap=     0.070 Goal=   None    Shift=    0.000
 GapD=    0.070 DampG=0.500 DampE=0.500 DampFc=0.2500 IDamp=-1.
 Damping current iteration by 2.50D-01
 RMSDP=4.26D-03 MaxDP=5.76D-01              OVMax= 4.68D-01

 Cycle   2  Pass 1  IDiag  1:
 RMSU=  1.06D-03    CP:  1.02D+00
 E= -1455.30048663979     Delta-E=       -0.180563553016 Rises=F Damp=T
 DIIS: error= 7.50D-03 at cycle   2 NSaved=   2.
 NSaved= 2 IEnMin= 2 EnMin= -1455.30048663979     IErMin= 2 ErrMin= 7.50D-03
 ErrMax= 7.50D-03  0.00D+00 EMaxC= 1.00D-01 BMatC= 1.12D-01 BMatP= 5.64D-01
 IDIUse=3 WtCom= 9.25D-01 WtEn= 7.50D-02
 Coeff-Com: -0.451D+00 0.145D+01
 Coeff-En:   0.000D+00 0.100D+01
 Coeff:     -0.417D+00 0.142D+01
 Gap=     0.097 Goal=   None    Shift=    0.000
 RMSDP=9.33D-04 MaxDP=8.80D-02 DE=-1.81D-01 OVMax= 6.02D-01

 Cycle   3  Pass 1  IDiag  1:
 RMSU=  9.05D-04    CP:  9.97D-01  1.19D+00
 E= -1455.50039388406     Delta-E=       -0.199907244278 Rises=F Damp=F
 DIIS: error= 1.31D-02 at cycle   3 NSaved=   3.
 NSaved= 3 IEnMin= 3 EnMin= -1455.50039388406     IErMin= 2 ErrMin= 7.50D-03
 ErrMax= 1.31D-02  0.00D+00 EMaxC= 1.00D-01 BMatC= 1.35D-01 BMatP= 1.12D-01
 IDIUse=2 WtCom= 0.00D+00 WtEn= 1.00D+00
 Coeff-En:   0.000D+00 0.000D+00 0.100D+01
 Coeff:      0.000D+00 0.000D+00 0.100D+01
 Gap=     0.095 Goal=   None    Shift=    0.000
 RMSDP=1.15D-03 MaxDP=1.69D-01 DE=-2.00D-01 OVMax= 4.50D-01

 Cycle   4  Pass 1  IDiag  1:
 RMSU=  9.65D-04    CP:  1.01D+00  1.32D+00  3.27D-01
 E= -1454.44695456175     Delta-E=        1.053439322312 Rises=F Damp=F
 DIIS: error= 4.14D-02 at cycle   4 NSaved=   4.
 NSaved= 4 IEnMin= 3 EnMin= -1455.50039388406     IErMin= 2 ErrMin= 7.50D-03
 ErrMax= 4.14D-02  0.00D+00 EMaxC= 1.00D-01 BMatC= 1.11D+00 BMatP= 1.12D-01
 IDIUse=2 WtCom= 0.00D+00 WtEn= 1.00D+00
 Coeff-En:   0.000D+00 0.000D+00 0.824D+00 0.176D+00
 Coeff:      0.000D+00 0.000D+00 0.824D+00 0.176D+00
 Gap=     0.062 Goal=   None    Shift=    0.000
 RMSDP=6.52D-04 MaxDP=8.09D-02 DE= 1.05D+00 OVMax= 3.85D-01

 Cycle   5  Pass 1  IDiag  1:
 RMSU=  2.26D-04    CP:  1.00D+00  1.05D+00  5.56D-01  4.85D-01
 E= -1455.54354536119     Delta-E=       -1.096590799443 Rises=F Damp=F
 DIIS: error= 1.22D-02 at cycle   5 NSaved=   5.
 NSaved= 5 IEnMin= 5 EnMin= -1455.54354536119     IErMin= 2 ErrMin= 7.50D-03
 ErrMax= 1.22D-02  0.00D+00 EMaxC= 1.00D-01 BMatC= 1.04D-01 BMatP= 1.12D-01
 IDIUse=3 WtCom= 8.78D-01 WtEn= 1.22D-01
 Coeff-Com: -0.800D-01 0.208D+00 0.400D+00-0.462D-01 0.518D+00
 Coeff-En:   0.000D+00 0.000D+00 0.443D+00 0.000D+00 0.557D+00
 Coeff:     -0.702D-01 0.182D+00 0.405D+00-0.405D-01 0.523D+00
 Gap=     0.064 Goal=   None    Shift=    0.000
 RMSDP=3.07D-04 MaxDP=4.94D-02 DE=-1.10D+00 OVMax= 1.91D-01

 Cycle   6  Pass 1  IDiag  1:
 RMSU=  9.98D-05    CP:  1.00D+00  1.12D+00  7.48D-01  2.73D-01  6.37D-01
 E= -1455.65223339603     Delta-E=       -0.108688034835 Rises=F Damp=F
 DIIS: error= 1.33D-03 at cycle   6 NSaved=   6.
 NSaved= 6 IEnMin= 6 EnMin= -1455.65223339603     IErMin= 6 ErrMin= 1.33D-03
 ErrMax= 1.33D-03  0.00D+00 EMaxC= 1.00D-01 BMatC= 3.51D-03 BMatP= 1.04D-01
 IDIUse=3 WtCom= 9.87D-01 WtEn= 1.33D-02
 Coeff-Com: -0.329D-01 0.655D-01 0.193D+00-0.566D-01 0.374D+00 0.457D+00
 Coeff-En:   0.000D+00 0.000D+00 0.000D+00 0.000D+00 0.000D+00 0.100D+01
 Coeff:     -0.325D-01 0.646D-01 0.191D+00-0.558D-01 0.369D+00 0.464D+00
 Gap=     0.071 Goal=   None    Shift=    0.000
 RMSDP=8.05D-05 MaxDP=1.35D-02 DE=-1.09D-01 OVMax= 2.27D-02

 Cycle   7  Pass 1  IDiag  1:
 RMSU=  3.39D-05    CP:  1.00D+00  1.09D+00  7.35D-01  2.60D-01  7.38D-01
                    CP:  4.11D-01
 E= -1455.65513631002     Delta-E=       -0.002902913994 Rises=F Damp=F
 DIIS: error= 8.72D-04 at cycle   7 NSaved=   7.
 NSaved= 7 IEnMin= 7 EnMin= -1455.65513631002     IErMin= 7 ErrMin= 8.72D-04
 ErrMax= 8.72D-04  0.00D+00 EMaxC= 1.00D-01 BMatC= 4.28D-04 BMatP= 3.51D-03
 IDIUse=3 WtCom= 9.91D-01 WtEn= 8.72D-03
 Coeff-Com: -0.165D-01 0.320D-01 0.848D-01-0.272D-01 0.159D+00 0.293D+00
 Coeff-Com:  0.475D+00
 Coeff-En:   0.000D+00 0.000D+00 0.000D+00 0.000D+00 0.000D+00 0.123D+00
 Coeff-En:   0.877D+00
 Coeff:     -0.164D-01 0.317D-01 0.840D-01-0.270D-01 0.158D+00 0.291D+00
 Coeff:      0.478D+00
 Gap=     0.070 Goal=   None    Shift=    0.000
 RMSDP=2.79D-05 MaxDP=2.59D-03 DE=-2.90D-03 OVMax= 1.50D-02

 Cycle   8  Pass 1  IDiag  1:
 RMSU=  1.84D-05    CP:  1.00D+00  1.09D+00  7.39D-01  2.60D-01  7.22D-01
                    CP:  5.40D-01  5.69D-01
 E= -1455.65546278136     Delta-E=       -0.000326471337 Rises=F Damp=F
 DIIS: error= 3.75D-04 at cycle   8 NSaved=   8.
 NSaved= 8 IEnMin= 8 EnMin= -1455.65546278136     IErMin= 8 ErrMin= 3.75D-04
 ErrMax= 3.75D-04  0.00D+00 EMaxC= 1.00D-01 BMatC= 1.24D-04 BMatP= 4.28D-04
 IDIUse=3 WtCom= 9.96D-01 WtEn= 3.75D-03
 Coeff-Com: -0.575D-03 0.157D-02 0.975D-02-0.181D-02 0.478D-02 0.965D-01
 Coeff-Com:  0.392D+00 0.498D+00
 Coeff-En:   0.000D+00 0.000D+00 0.000D+00 0.000D+00 0.000D+00 0.000D+00
 Coeff-En:   0.269D+00 0.731D+00
 Coeff:     -0.573D-03 0.157D-02 0.971D-02-0.180D-02 0.476D-02 0.961D-01
 Coeff:      0.392D+00 0.499D+00
 Gap=     0.070 Goal=   None    Shift=    0.000
 RMSDP=1.15D-05 MaxDP=1.00D-03 DE=-3.26D-04 OVMax= 4.42D-03

 Cycle   9  Pass 1  IDiag  1:
 RMSU=  4.92D-06    CP:  1.00D+00  1.09D+00  7.42D-01  2.59D-01  7.15D-01
                    CP:  5.31D-01  6.96D-01  5.23D-01
 E= -1455.65559984397     Delta-E=       -0.000137062606 Rises=F Damp=F
 DIIS: error= 4.08D-05 at cycle   9 NSaved=   9.
 NSaved= 9 IEnMin= 9 EnMin= -1455.65559984397     IErMin= 9 ErrMin= 4.08D-05
 ErrMax= 4.08D-05  0.00D+00 EMaxC= 1.00D-01 BMatC= 4.03D-06 BMatP= 1.24D-04
 IDIUse=1 WtCom= 1.00D+00 WtEn= 0.00D+00
 Coeff-Com:  0.214D-03-0.101D-03 0.357D-02-0.254D-03-0.215D-02 0.516D-01
 Coeff-Com:  0.228D+00 0.309D+00 0.410D+00
 Coeff:      0.214D-03-0.101D-03 0.357D-02-0.254D-03-0.215D-02 0.516D-01
 Coeff:      0.228D+00 0.309D+00 0.410D+00
 Gap=     0.070 Goal=   None    Shift=    0.000
 RMSDP=2.89D-06 MaxDP=5.68D-04 DE=-1.37D-04 OVMax= 4.90D-04

 Cycle  10  Pass 1  IDiag  1:
 RMSU=  1.73D-06    CP:  1.00D+00  1.09D+00  7.41D-01  2.59D-01  7.17D-01
                    CP:  5.27D-01  7.06D-01  5.65D-01  7.47D-01
 E= -1455.65560332073     Delta-E=       -0.000003476763 Rises=F Damp=F
 DIIS: error= 1.04D-05 at cycle  10 NSaved=  10.
 NSaved=10 IEnMin=10 EnMin= -1455.65560332073     IErMin=10 ErrMin= 1.04D-05
 ErrMax= 1.04D-05  0.00D+00 EMaxC= 1.00D-01 BMatC= 2.80D-07 BMatP= 4.03D-06
 IDIUse=1 WtCom= 1.00D+00 WtEn= 0.00D+00
 Coeff-Com:  0.177D-03-0.176D-03 0.112D-02 0.768D-04-0.194D-02 0.204D-01
 Coeff-Com:  0.923D-01 0.129D+00 0.248D+00 0.511D+00
 Coeff:      0.177D-03-0.176D-03 0.112D-02 0.768D-04-0.194D-02 0.204D-01
 Coeff:      0.923D-01 0.129D+00 0.248D+00 0.511D+00
 Gap=     0.070 Goal=   None    Shift=    0.000
 RMSDP=1.42D-06 MaxDP=3.29D-04 DE=-3.48D-06 OVMax= 2.25D-04

 Cycle  11  Pass 1  IDiag  1:
 RMSU=  5.96D-07    CP:  1.00D+00  1.09D+00  7.41D-01  2.59D-01  7.15D-01
                    CP:  5.31D-01  7.02D-01  5.53D-01  8.00D-01  6.48D-01
 E= -1455.65560354446     Delta-E=       -0.000000223737 Rises=F Damp=F
 DIIS: error= 3.87D-06 at cycle  11 NSaved=  11.
 NSaved=11 IEnMin=11 EnMin= -1455.65560354446     IErMin=11 ErrMin= 3.87D-06
 ErrMax= 3.87D-06  0.00D+00 EMaxC= 1.00D-01 BMatC= 3.88D-08 BMatP= 2.80D-07
 IDIUse=1 WtCom= 1.00D+00 WtEn= 0.00D+00
 Coeff-Com:  0.453D-04 0.104D-04 0.434D-03 0.427D-04-0.112D-02 0.933D-02
 Coeff-Com:  0.420D-01 0.593D-01 0.130D+00 0.335D+00 0.425D+00
 Coeff:      0.453D-04 0.104D-04 0.434D-03 0.427D-04-0.112D-02 0.933D-02
 Coeff:      0.420D-01 0.593D-01 0.130D+00 0.335D+00 0.425D+00
 Gap=     0.070 Goal=   None    Shift=    0.000
 RMSDP=5.19D-07 MaxDP=1.22D-04 DE=-2.24D-07 OVMax= 8.23D-05

 Cycle  12  Pass 1  IDiag  1:
 RMSU=  1.57D-07    CP:  1.00D+00  1.09D+00  7.41D-01  2.59D-01  7.16D-01
                    CP:  5.29D-01  7.05D-01  5.59D-01  7.84D-01  7.39D-01
                    CP:  6.51D-01
 E= -1455.65560357980     Delta-E=       -0.000000035338 Rises=F Damp=F
 DIIS: error= 6.80D-07 at cycle  12 NSaved=  12.
 NSaved=12 IEnMin=12 EnMin= -1455.65560357980     IErMin=12 ErrMin= 6.80D-07
 ErrMax= 6.80D-07  0.00D+00 EMaxC= 1.00D-01 BMatC= 1.53D-09 BMatP= 3.88D-08
 IDIUse=1 WtCom= 1.00D+00 WtEn= 0.00D+00
 Coeff-Com:  0.325D-05 0.207D-04 0.934D-04 0.119D-04-0.302D-03 0.220D-02
 Coeff-Com:  0.942D-02 0.134D-01 0.332D-01 0.103D+00 0.210D+00 0.629D+00
 Coeff:      0.325D-05 0.207D-04 0.934D-04 0.119D-04-0.302D-03 0.220D-02
 Coeff:      0.942D-02 0.134D-01 0.332D-01 0.103D+00 0.210D+00 0.629D+00
 Gap=     0.070 Goal=   None    Shift=    0.000
 RMSDP=8.87D-08 MaxDP=1.83D-05 DE=-3.53D-08 OVMax= 1.33D-05

 Cycle  13  Pass 1  IDiag  1:
 RMSU=  3.75D-08    CP:  1.00D+00  1.09D+00  7.41D-01  2.59D-01  7.16D-01
                    CP:  5.30D-01  7.05D-01  5.59D-01  7.90D-01  7.35D-01
                    CP:  7.00D-01  8.51D-01
 E= -1455.65560358082     Delta-E=       -0.000000001017 Rises=F Damp=F
 DIIS: error= 5.92D-07 at cycle  13 NSaved=  13.
 NSaved=13 IEnMin=13 EnMin= -1455.65560358082     IErMin=13 ErrMin= 5.92D-07
 ErrMax= 5.92D-07  0.00D+00 EMaxC= 1.00D-01 BMatC= 4.07D-10 BMatP= 1.53D-09
 IDIUse=1 WtCom= 1.00D+00 WtEn= 0.00D+00
 Coeff-Com:  0.362D-05-0.132D-06 0.197D-04 0.601D-05-0.923D-04 0.580D-03
 Coeff-Com:  0.228D-02 0.328D-02 0.931D-02 0.350D-01 0.933D-01 0.405D+00
 Coeff-Com:  0.451D+00
 Coeff:      0.362D-05-0.132D-06 0.197D-04 0.601D-05-0.923D-04 0.580D-03
 Coeff:      0.228D-02 0.328D-02 0.931D-02 0.350D-01 0.933D-01 0.405D+00
 Coeff:      0.451D+00
 Gap=     0.070 Goal=   None    Shift=    0.000
 RMSDP=2.40D-08 MaxDP=3.78D-06 DE=-1.02D-09 OVMax= 5.50D-06

 Cycle  14  Pass 1  IDiag  1:
 RMSU=  1.39D-08    CP:  1.00D+00  1.09D+00  7.41D-01  2.59D-01  7.16D-01
                    CP:  5.30D-01  7.05D-01  5.59D-01  7.91D-01  7.40D-01
                    CP:  6.91D-01  8.81D-01  7.23D-01
 E= -1455.65560358115     Delta-E=       -0.000000000335 Rises=F Damp=F
 DIIS: error= 1.16D-07 at cycle  14 NSaved=  14.
 NSaved=14 IEnMin=14 EnMin= -1455.65560358115     IErMin=14 ErrMin= 1.16D-07
 ErrMax= 1.16D-07  0.00D+00 EMaxC= 1.00D-01 BMatC= 2.94D-11 BMatP= 4.07D-10
 IDIUse=1 WtCom= 1.00D+00 WtEn= 0.00D+00
 Coeff-Com:  0.196D-05-0.281D-05 0.356D-05 0.185D-05-0.180D-04 0.113D-03
 Coeff-Com:  0.346D-03 0.513D-03 0.201D-02 0.102D-01 0.336D-01 0.175D+00
 Coeff-Com:  0.263D+00 0.515D+00
 Coeff:      0.196D-05-0.281D-05 0.356D-05 0.185D-05-0.180D-04 0.113D-03
 Coeff:      0.346D-03 0.513D-03 0.201D-02 0.102D-01 0.336D-01 0.175D+00
 Coeff:      0.263D+00 0.515D+00
 Gap=     0.070 Goal=   None    Shift=    0.000
 RMSDP=1.13D-08 MaxDP=2.34D-06 DE=-3.35D-10 OVMax= 1.58D-06

 Cycle  15  Pass 1  IDiag  1:
 RMSU=  4.70D-09    CP:  1.00D+00  1.09D+00  7.41D-01  2.59D-01  7.16D-01
                    CP:  5.30D-01  7.05D-01  5.59D-01  7.91D-01  7.39D-01
                    CP:  6.98D-01  8.76D-01  7.52D-01  7.34D-01
 E= -1455.65560358114     Delta-E=        0.000000000010 Rises=F Damp=F
 DIIS: error= 4.25D-08 at cycle  15 NSaved=  15.
 NSaved=15 IEnMin=14 EnMin= -1455.65560358115     IErMin=15 ErrMin= 4.25D-08
 ErrMax= 4.25D-08  0.00D+00 EMaxC= 1.00D-01 BMatC= 4.31D-12 BMatP= 2.94D-11
 IDIUse=1 WtCom= 1.00D+00 WtEn= 0.00D+00
 Coeff-Com: -0.325D-07-0.236D-06-0.175D-05 0.183D-06 0.294D-06-0.158D-04
 Coeff-Com: -0.107D-03-0.144D-03-0.659D-04 0.133D-02 0.765D-02 0.507D-01
 Coeff-Com:  0.962D-01 0.316D+00 0.529D+00
 Coeff:     -0.325D-07-0.236D-06-0.175D-05 0.183D-06 0.294D-06-0.158D-04
 Coeff:     -0.107D-03-0.144D-03-0.659D-04 0.133D-02 0.765D-02 0.507D-01
 Coeff:      0.962D-01 0.316D+00 0.529D+00
 Gap=     0.070 Goal=   None    Shift=    0.000
 RMSDP=4.79D-09 MaxDP=1.04D-06 DE= 1.00D-11 OVMax= 5.40D-07

 Cycle  16  Pass 1  IDiag  1:
 RMSU=  1.60D-09    CP:  1.00D+00  1.09D+00  7.41D-01  2.59D-01  7.16D-01
                    CP:  5.30D-01  7.05D-01  5.59D-01  7.91D-01  7.40D-01
                    CP:  6.96D-01  8.83D-01  7.52D-01  7.87D-01  7.20D-01
 E= -1455.65560358117     Delta-E=       -0.000000000031 Rises=F Damp=F
 DIIS: error= 1.09D-08 at cycle  16 NSaved=  16.
 NSaved=16 IEnMin=16 EnMin= -1455.65560358117     IErMin=16 ErrMin= 1.09D-08
 ErrMax= 1.09D-08  0.00D+00 EMaxC= 1.00D-01 BMatC= 2.85D-13 BMatP= 4.31D-12
 IDIUse=1 WtCom= 1.00D+00 WtEn= 0.00D+00
 Coeff-Com: -0.111D-06-0.424D-07-0.114D-05-0.851D-08 0.144D-05-0.166D-04
 Coeff-Com: -0.799D-04-0.111D-03-0.160D-03 0.516D-04 0.194D-02 0.154D-01
 Coeff-Com:  0.340D-01 0.137D+00 0.297D+00 0.515D+00
 Coeff:     -0.111D-06-0.424D-07-0.114D-05-0.851D-08 0.144D-05-0.166D-04
 Coeff:     -0.799D-04-0.111D-03-0.160D-03 0.516D-04 0.194D-02 0.154D-01
 Coeff:      0.340D-01 0.137D+00 0.297D+00 0.515D+00
 Gap=     0.070 Goal=   None    Shift=    0.000
 RMSDP=8.76D-10 MaxDP=1.57D-07 DE=-3.09D-11 OVMax= 2.23D-07

 Error on total polarization charges =  0.06137
 SCF Done:  E(RPBE-PBE) =  -1455.65560358     A.U. after   16 cycles
            NFock= 16  Conv=0.88D-09     -V/T= 2.0045
 KE= 1.449174963483D+03 PE=-9.250094402150D+03 EE= 3.420730855127D+03
 SMD-CDS (non-electrostatic) energy       (kcal/mol) =      -4.30
 (included in total energy above)
 Leave Link  502 at Fri Mar 26 23:34:35 2021, MaxMem=  5242880000 cpu:     11115.5
 (Enter /opt/nce/packages/global/g09/l601.exe)
 Copying SCF densities to generalized density rwf, IOpCl= 0 IROHF=0.

 **********************************************************************

            Population analysis using the SCF density.

 **********************************************************************

 Alpha  occ. eigenvalues --  -24.19570 -24.19546 -24.19543 -18.79217 -14.08316
 Alpha  occ. eigenvalues --   -9.96583  -9.96580  -9.95530  -9.94885  -9.93451
 Alpha  occ. eigenvalues --   -9.93017  -9.93017  -9.92580  -9.90874  -9.90874
 Alpha  occ. eigenvalues --   -9.90766  -9.90582  -9.90581  -9.90505  -9.90504
 Alpha  occ. eigenvalues --   -9.90247  -9.90209  -9.90007  -9.90006  -9.89471
 Alpha  occ. eigenvalues --   -9.89396  -9.89246  -9.89239  -9.87975  -9.87974
 Alpha  occ. eigenvalues --   -9.86216  -6.53934  -1.06502  -1.02559  -1.02497
 Alpha  occ. eigenvalues --   -0.99246  -0.94014  -0.81624  -0.80460  -0.78766
 Alpha  occ. eigenvalues --   -0.77638  -0.74856  -0.71492  -0.70616  -0.69832
 Alpha  occ. eigenvalues --   -0.69103  -0.67850  -0.67331  -0.67191  -0.63731
 Alpha  occ. eigenvalues --   -0.61604  -0.59918  -0.58636  -0.56598  -0.55529
 Alpha  occ. eigenvalues --   -0.54481  -0.54339  -0.52513  -0.51352  -0.50711
 Alpha  occ. eigenvalues --   -0.49923  -0.48204  -0.47321  -0.46226  -0.45643
 Alpha  occ. eigenvalues --   -0.44489  -0.43198  -0.42972  -0.42293  -0.41968
 Alpha  occ. eigenvalues --   -0.41822  -0.41095  -0.40865  -0.40312  -0.40267
 Alpha  occ. eigenvalues --   -0.39735  -0.39614  -0.39465  -0.38756  -0.38512
 Alpha  occ. eigenvalues --   -0.37907  -0.37008  -0.36755  -0.36272  -0.35368
 Alpha  occ. eigenvalues --   -0.34713  -0.34624  -0.34264  -0.33620  -0.33014
 Alpha  occ. eigenvalues --   -0.32833  -0.32687  -0.32019  -0.31922  -0.31233
 Alpha  occ. eigenvalues --   -0.30777  -0.30462  -0.30027  -0.29542  -0.29098
 Alpha  occ. eigenvalues --   -0.28739  -0.28678  -0.28298  -0.25833  -0.25079
 Alpha  occ. eigenvalues --   -0.24246  -0.23305  -0.22922  -0.22718  -0.21129
 Alpha  occ. eigenvalues --   -0.20791
 Alpha virt. eigenvalues --   -0.13758  -0.07461  -0.06229  -0.05880  -0.04868
 Alpha virt. eigenvalues --   -0.04532  -0.03883  -0.03245  -0.00381   0.02495
 Alpha virt. eigenvalues --    0.03175   0.03442   0.04405   0.04431   0.04896
 Alpha virt. eigenvalues --    0.05771   0.06071   0.06226   0.06725   0.07133
 Alpha virt. eigenvalues --    0.07318   0.07587   0.07914   0.08208   0.08741
 Alpha virt. eigenvalues --    0.08899   0.09221   0.09331   0.09859   0.09972
 Alpha virt. eigenvalues --    0.10217   0.10259   0.10755   0.10893   0.11666
 Alpha virt. eigenvalues --    0.12122   0.12694   0.13145   0.13228   0.14589
 Alpha virt. eigenvalues --    0.14982   0.15145   0.15234   0.15586   0.16269
 Alpha virt. eigenvalues --    0.16739   0.17702   0.17970   0.18259   0.18455
 Alpha virt. eigenvalues --    0.18713   0.19041   0.19242   0.19279   0.19430
 Alpha virt. eigenvalues --    0.19604   0.19915   0.20350   0.20704   0.20820
 Alpha virt. eigenvalues --    0.21075   0.21237   0.21806   0.22230   0.22615
 Alpha virt. eigenvalues --    0.22858   0.23390   0.23507   0.24148   0.24246
 Alpha virt. eigenvalues --    0.24763   0.24953   0.25406   0.25668   0.25914
 Alpha virt. eigenvalues --    0.26192   0.26464   0.27028   0.27184   0.27376
 Alpha virt. eigenvalues --    0.27640   0.27922   0.28577   0.28797   0.28958
 Alpha virt. eigenvalues --    0.29474   0.29841   0.30300   0.30368   0.30778
 Alpha virt. eigenvalues --    0.31037   0.31267   0.31402   0.31600   0.32071
 Alpha virt. eigenvalues --    0.32502   0.33004   0.33564   0.33703   0.33801
 Alpha virt. eigenvalues --    0.33976   0.34171   0.34545   0.35293   0.35849
 Alpha virt. eigenvalues --    0.36578   0.36952   0.37111   0.37236   0.37512
 Alpha virt. eigenvalues --    0.37723   0.37843   0.38450   0.38686   0.38968
 Alpha virt. eigenvalues --    0.39382   0.39594   0.39778   0.39883   0.40106
 Alpha virt. eigenvalues --    0.40391   0.40932   0.41176   0.41235   0.41573
 Alpha virt. eigenvalues --    0.41688   0.42109   0.42548   0.42562   0.42991
 Alpha virt. eigenvalues --    0.43154   0.43673   0.44184   0.44373   0.44608
 Alpha virt. eigenvalues --    0.45178   0.45486   0.45536   0.45899   0.46254
 Alpha virt. eigenvalues --    0.46747   0.46807   0.47008   0.47461   0.48155
 Alpha virt. eigenvalues --    0.48479   0.48694   0.50246   0.50442   0.51196
 Alpha virt. eigenvalues --    0.51753   0.52246   0.52313   0.52908   0.53707
 Alpha virt. eigenvalues --    0.54628   0.54890   0.55067   0.55873   0.56325
 Alpha virt. eigenvalues --    0.56587   0.56986   0.57295   0.57885   0.58124
 Alpha virt. eigenvalues --    0.58286   0.59104   0.59128   0.59565   0.59750
 Alpha virt. eigenvalues --    0.60856   0.60902   0.61414   0.61571   0.61717
 Alpha virt. eigenvalues --    0.61974   0.62316   0.62476   0.62922   0.63294
 Alpha virt. eigenvalues --    0.63570   0.63603   0.63840   0.64150   0.64823
 Alpha virt. eigenvalues --    0.64892   0.65221   0.65779   0.65887   0.66141
 Alpha virt. eigenvalues --    0.66390   0.67093   0.67252   0.67369   0.67911
 Alpha virt. eigenvalues --    0.68302   0.69020   0.69304   0.69632   0.69809
 Alpha virt. eigenvalues --    0.69995   0.70325   0.70764   0.70965   0.71386
 Alpha virt. eigenvalues --    0.71721   0.72273   0.72873   0.73044   0.73651
 Alpha virt. eigenvalues --    0.73787   0.74338   0.74507   0.75086   0.75637
 Alpha virt. eigenvalues --    0.76266   0.76539   0.76787   0.77468   0.77679
 Alpha virt. eigenvalues --    0.78048   0.78519   0.78787   0.79519   0.80250
 Alpha virt. eigenvalues --    0.80830   0.80978   0.81357   0.82301   0.82551
 Alpha virt. eigenvalues --    0.82604   0.82695   0.82777   0.84443   0.84976
 Alpha virt. eigenvalues --    0.85026   0.85583   0.86058   0.86541   0.87024
 Alpha virt. eigenvalues --    0.87951   0.88230   0.88858   0.89195   0.89961
 Alpha virt. eigenvalues --    0.90668   0.91322   0.91948   0.92331   0.92453
 Alpha virt. eigenvalues --    0.93552   0.93745   0.94946   0.95123   0.95479
 Alpha virt. eigenvalues --    0.95884   0.97223   0.97763   0.98997   0.99388
 Alpha virt. eigenvalues --    0.99655   1.00317   1.00646   1.01461   1.01832
 Alpha virt. eigenvalues --    1.02508   1.02880   1.02953   1.03327   1.03804
 Alpha virt. eigenvalues --    1.04314   1.04932   1.05657   1.06241   1.06576
 Alpha virt. eigenvalues --    1.07848   1.08377   1.08869   1.09481   1.09852
 Alpha virt. eigenvalues --    1.10424   1.11174   1.12351   1.12634   1.13030
 Alpha virt. eigenvalues --    1.13718   1.14160   1.15415   1.15812   1.16267
 Alpha virt. eigenvalues --    1.16751   1.17302   1.17679   1.17778   1.18008
 Alpha virt. eigenvalues --    1.18596   1.19064   1.19253   1.20000   1.20834
 Alpha virt. eigenvalues --    1.21158   1.22424   1.22748   1.22991   1.23414
 Alpha virt. eigenvalues --    1.23446   1.23983   1.24779   1.25060   1.25176
 Alpha virt. eigenvalues --    1.26017   1.26525   1.27257   1.27997   1.28969
 Alpha virt. eigenvalues --    1.29146   1.29222   1.30049   1.31335   1.32074
 Alpha virt. eigenvalues --    1.32587   1.33028   1.34445   1.35044   1.35578
 Alpha virt. eigenvalues --    1.36181   1.36400   1.36900   1.37392   1.37668
 Alpha virt. eigenvalues --    1.38051   1.39030   1.40846   1.41678   1.41911
 Alpha virt. eigenvalues --    1.42114   1.42839   1.43139   1.44028   1.44184
 Alpha virt. eigenvalues --    1.44535   1.44928   1.45265   1.45622   1.46546
 Alpha virt. eigenvalues --    1.46803   1.46958   1.47215   1.47831   1.48123
 Alpha virt. eigenvalues --    1.48419   1.49169   1.49531   1.49815   1.50777
 Alpha virt. eigenvalues --    1.51071   1.51656   1.52365   1.52993   1.53341
 Alpha virt. eigenvalues --    1.53727   1.54085   1.54444   1.54803   1.55419
 Alpha virt. eigenvalues --    1.55661   1.56009   1.57821   1.58114   1.58345
 Alpha virt. eigenvalues --    1.58716   1.59256   1.60055   1.60209   1.60707
 Alpha virt. eigenvalues --    1.60833   1.61750   1.61919   1.62663   1.63202
 Alpha virt. eigenvalues --    1.63905   1.64389   1.64804   1.65676   1.66038
 Alpha virt. eigenvalues --    1.66669   1.67210   1.67732   1.68326   1.68401
 Alpha virt. eigenvalues --    1.68560   1.69131   1.70155   1.70389   1.70777
 Alpha virt. eigenvalues --    1.71232   1.71906   1.72120   1.73647   1.74683
 Alpha virt. eigenvalues --    1.74929   1.75638   1.76848   1.77811   1.77971
 Alpha virt. eigenvalues --    1.78718   1.78977   1.80013   1.80532   1.80904
 Alpha virt. eigenvalues --    1.81369   1.82044   1.82298   1.82836   1.83284
 Alpha virt. eigenvalues --    1.83611   1.83950   1.85149   1.86140   1.87256
 Alpha virt. eigenvalues --    1.88025   1.88365   1.88383   1.89173   1.90131
 Alpha virt. eigenvalues --    1.90891   1.91640   1.92038   1.92865   1.93396
 Alpha virt. eigenvalues --    1.93736   1.94401   1.95155   1.96850   1.97501
 Alpha virt. eigenvalues --    1.98523   1.98950   1.99186   1.99814   2.00218
 Alpha virt. eigenvalues --    2.00606   2.01115   2.01842   2.03474   2.03675
 Alpha virt. eigenvalues --    2.03741   2.04096   2.05721   2.05971   2.06234
 Alpha virt. eigenvalues --    2.06638   2.07760   2.07899   2.08369   2.09105
 Alpha virt. eigenvalues --    2.09589   2.09872   2.10609   2.11263   2.11885
 Alpha virt. eigenvalues --    2.12845   2.13993   2.14357   2.15080   2.15235
 Alpha virt. eigenvalues --    2.15506   2.15871   2.17693   2.17801   2.18444
 Alpha virt. eigenvalues --    2.18633   2.18782   2.19919   2.20552   2.20880
 Alpha virt. eigenvalues --    2.21748   2.22382   2.23184   2.24118   2.24964
 Alpha virt. eigenvalues --    2.25928   2.26303   2.27416   2.28291   2.28427
 Alpha virt. eigenvalues --    2.30290   2.30675   2.31117   2.31820   2.32556
 Alpha virt. eigenvalues --    2.33435   2.34007   2.34986   2.36259   2.36597
 Alpha virt. eigenvalues --    2.37643   2.39246   2.40142   2.40764   2.40790
 Alpha virt. eigenvalues --    2.42051   2.42277   2.43235   2.44161   2.45735
 Alpha virt. eigenvalues --    2.46090   2.46528   2.46820   2.47336   2.47753
 Alpha virt. eigenvalues --    2.48130   2.48629   2.49016   2.50230   2.50781
 Alpha virt. eigenvalues --    2.51587   2.51922   2.51971   2.52372   2.53072
 Alpha virt. eigenvalues --    2.53608   2.54147   2.54526   2.54701   2.55322
 Alpha virt. eigenvalues --    2.55606   2.55938   2.57014   2.57648   2.58137
 Alpha virt. eigenvalues --    2.58451   2.59200   2.59456   2.59622   2.59847
 Alpha virt. eigenvalues --    2.60442   2.61025   2.61731   2.61833   2.62210
 Alpha virt. eigenvalues --    2.62260   2.62493   2.63261   2.63585   2.63896
 Alpha virt. eigenvalues --    2.64454   2.64729   2.65325   2.65462   2.66325
 Alpha virt. eigenvalues --    2.66447   2.67286   2.67586   2.68003   2.68486
 Alpha virt. eigenvalues --    2.68877   2.69062   2.70664   2.70862   2.70970
 Alpha virt. eigenvalues --    2.71206   2.71667   2.72204   2.72805   2.73312
 Alpha virt. eigenvalues --    2.73607   2.74045   2.74447   2.75107   2.75477
 Alpha virt. eigenvalues --    2.75963   2.76099   2.76322   2.76580   2.76749
 Alpha virt. eigenvalues --    2.77654   2.78748   2.78909   2.79530   2.80192
 Alpha virt. eigenvalues --    2.80706   2.80802   2.81118   2.81733   2.82116
 Alpha virt. eigenvalues --    2.82397   2.83111   2.83671   2.83886   2.84603
 Alpha virt. eigenvalues --    2.84823   2.85115   2.86287   2.86697   2.87432
 Alpha virt. eigenvalues --    2.88235   2.88757   2.88930   2.89219   2.90282
 Alpha virt. eigenvalues --    2.90592   2.90991   2.91775   2.91891   2.92341
 Alpha virt. eigenvalues --    2.93138   2.94445   2.94810   2.95861   2.96125
 Alpha virt. eigenvalues --    2.96444   2.96630   2.97188   2.97656   2.98251
 Alpha virt. eigenvalues --    2.98861   2.99197   2.99933   3.00643   3.00781
 Alpha virt. eigenvalues --    3.01540   3.02320   3.02487   3.02818   3.03340
 Alpha virt. eigenvalues --    3.03936   3.04223   3.04719   3.05646   3.05752
 Alpha virt. eigenvalues --    3.06399   3.07166   3.07606   3.07864   3.08183
 Alpha virt. eigenvalues --    3.08487   3.09718   3.10205   3.10376   3.10600
 Alpha virt. eigenvalues --    3.10939   3.11576   3.11846   3.12205   3.12770
 Alpha virt. eigenvalues --    3.13307   3.14285   3.14832   3.15072   3.15297
 Alpha virt. eigenvalues --    3.16222   3.16455   3.16999   3.17984   3.18172
 Alpha virt. eigenvalues --    3.19404   3.20139   3.20579   3.20810   3.21141
 Alpha virt. eigenvalues --    3.21979   3.22146   3.22980   3.23236   3.23545
 Alpha virt. eigenvalues --    3.23618   3.24290   3.24600   3.25276   3.25576
 Alpha virt. eigenvalues --    3.25999   3.26183   3.26621   3.27187   3.27604
 Alpha virt. eigenvalues --    3.27699   3.28387   3.29164   3.29421   3.29490
 Alpha virt. eigenvalues --    3.29831   3.30434   3.30680   3.31055   3.32019
 Alpha virt. eigenvalues --    3.32296   3.32601   3.33758   3.34226   3.34474
 Alpha virt. eigenvalues --    3.34738   3.34771   3.35518   3.35859   3.36568
 Alpha virt. eigenvalues --    3.37594   3.37615   3.38092   3.38291   3.38728
 Alpha virt. eigenvalues --    3.39225   3.39592   3.40213   3.40547   3.40822
 Alpha virt. eigenvalues --    3.41085   3.41392   3.42209   3.42859   3.43199
 Alpha virt. eigenvalues --    3.43781   3.43908   3.44356   3.44927   3.45414
 Alpha virt. eigenvalues --    3.45448   3.45635   3.45909   3.46898   3.47302
 Alpha virt. eigenvalues --    3.47630   3.47812   3.48283   3.48711   3.48855
 Alpha virt. eigenvalues --    3.49858   3.50222   3.51261   3.51565   3.52232
 Alpha virt. eigenvalues --    3.52298   3.53010   3.53132   3.56194   3.56306
 Alpha virt. eigenvalues --    3.57137   3.57804   3.58315   3.59417   3.59795
 Alpha virt. eigenvalues --    3.60891   3.61581   3.62114   3.62824   3.63782
 Alpha virt. eigenvalues --    3.65873   3.66373   3.67296   3.67608   3.68889
 Alpha virt. eigenvalues --    3.69107   3.69885   3.71758   3.72621   3.74132
 Alpha virt. eigenvalues --    3.74443   3.75589   3.76376   3.76718   3.78940
 Alpha virt. eigenvalues --    3.79285   3.80169   3.81497   3.81793   3.81841
 Alpha virt. eigenvalues --    3.82571   3.86591   3.86999   3.87196   3.87445
 Alpha virt. eigenvalues --    3.88035   3.88460   3.89539   3.90558   3.90998
 Alpha virt. eigenvalues --    3.91433   3.92127   3.94193   3.94617   3.95782
 Alpha virt. eigenvalues --    3.96409   3.96863   3.97478   3.97847   3.98319
 Alpha virt. eigenvalues --    3.98939   3.99871   4.00130   4.01561   4.03055
 Alpha virt. eigenvalues --    4.03900   4.04255   4.04532   4.05480   4.05780
 Alpha virt. eigenvalues --    4.06115   4.07611   4.07999   4.08463   4.08636
 Alpha virt. eigenvalues --    4.09550   4.10340   4.11797   4.12139   4.12269
 Alpha virt. eigenvalues --    4.12662   4.13034   4.13775   4.13991   4.14384
 Alpha virt. eigenvalues --    4.14807   4.15812   4.16453   4.17025   4.17733
 Alpha virt. eigenvalues --    4.18843   4.18963   4.19952   4.20303   4.21441
 Alpha virt. eigenvalues --    4.22193   4.23801   4.24639   4.24909   4.25605
 Alpha virt. eigenvalues --    4.26551   4.26748   4.27901   4.29000   4.29923
 Alpha virt. eigenvalues --    4.31155   4.31614   4.32923   4.33734   4.35983
 Alpha virt. eigenvalues --    4.37831   4.38453   4.40321   4.41002   4.41550
 Alpha virt. eigenvalues --    4.42701   4.45292   4.46365   4.47592   4.48899
 Alpha virt. eigenvalues --    4.49509   4.51779   4.52416   4.53267   4.53877
 Alpha virt. eigenvalues --    4.55555   4.56610   4.58318   4.59047   4.61736
 Alpha virt. eigenvalues --    4.63735   4.65090   4.67596   4.68268   4.69108
 Alpha virt. eigenvalues --    4.70111   4.72322   4.73837   4.75653   4.76053
 Alpha virt. eigenvalues --    4.76818   4.78946   4.81504   4.81945   4.84339
 Alpha virt. eigenvalues --    4.86512   4.87046   4.87541   4.89659   4.90931
 Alpha virt. eigenvalues --    4.91414   4.93364   4.94952   4.95196   4.97880
 Alpha virt. eigenvalues --    5.00217   5.02168   5.03434   5.06695   5.08488
 Alpha virt. eigenvalues --    5.08736   5.12680   5.13734   5.14442   5.16922
 Alpha virt. eigenvalues --    5.17268   5.18060   5.22331   5.23338   5.25585
 Alpha virt. eigenvalues --    5.25800   5.29357   5.32118   5.37987   5.38317
 Alpha virt. eigenvalues --    5.38659   5.41827   5.43559   5.44069   5.45653
 Alpha virt. eigenvalues --    5.48175   5.53069   5.58422   5.61173   5.63497
 Alpha virt. eigenvalues --    5.67024   5.69046   5.69761   5.72103   5.80471
 Alpha virt. eigenvalues --    5.88958   5.90916   5.98739   6.12189   6.24110
 Alpha virt. eigenvalues --    6.30821   6.42495   6.49850   6.64652   6.72833
 Alpha virt. eigenvalues --    6.74147   6.77150   6.77351   6.77464   6.77860
 Alpha virt. eigenvalues --    6.77881   6.78259   6.78811   6.79154   6.88237
 Alpha virt. eigenvalues --    6.92340   6.93496   6.95016   6.96158   6.96687
 Alpha virt. eigenvalues --    7.03625   7.12117   7.14118   7.14436   7.17050
 Alpha virt. eigenvalues --    7.26763   7.27180   7.28323   8.19699   8.23379
 Alpha virt. eigenvalues --    8.23519   8.36406   8.36854   8.41663   8.68051
 Alpha virt. eigenvalues --    8.68256   8.70945   8.71001   8.75158   8.75361
 Alpha virt. eigenvalues --    8.76185   8.80804   8.82543  15.47545  21.94957
 Alpha virt. eigenvalues --   22.07587  22.09374  22.16562  22.19206  22.35343
 Alpha virt. eigenvalues --   22.35995  22.37544  22.38291  22.39345  22.41437
 Alpha virt. eigenvalues --   22.44844  22.46228  22.49658  22.50283  22.56552
 Alpha virt. eigenvalues --   22.62110  22.64094  22.66184  22.71721  22.80393
 Alpha virt. eigenvalues --   22.86945  23.00815  23.05196  23.10205  23.41774
 Alpha virt. eigenvalues --   32.98449  43.83261  56.60529  56.68579  56.73853
          Condensed to atoms (all electrons):
 Mulliken charges:
               1
     1  C   -0.126165
[...]
 Alpha virt. eigenvalues --    0.56438   0.56733   0.57424   0.57779   0.57947
 Alpha virt. eigenvalues --    0.58150   0.58827   0.59139   0.59754   0.60151
 Alpha virt. eigenvalues --    0.60669   0.60863   0.61233   0.61604   0.61665
 Alpha virt. eigenvalues --    0.62049   0.62133   0.62458   0.62882   0.63098
 Alpha virt. eigenvalues --    0.63465   0.63589   0.63715   0.64114   0.64245
 Alpha virt. eigenvalues --    0.65097   0.65430   0.65539   0.66011   0.66082
 Alpha virt. eigenvalues --    0.66657   0.66944   0.67217   0.67447   0.67817
 Alpha virt. eigenvalues --    0.68476   0.68834   0.69300   0.69726   0.69971
 Alpha virt. eigenvalues --    0.70208   0.70590   0.70900   0.70968   0.71466
 Alpha virt. eigenvalues --    0.71633   0.72252   0.72467   0.72988   0.73444
 Alpha virt. eigenvalues --    0.73566   0.74178   0.74933   0.74940   0.75809
 Alpha virt. eigenvalues --    0.76249   0.76670   0.76830   0.77548   0.77849
 Alpha virt. eigenvalues --    0.78078   0.78490   0.78639   0.79537   0.79935
 Alpha virt. eigenvalues --    0.80373   0.81141   0.81492   0.82045   0.82186
 Alpha virt. eigenvalues --    0.82436   0.82703   0.83177   0.84223   0.84861
 Alpha virt. eigenvalues --    0.84971   0.85418   0.85768   0.86405   0.86852
 Alpha virt. eigenvalues --    0.87935   0.88257   0.89172   0.89549   0.89981
 Alpha virt. eigenvalues --    0.90604   0.91674   0.91755   0.92157   0.92675
 Alpha virt. eigenvalues --    0.93695   0.93877   0.94514   0.95256   0.95817
 Alpha virt. eigenvalues --    0.96340   0.97337   0.97773   0.99044   0.99384
 Alpha virt. eigenvalues --    0.99977   1.00574   1.01160   1.01425   1.01813
 Alpha virt. eigenvalues --    1.02514   1.02891   1.03149   1.03351   1.03843
 Alpha virt. eigenvalues --    1.04375   1.05180   1.05784   1.05869   1.06677
 Alpha virt. eigenvalues --    1.07555   1.08182   1.08913   1.09318   1.09861
 Alpha virt. eigenvalues --    1.10463   1.11084   1.11802   1.12354   1.12752
 Alpha virt. eigenvalues --    1.13452   1.14277   1.15671   1.15827   1.16300
 Alpha virt. eigenvalues --    1.16866   1.17529   1.17660   1.18040   1.18208
 Alpha virt. eigenvalues --    1.18717   1.19030   1.19294   1.20078   1.20708
 Alpha virt. eigenvalues --    1.20869   1.22392   1.22768   1.22844   1.23278
 Alpha virt. eigenvalues --    1.23412   1.24361   1.24753   1.25047   1.25400
 Alpha virt. eigenvalues --    1.26000   1.26781   1.27560   1.28259   1.28554
 Alpha virt. eigenvalues --    1.29697   1.29989   1.30310   1.31367   1.32044
 Alpha virt. eigenvalues --    1.32723   1.33420   1.34211   1.34735   1.35504
 Alpha virt. eigenvalues --    1.36016   1.36403   1.36940   1.37139   1.37424
 Alpha virt. eigenvalues --    1.37969   1.38861   1.40642   1.41665   1.41979
 Alpha virt. eigenvalues --    1.42753   1.42871   1.42994   1.44280   1.44396
 Alpha virt. eigenvalues --    1.44813   1.45151   1.45537   1.45739   1.46406
 Alpha virt. eigenvalues --    1.46786   1.47003   1.47175   1.48046   1.48288
 Alpha virt. eigenvalues --    1.48779   1.49373   1.49836   1.50065   1.50464
 Alpha virt. eigenvalues --    1.51027   1.51252   1.52447   1.52800   1.52976
 Alpha virt. eigenvalues --    1.53457   1.53617   1.54067   1.54435   1.55244
 Alpha virt. eigenvalues --    1.55667   1.56225   1.57528   1.58022   1.58399
 Alpha virt. eigenvalues --    1.58601   1.59245   1.59510   1.59678   1.60405
 Alpha virt. eigenvalues --    1.60654   1.61289   1.62043   1.62864   1.63296
 Alpha virt. eigenvalues --    1.63742   1.63850   1.64625   1.65574   1.65793
 Alpha virt. eigenvalues --    1.66081   1.66844   1.66975   1.67944   1.68257
 Alpha virt. eigenvalues --    1.68645   1.69060   1.69777   1.70234   1.70572
 Alpha virt. eigenvalues --    1.70874   1.71427   1.72525   1.73181   1.74075
 Alpha virt. eigenvalues --    1.74476   1.75732   1.76172   1.77338   1.78130
 Alpha virt. eigenvalues --    1.78743   1.78961   1.80054   1.80581   1.81159
 Alpha virt. eigenvalues --    1.81437   1.81533   1.82298   1.82540   1.82987
 Alpha virt. eigenvalues --    1.83646   1.84402   1.85116   1.86296   1.87115
 Alpha virt. eigenvalues --    1.87441   1.87564   1.88055   1.89307   1.90048
 Alpha virt. eigenvalues --    1.90995   1.91615   1.91999   1.92903   1.93560
 Alpha virt. eigenvalues --    1.93848   1.95241   1.95953   1.96801   1.97463
 Alpha virt. eigenvalues --    1.98298   1.98866   1.99055   1.99598   2.00417
 Alpha virt. eigenvalues --    2.00566   2.00949   2.01835   2.03140   2.03383
 Alpha virt. eigenvalues --    2.03676   2.03925   2.04709   2.05608   2.06189
 Alpha virt. eigenvalues --    2.06437   2.06820   2.08111   2.08501   2.08991
 Alpha virt. eigenvalues --    2.09629   2.09927   2.10098   2.11183   2.12997
 Alpha virt. eigenvalues --    2.13411   2.13785   2.14299   2.15109   2.15488
 Alpha virt. eigenvalues --    2.15801   2.16477   2.17480   2.17749   2.18688
 Alpha virt. eigenvalues --    2.19227   2.19572   2.19923   2.20546   2.21209
 Alpha virt. eigenvalues --    2.22004   2.22490   2.22891   2.23704   2.24644
 Alpha virt. eigenvalues --    2.25237   2.26440   2.27540   2.28560   2.29071
 Alpha virt. eigenvalues --    2.29905   2.30278   2.30764   2.31817   2.32521
 Alpha virt. eigenvalues --    2.33356   2.34210   2.34455   2.35488   2.36644
 Alpha virt. eigenvalues --    2.38041   2.39149   2.39399   2.40584   2.41538
 Alpha virt. eigenvalues --    2.41975   2.42590   2.43988   2.44713   2.45324
 Alpha virt. eigenvalues --    2.46290   2.46379   2.46721   2.47116   2.47949
 Alpha virt. eigenvalues --    2.48284   2.48649   2.49458   2.50147   2.50728
 Alpha virt. eigenvalues --    2.51299   2.51845   2.51939   2.52252   2.52539
 Alpha virt. eigenvalues --    2.52880   2.53616   2.54096   2.54674   2.54783
 Alpha virt. eigenvalues --    2.55740   2.56275   2.57486   2.57671   2.57910
 Alpha virt. eigenvalues --    2.58375   2.58703   2.58894   2.59405   2.59634
 Alpha virt. eigenvalues --    2.60475   2.60958   2.61639   2.61679   2.62168
 Alpha virt. eigenvalues --    2.62308   2.62908   2.63053   2.63434   2.63479
 Alpha virt. eigenvalues --    2.63906   2.64256   2.64862   2.65403   2.65817
 Alpha virt. eigenvalues --    2.66566   2.67171   2.67834   2.68057   2.68118
 Alpha virt. eigenvalues --    2.68574   2.68825   2.70071   2.70207   2.70693
 Alpha virt. eigenvalues --    2.70967   2.71488   2.71878   2.72368   2.72844
 Alpha virt. eigenvalues --    2.73351   2.73685   2.74433   2.74715   2.75081
 Alpha virt. eigenvalues --    2.75344   2.75651   2.76302   2.76381   2.76740
 Alpha virt. eigenvalues --    2.77566   2.78589   2.78941   2.79277   2.80113
 Alpha virt. eigenvalues --    2.80366   2.80792   2.81079   2.81351   2.81868
 Alpha virt. eigenvalues --    2.82575   2.83129   2.83407   2.83634   2.84749
 Alpha virt. eigenvalues --    2.85001   2.85171   2.86151   2.86384   2.86812
 Alpha virt. eigenvalues --    2.87549   2.87945   2.88826   2.89048   2.89921
 Alpha virt. eigenvalues --    2.90202   2.90839   2.91350   2.92134   2.92599
 Alpha virt. eigenvalues --    2.92947   2.94342   2.94718   2.95366   2.95922
 Alpha virt. eigenvalues --    2.96260   2.96452   2.96972   2.97986   2.98417
 Alpha virt. eigenvalues --    2.98664   2.99633   2.99917   3.00152   3.00739
 Alpha virt. eigenvalues --    3.01434   3.02177   3.02916   3.03187   3.03797
 Alpha virt. eigenvalues --    3.04010   3.04430   3.04605   3.05695   3.05928
 Alpha virt. eigenvalues --    3.06135   3.06562   3.07059   3.07636   3.08370
 Alpha virt. eigenvalues --    3.08521   3.09906   3.10044   3.10498   3.10682
 Alpha virt. eigenvalues --    3.11200   3.11563   3.12091   3.12153   3.12696
 Alpha virt. eigenvalues --    3.13486   3.14304   3.14990   3.15465   3.15765
 Alpha virt. eigenvalues --    3.16340   3.16502   3.17537   3.17895   3.18413
 Alpha virt. eigenvalues --    3.19076   3.19805   3.20583   3.20644   3.21019
 Alpha virt. eigenvalues --    3.21418   3.21892   3.22345   3.22940   3.23521
 Alpha virt. eigenvalues --    3.23640   3.24586   3.25079   3.25228   3.25614
 Alpha virt. eigenvalues --    3.25807   3.26302   3.26618   3.27377   3.27613
 Alpha virt. eigenvalues --    3.27705   3.28426   3.29220   3.29355   3.29704
 Alpha virt. eigenvalues --    3.29936   3.30319   3.30525   3.31137   3.31755
 Alpha virt. eigenvalues --    3.32295   3.32814   3.33424   3.33935   3.34371
 Alpha virt. eigenvalues --    3.34532   3.34962   3.35494   3.35895   3.36404
 Alpha virt. eigenvalues --    3.36794   3.37607   3.37896   3.38168   3.38825
 Alpha virt. eigenvalues --    3.39073   3.39340   3.39821   3.40364   3.40765
 Alpha virt. eigenvalues --    3.41117   3.41170   3.41899   3.42123   3.43043
 Alpha virt. eigenvalues --    3.43533   3.43560   3.43916   3.44368   3.44597
 Alpha virt. eigenvalues --    3.45272   3.45607   3.45904   3.46449   3.46737
 Alpha virt. eigenvalues --    3.47255   3.47763   3.48253   3.48500   3.49286
 Alpha virt. eigenvalues --    3.49384   3.49819   3.50468   3.51156   3.51464
 Alpha virt. eigenvalues --    3.51809   3.52841   3.54159   3.54991   3.55726
 Alpha virt. eigenvalues --    3.56135   3.57543   3.58204   3.58689   3.59179
 Alpha virt. eigenvalues --    3.59582   3.60710   3.61459   3.63129   3.63440
 Alpha virt. eigenvalues --    3.65470   3.65753   3.67014   3.67397   3.68925
 Alpha virt. eigenvalues --    3.69560   3.69811   3.71254   3.71997   3.73919
 Alpha virt. eigenvalues --    3.74097   3.74592   3.75659   3.77459   3.77991
 Alpha virt. eigenvalues --    3.79698   3.80635   3.80989   3.81477   3.82179
 Alpha virt. eigenvalues --    3.82585   3.85961   3.86608   3.86851   3.87791
 Alpha virt. eigenvalues --    3.87915   3.88485   3.89434   3.90818   3.91083
 Alpha virt. eigenvalues --    3.91697   3.92206   3.93295   3.95032   3.95284
 Alpha virt. eigenvalues --    3.96009   3.96398   3.96827   3.97429   3.97818
 Alpha virt. eigenvalues --    3.98523   4.00005   4.00364   4.00990   4.02801
 Alpha virt. eigenvalues --    4.03467   4.04649   4.04921   4.05023   4.06108
 Alpha virt. eigenvalues --    4.06622   4.07676   4.07731   4.08751   4.08997
 Alpha virt. eigenvalues --    4.09977   4.11251   4.11645   4.11797   4.12272
 Alpha virt. eigenvalues --    4.12442   4.13300   4.13404   4.13906   4.14145
 Alpha virt. eigenvalues --    4.14603   4.15782   4.16360   4.17645   4.17817
 Alpha virt. eigenvalues --    4.18358   4.18516   4.19853   4.20275   4.20946
 Alpha virt. eigenvalues --    4.22054   4.23405   4.23542   4.24018   4.25152
 Alpha virt. eigenvalues --    4.25748   4.26953   4.28804   4.29100   4.31404
 Alpha virt. eigenvalues --    4.32246   4.32659   4.33855   4.34881   4.36217
 Alpha virt. eigenvalues --    4.36608   4.38939   4.40712   4.41489   4.42069
 Alpha virt. eigenvalues --    4.43338   4.45538   4.46110   4.48755   4.48922
 Alpha virt. eigenvalues --    4.49276   4.51615   4.52588   4.53497   4.53995
 Alpha virt. eigenvalues --    4.56052   4.56609   4.58292   4.59031   4.62352
 Alpha virt. eigenvalues --    4.62865   4.65003   4.68123   4.68158   4.68718
 Alpha virt. eigenvalues --    4.70530   4.72875   4.73738   4.75635   4.76480
 Alpha virt. eigenvalues --    4.77384   4.78212   4.81709   4.82287   4.84114
 Alpha virt. eigenvalues --    4.86283   4.86646   4.87582   4.89301   4.91085
 Alpha virt. eigenvalues --    4.91385   4.93096   4.94952   4.95514   4.98636
 Alpha virt. eigenvalues --    5.01069   5.02773   5.04232   5.06797   5.08681
 Alpha virt. eigenvalues --    5.10053   5.12192   5.13987   5.14625   5.15867
 Alpha virt. eigenvalues --    5.18405   5.18851   5.21848   5.23614   5.25275
 Alpha virt. eigenvalues --    5.26168   5.30991   5.32622   5.36518   5.37274
 Alpha virt. eigenvalues --    5.38665   5.43656   5.43722   5.44998   5.45268
 Alpha virt. eigenvalues --    5.49028   5.54673   5.58984   5.61016   5.62417
 Alpha virt. eigenvalues --    5.65857   5.68045   5.71135   5.72715   5.76256
 Alpha virt. eigenvalues --    5.86711   5.92138   5.98359   6.12578   6.21903
 Alpha virt. eigenvalues --    6.31444   6.38419   6.49727   6.64807   6.71136
 Alpha virt. eigenvalues --    6.74965   6.77579   6.77871   6.78012   6.78132
 Alpha virt. eigenvalues --    6.78179   6.78506   6.78639   6.79421   6.87508
 Alpha virt. eigenvalues --    6.89222   6.90110   6.94319   6.95376   6.95614
 Alpha virt. eigenvalues --    7.02622   7.09636   7.11654   7.12583   7.15196
 Alpha virt. eigenvalues --    7.24025   7.24923   7.28061   8.20369   8.22355
 Alpha virt. eigenvalues --    8.22662   8.35753   8.35912   8.41934   8.62335
 Alpha virt. eigenvalues --    8.64148   8.64826   8.68241   8.71882   8.75637
 Alpha virt. eigenvalues --    8.76120   8.80425   8.82037  15.28314  21.96691
 Alpha virt. eigenvalues --   22.04461  22.06711  22.16281  22.20792  22.35463
 Alpha virt. eigenvalues --   22.35900  22.37438  22.38349  22.39893  22.42368
 Alpha virt. eigenvalues --   22.43913  22.46474  22.50289  22.51775  22.56585
 Alpha virt. eigenvalues --   22.63583  22.64655  22.66265  22.71802  22.83326
 Alpha virt. eigenvalues --   22.90110  23.01449  23.04404  23.11820  23.44509
 Alpha virt. eigenvalues --   32.98566  43.81088  56.58350  56.65028  56.67292
          Condensed to atoms (all electrons):
 Mulliken charges:
               1
     1  C   -0.122944
     2  C   -0.168319
     3  C    0.076511
     4  C    0.123345
     5  C   -0.229770
     6  C   -0.130102
     7  C    0.216360
     8  C    0.122561
     9  C    0.077472
    10  C   -0.168539
    11  H    0.168661
    12  C   -0.122872
    13  C   -0.129694
    14  C   -0.228950
    15  H    0.159584
    16  H    0.168835
    17  H    0.175202
    18  H    0.155898
    19  H    0.159583
    20  H    0.155936
    21  H    0.174940
    22  N    0.332163
    23  C    0.055186
    24  C   -0.256726
    25  C   -0.254538
    26  C   -0.227680
    27  C   -0.231424
    28  C    0.053885
    29  H    0.126540
    30  H    0.144858
    31  C   -0.000995
    32  C   -0.210768
    33  C   -0.182389
    34  C   -0.236653
    35  H    0.151385
    36  C   -0.204054
    37  H    0.146581
    38  C    0.324298
    39  H    0.158018
    40  H    0.133799
    41  O   -0.203304
    42  C   -0.259099
    43  H    0.163083
    44  H    0.152408
    45  H    0.152350
    46  H    0.127514
    47  B    0.469124
    48  F   -0.401320
    49  F   -0.398791
    50  F   -0.401497
    51  H    0.144346
 Sum of Mulliken charges =  -0.00000
 Mulliken charges with hydrogens summed into heavy atoms:
               1
     1  C    0.036641
     2  C    0.000516
     3  C    0.076511
     4  C    0.123345
     5  C   -0.054568
     6  C    0.025796
     7  C    0.216360
     8  C    0.122561
     9  C    0.077472
    10  C    0.000123
    12  C    0.036711
    13  C    0.026242
    14  C   -0.054010
    22  N    0.332163
    23  C    0.055186
    24  C   -0.112379
    25  C   -0.109680
    26  C   -0.100166
    27  C   -0.104884
    28  C    0.053885
    31  C   -0.000995
    32  C   -0.059382
    33  C   -0.035808
    34  C   -0.078636
    36  C   -0.070254
    38  C    0.324298
    41  O   -0.203304
    42  C    0.208741
    47  B    0.469124
    48  F   -0.401320
    49  F   -0.398791
    50  F   -0.401497
 Electronic spatial extent (au):  <R**2>=          19343.2277
 Charge=             -0.0000 electrons
 Dipole moment (field-independent basis, Debye):
    X=            -39.2039    Y=              0.1476    Z=              0.9996  Tot=             39.2169
 Quadrupole moment (field-independent basis, Debye-Ang):
   XX=           -345.7424   YY=           -153.2481   ZZ=           -178.6165
   XY=              0.7361   XZ=            -15.8336   YZ=             -1.8934
 Traceless Quadrupole moment (field-independent basis, Debye-Ang):
   XX=           -119.8734   YY=             72.6209   ZZ=             47.2525
   XY=              0.7361   XZ=            -15.8336   YZ=             -1.8934
 Octapole moment (field-independent basis, Debye-Ang**2):
  XXX=          -2035.2009  YYY=              0.8133  ZZZ=             -3.8901  XYY=            -32.9042
  XXY=              6.5420  XXZ=             89.4948  XZZ=            -43.8196  YZZ=             -1.0137
  YYZ=              2.3940  XYZ=            -12.3502
 Hexadecapole moment (field-independent basis, Debye-Ang**3):
 XXXX=         -29650.0621 YYYY=          -2588.8172 ZZZZ=           -750.4786 XXXY=             28.0844
 XXXZ=          -1047.5952 YYYX=              0.5597 YYYZ=             36.9760 ZZZX=            -26.5996
 ZZZY=            -22.2814 XXYY=          -4205.5103 XXZZ=          -3570.1382 YYZZ=           -740.4972
 XXYZ=            -51.3524 YYXZ=             20.7609 ZZXY=             -3.3563
 N-N= 2.921096096835D+03 E-N=-9.242879368717D+03  KE= 1.449101513222D+03
 Leave Link  601 at Sat Mar 27 09:25:18 2021, MaxMem=  5242880000 cpu:         6.5
 (Enter /opt/nce/packages/global/g09/l9999.exe)
 1\1\GINC-CN032\SP\RPBEPBE TD-FC\Gen\C26H19B1F3N1O1\PNG4RJV\27-Mar-2021
 \0\\#p PBEPBE chkbasis geom=allcheck Guess=Read int=ultrafine scrf=(SM
 D,solvent=Acetonitrile) td=(NStates=30) EmpiricalDispersion=GD3BJ\\Tit
 le\\0,1\C,0,1.343291531,3.6187288776,-0.1119491996\C,0,2.0132696356,2.
 4183724288,-0.0055517786\C,0,1.2854817841,1.2064188875,0.0219474041\C,
 0,-0.1490460422,1.2307572469,-0.0314426151\C,0,-0.7922618966,2.4947549
 788,-0.1756205935\C,0,-0.0668656701,3.6613189795,-0.2123281316\C,0,-0.
 8760604903,0.0159131981,0.0271053694\C,0,-0.1654507666,-1.2065839867,0
 .1188913688\C,0,1.2702088561,-1.1975190689,0.1270183959\C,0,1.98317232
 32,-2.4170048263,0.1880472631\H,0,3.0710805905,-2.4078400913,0.1758143
 871\C,0,1.2965323098,-3.6099807346,0.2674940067\C,0,-0.1170349721,-3.6
 375188187,0.3064489849\C,0,-0.8278038553,-2.4634812148,0.2364665744\H,
 0,1.915795047,4.5472757004,-0.1326862476\H,0,3.0994285853,2.397915392,
 0.0538501728\H,0,-1.87681989,2.5188823177,-0.2660218573\H,0,-0.5749415
 928,4.6194784361,-0.3257197726\H,0,1.8576905535,-4.5444552423,0.315063
 1154\H,0,-0.6396344007,-4.5900679415,0.3991091373\H,0,-1.9155213171,-2
 .476194381,0.2795740481\N,0,1.9440209747,0.0007632971,0.0871284729\C,0
 ,-2.3519850221,0.0227404551,-0.0088487698\C,0,-3.0441522294,-0.6118890
 151,-1.0551051279\C,0,-3.0916974278,0.6650896916,0.9991447485\C,0,-4.4
 378834982,-0.5864895486,-1.0898700699\C,0,-4.4858067284,0.6540195385,0
 .9603943823\C,0,-5.1984758505,0.0370817699,-0.0836939871\H,0,-5.034946
 2854,1.1483785056,1.7660350031\H,0,-2.5661160025,1.153520229,1.8223507
 728\C,0,3.3935305574,-0.0062553049,0.1161279607\C,0,4.1036071724,-0.02
 96854888,-1.0800982042\C,0,4.0562745054,0.0134800036,1.3459397801\C,0,
 5.4993306928,-0.0332137699,-1.0603184796\H,0,3.5672067226,-0.044814861
 1,-2.0301292475\C,0,5.4444137833,0.0104531052,1.3726625429\H,0,3.48256
 66239,0.0318314292,2.2736717692\C,0,6.1759896561,-0.0124314575,0.17053
 67517\H,0,6.0462438256,-0.0517776362,-2.0014950738\H,0,5.9833206443,0.
 0263114991,2.3209997775\O,0,7.5266791782,-0.012467242,0.2999868446\C,0
 ,8.3104857468,-0.0307716123,-0.902527992\H,0,9.3558235904,-0.026327141
 7,-0.5738464277\H,0,8.1134537332,-0.9399109093,-1.4916553144\H,0,8.114
 0915458,0.8607296393,-1.5182731506\H,0,-4.9482880626,-1.0665120778,-1.
 9290826044\B,0,-6.8203550682,0.0043593317,-0.1066609861\F,0,-7.3818456
 395,1.125549144,0.5859659623\F,0,-7.3132955337,-1.1881821943,0.5303957
 205\F,0,-7.3269732544,0.0143650903,-1.4471260856\H,0,-2.4806466722,-1.
 102285607,-1.8516270006\\Version=ES64L-G09RevE.01\State=1-A\HF=-1455.6
 608316\RMSD=3.886e-09\PG=C01 [X(C26H19B1F3N1O1)]\\@


 IT IS BY EATING THE LIGHT OF A STAR THAT WE EXIST, 
 IN THE FINAL ANALYSIS, 
 JUST AS IT IS BY PERCEIVING THE LIGHT OF STARS
 THAT WE DEFINE THE WORLD AROUND US.

                                    -- GILBERT GROSVENOR
 Job cpu time:       1 days 12 hours 12 minutes 35.8 seconds.
 File lengths (MBytes):  RWF=   4959 Int=      0 D2E=      0 Chk=   1099 Scr=      1
 Normal termination of Gaussian 09 at Sat Mar 27 09:25:19 2021.
