
                                 *****************
                                 * O   R   C   A *
                                 *****************

                                            #,                                       
                                            ###                                      
                                            ####                                     
                                            #####                                    
                                            ######                                   
                                           ########,                                 
                                     ,,################,,,,,                         
                               ,,#################################,,                 
                          ,,##########################################,,             
                       ,#########################################, ''#####,          
                    ,#############################################,,   '####,        
                  ,##################################################,,,,####,       
                ,###########''''           ''''###############################       
              ,#####''   ,,,,##########,,,,          '''####'''          '####       
            ,##' ,,,,###########################,,,                        '##       
           ' ,,###''''                  '''############,,,                           
         ,,##''                                '''############,,,,        ,,,,,,###''
      ,#''                                            '''#######################'''  
     '                                                          ''''####''''         
             ,#######,   #######,   ,#######,      ##                                
            ,#'     '#,  ##    ##  ,#'     '#,    #''#        ######   ,####,        
            ##       ##  ##   ,#'  ##            #'  '#       #        #'  '#        
            ##       ##  #######   ##           ,######,      #####,   #    #        
            '#,     ,#'  ##    ##  '#,     ,#' ,#      #,         ##   #,  ,#        
             '#######'   ##     ##  '#######'  #'      '#     #####' # '####'        



                  #######################################################
                  #                        -***-                        #
                  #          Department of theory and spectroscopy      #
                  #    Directorship and core code : Frank Neese         #
                  #        Max Planck Institute fuer Kohlenforschung    #
                  #                Kaiser Wilhelm Platz 1               #
                  #                 D-45470 Muelheim/Ruhr               #
                  #                      Germany                        #
                  #                                                     #
                  #                  All rights reserved                #
                  #                        -***-                        #
                  #######################################################


                         Program Version 5.0.2 -  RELEASE  -


 With contributions from (in alphabetic order):
   Daniel Aravena         : Magnetic Suceptibility
   Michael Atanasov       : Ab Initio Ligand Field Theory (pilot matlab implementation)
   Alexander A. Auer      : GIAO ZORA, VPT2 properties, NMR spectrum
   Ute Becker             : Parallelization
   Giovanni Bistoni       : ED, misc. LED, open-shell LED, HFLD
   Martin Brehm           : Molecular dynamics
   Dmytro Bykov           : SCF Hessian
   Vijay G. Chilkuri      : MRCI spin determinant printing, contributions to CSF-ICE
   Dipayan Datta          : RHF DLPNO-CCSD density
   Achintya Kumar Dutta   : EOM-CC, STEOM-CC
   Dmitry Ganyushin       : Spin-Orbit,Spin-Spin,Magnetic field MRCI
   Miquel Garcia          : C-PCM and meta-GGA Hessian, CC/C-PCM, Gaussian charge scheme
   Yang Guo               : DLPNO-NEVPT2, F12-NEVPT2, CIM, IAO-localization
   Andreas Hansen         : Spin unrestricted coupled pair/coupled cluster methods
   Benjamin Helmich-Paris : MC-RPA, TRAH-SCF, COSX integrals
   Lee Huntington         : MR-EOM, pCC
   Robert Izsak           : Overlap fitted RIJCOSX, COSX-SCS-MP3, EOM
   Marcus Kettner         : VPT2
   Christian Kollmar      : KDIIS, OOCD, Brueckner-CCSD(T), CCSD density, CASPT2, CASPT2-K
   Simone Kossmann        : Meta GGA functionals, TD-DFT gradient, OOMP2, MP2 Hessian
   Martin Krupicka        : Initial AUTO-CI
   Lucas Lang             : DCDCAS
   Marvin Lechner         : AUTO-CI (C++ implementation), FIC-MRCC
   Dagmar Lenk            : GEPOL surface, SMD
   Dimitrios Liakos       : Extrapolation schemes; Compound Job, initial MDCI parallelization
   Dimitrios Manganas     : Further ROCIS development; embedding schemes
   Dimitrios Pantazis     : SARC Basis sets
   Anastasios Papadopoulos: AUTO-CI, single reference methods and gradients
   Taras Petrenko         : DFT Hessian,TD-DFT gradient, ASA, ECA, R-Raman, ABS, FL, XAS/XES, NRVS
   Peter Pinski           : DLPNO-MP2, DLPNO-MP2 Gradient
   Christoph Reimann      : Effective Core Potentials
   Marius Retegan         : Local ZFS, SOC
   Christoph Riplinger    : Optimizer, TS searches, QM/MM, DLPNO-CCSD(T), (RO)-DLPNO pert. Triples
   Tobias Risthaus        : Range-separated hybrids, TD-DFT gradient, RPA, STAB
   Michael Roemelt        : Original ROCIS implementation
   Masaaki Saitow         : Open-shell DLPNO-CCSD energy and density
   Barbara Sandhoefer     : DKH picture change effects
   Avijit Sen             : IP-ROCIS
   Kantharuban Sivalingam : CASSCF convergence, NEVPT2, FIC-MRCI
   Bernardo de Souza      : ESD, SOC TD-DFT
   Georgi Stoychev        : AutoAux, RI-MP2 NMR, DLPNO-MP2 response
   Willem Van den Heuvel  : Paramagnetic NMR
   Boris Wezisla          : Elementary symmetry handling
   Frank Wennmohs         : Technical directorship


 We gratefully acknowledge several colleagues who have allowed us to
 interface, adapt or use parts of their codes:
   Stefan Grimme, W. Hujo, H. Kruse, P. Pracht,  : VdW corrections, initial TS optimization,
                  C. Bannwarth, S. Ehlert          DFT functionals, gCP, sTDA/sTD-DF
   Ed Valeev, F. Pavosevic, A. Kumar             : LibInt (2-el integral package), F12 methods
   Garnet Chan, S. Sharma, J. Yang, R. Olivares  : DMRG
   Ulf Ekstrom                                   : XCFun DFT Library
   Mihaly Kallay                                 : mrcc  (arbitrary order and MRCC methods)
   Jiri Pittner, Ondrej Demel                    : Mk-CCSD
   Frank Weinhold                                : gennbo (NPA and NBO analysis)
   Christopher J. Cramer and Donald G. Truhlar   : smd solvation model
   Lars Goerigk                                  : TD-DFT with DH, B97 family of functionals
   V. Asgeirsson, H. Jonsson                     : NEB implementation
   FAccTs GmbH                                   : IRC, NEB, NEB-TS, DLPNO-Multilevel, CI-OPT
                                                   MM, QMMM, 2- and 3-layer-ONIOM, Crystal-QMMM,
                                                   LR-CPCM, SF, NACMEs, symmetry and pop. for TD-DFT,
                                                   nearIR, NL-DFT gradient (VV10), updates on ESD,
                                                   ML-optimized integration grids
   S Lehtola, MJT Oliveira, MAL Marques          : LibXC Library
   Liviu Ungur et al                             : ANISO software


 Your calculation uses the libint2 library for the computation of 2-el integrals
 For citations please refer to: http://libint.valeyev.net

 Your ORCA version has been built with support for libXC version: 5.1.0
 For citations please refer to: https://tddft.org/programs/libxc/

 This ORCA versions uses:
   CBLAS   interface :  Fast vector & matrix operations
   LAPACKE interface :  Fast linear algebra routines
   SCALAPACK package :  Parallel linear algebra routines
   Shared memory     :  Shared parallel matrices
   BLAS/LAPACK       :  OpenBLAS 0.3.15  USE64BITINT DYNAMIC_ARCH NO_AFFINITY Prescott SINGLE_THREADED
        Core in use  :  Prescott
   Copyright (c) 2011-2014, The OpenBLAS Project


Your calculation utilizes the SMD solvation module
Please cite in your paper:
A.V. Marenich, C.J. Cramer, D.G. Truhlar J. Phys. Chem. B, 113, (2009), 6378 

================================================================================

----- Orbital basis set information -----
Your calculation utilizes the basis: def2-TZVP
   F. Weigend and R. Ahlrichs, Phys. Chem. Chem. Phys. 7, 3297 (2005).

----- AuxJ basis set information -----
Your calculation utilizes the auxiliary basis: def2/J
   F. Weigend, Phys. Chem. Chem. Phys. 8, 1057 (2006).

----- AuxC basis set information -----
Your calculation utilizes the auxiliary basis: def2-TZVP/C
  H-La, Hf-Rn : A. Hellweg, C. Hattig, S. Hofener and W. Klopper, Theor. Chem. Acc. 117, 587 (2007).
        Ce-Lu : J. Chmela and M. E. Harding, Mol. Phys. (2018).

================================================================================
                                        WARNINGS
                       Please study these warnings very carefully!
================================================================================

INFO   : Checking CIS options ...
  ===> : (D) CORRECTION FOUND - SETTING MODE=3
  ===> : JK MODE FOUND - ACTIVATING RI-MP2 CODE
  ===> : MP2 AND CIS FOUND - CHECKING
WARNING: CIS(D) and MP2 runs must have the same orbital window
  ===> : adjusting orbital windows

WARNING: No MP2 level density has been requested!
         To caclulate MP2 level properties use
         %mp2 Density relaxed end
         or
         %mp2 Density unrelaxed end
         Otherwise for double-hybrid DFT only the energy is correct!

WARNING: The frozen-core approximation is turned on by default for 
         the MP2 part of double-hybrid DFT.

WARNING: CIS/ROCIS methods need fully converged wavefunctions
  ===> : Setting SCFConvForced true
         You can overwrite this default with %scf ConvForced false 


INFO   : the flag for use of the SHARK integral package has been found!

================================================================================
                                       INPUT FILE
================================================================================
NAME = BF3-Acr_p_M06L_def2TZVP_coords.inp
|  1> %maxcore 20000
|  2> %pal
|  3>  nprocs= 6
|  4> end
|  5> ! RI-SCS-PBE-QIDH   def2-TZVP def2/J def2-TZVP/C RIJCOSX CPCM TightSCF
|  6> %TDDFT  
|  7>    NROOTS   30
|  8>    dcorr 4
|  9>    doscs true 
| 10>    TDA      FALSE
| 11> END
| 12> 
| 13> %CPCM
| 14>    SMD          TRUE
| 15>    SMDsolvent   "ACETONITRILE"
| 16> END
| 17>    
| 18> 
| 19> * xyz 0 1
| 20> C                  -1.33517900    3.59951500    0.01496600
| 21> C                  -1.99941600    2.40569100   -0.06161400
| 22> C                  -1.27852900    1.19839100   -0.05656400
| 23> C                   0.14681400    1.22248100   -0.00378800
| 24> C                   0.78287200    2.48471500    0.11273800
| 25> C                   0.06482600    3.64387900    0.11890300
| 26> C                   0.87039300    0.01271300   -0.03377000
| 27> C                   0.16140500   -1.20443600   -0.09601700
| 28> C                  -1.26500900   -1.19505800   -0.10071500
| 29> C                  -1.97286100   -2.40970700   -0.12793000
| 30> H                  -3.05211800   -2.40114300   -0.11061500
| 31> C                  -1.29378600   -3.59640200   -0.18090600
| 32> C                   0.10968600   -3.62619400   -0.22761800
| 33> C                   0.81490700   -2.45972300   -0.18912700
| 34> H                  -1.90341100    4.52055100    0.01020300
| 35> H                  -3.07689300    2.38605600   -0.12303900
| 36> H                   1.85800200    2.51440200    0.20994300
| 37> H                   0.56938500    4.59585900    0.21170600
| 38> H                  -1.85221400   -4.52318100   -0.20235400
| 39> H                   0.62740400   -4.57268200   -0.30223200
| 40> H                   1.89343600   -2.47802700   -0.24240000
| 41> N                  -1.93575900   -0.00191000   -0.08975100
| 42> C                   2.34016300    0.01909200   -0.00022100
| 43> C                   3.03378200   -0.63478900    1.02206500
| 44> C                   3.07600300    0.67822300   -0.98770700
| 45> C                   4.41729100   -0.61163300    1.05294000
| 46> C                   4.46058100    0.66574600   -0.95363000
| 47> C                   5.17266500    0.02959800    0.06609100
| 48> H                   5.00464300    1.17230600   -1.74368700
| 49> H                   2.55250900    1.18188800   -1.79213400
| 50> C                  -3.38215200   -0.00910800   -0.11245000
| 51> C                  -4.08300000    0.01602500    1.07835000
| 52> C                  -4.04762200   -0.03955400   -1.33022100
| 53> C                  -5.46937200    0.01138600    1.06517500
| 54> H                  -3.54605200    0.03998200    2.01828600
| 55> C                  -5.42627000   -0.04411500   -1.35017500
| 56> H                  -3.48259400   -0.05934600   -2.25346900
| 57> C                  -6.14715000   -0.01833900   -0.15319800
| 58> H                  -6.01021200    0.03110300    2.00014500
| 59> H                  -5.96618700   -0.06701500   -2.28747400
| 60> O                  -7.48941500   -0.02427900   -0.27426500
| 61> C                  -8.25978000    0.00391500    0.91824300
| 62> H                  -9.30015500   -0.00518900    0.60609500
| 63> H                  -8.06384600   -0.87126300    1.54134300
| 64> H                  -8.06624400    0.90924100    1.49749300
| 65> H                   4.92649100   -1.10906800    1.87219600
| 66> B                   6.78084300   -0.00531600    0.09357000
| 67> F                   7.34166600    1.03029900   -0.69206700
| 68> F                   7.26987200   -1.24050000   -0.41765900
| 69> F                   7.28020500    0.12750000    1.41408500
| 70> H                   2.47622100   -1.13985700    1.80237700
| 71> *
| 72> 
| 73> 
| 74>                          ****END OF INPUT****
================================================================================

                       ****************************
                       * Single Point Calculation *
                       ****************************

---------------------------------
CARTESIAN COORDINATES (ANGSTROEM)
---------------------------------
  C     -1.335179    3.599515    0.014966
  C     -1.999416    2.405691   -0.061614
  C     -1.278529    1.198391   -0.056564
  C      0.146814    1.222481   -0.003788
  C      0.782872    2.484715    0.112738
  C      0.064826    3.643879    0.118903
  C      0.870393    0.012713   -0.033770
  C      0.161405   -1.204436   -0.096017
  C     -1.265009   -1.195058   -0.100715
  C     -1.972861   -2.409707   -0.127930
  H     -3.052118   -2.401143   -0.110615
  C     -1.293786   -3.596402   -0.180906
  C      0.109686   -3.626194   -0.227618
  C      0.814907   -2.459723   -0.189127
  H     -1.903411    4.520551    0.010203
  H     -3.076893    2.386056   -0.123039
  H      1.858002    2.514402    0.209943
  H      0.569385    4.595859    0.211706
  H     -1.852214   -4.523181   -0.202354
  H      0.627404   -4.572682   -0.302232
  H      1.893436   -2.478027   -0.242400
  N     -1.935759   -0.001910   -0.089751
  C      2.340163    0.019092   -0.000221
  C      3.033782   -0.634789    1.022065
  C      3.076003    0.678223   -0.987707
  C      4.417291   -0.611633    1.052940
  C      4.460581    0.665746   -0.953630
  C      5.172665    0.029598    0.066091
  H      5.004643    1.172306   -1.743687
  H      2.552509    1.181888   -1.792134
  C     -3.382152   -0.009108   -0.112450
  C     -4.083000    0.016025    1.078350
  C     -4.047622   -0.039554   -1.330221
  C     -5.469372    0.011386    1.065175
  H     -3.546052    0.039982    2.018286
  C     -5.426270   -0.044115   -1.350175
  H     -3.482594   -0.059346   -2.253469
  C     -6.147150   -0.018339   -0.153198
  H     -6.010212    0.031103    2.000145
  H     -5.966187   -0.067015   -2.287474
  O     -7.489415   -0.024279   -0.274265
  C     -8.259780    0.003915    0.918243
  H     -9.300155   -0.005189    0.606095
  H     -8.063846   -0.871263    1.541343
  H     -8.066244    0.909241    1.497493
  H      4.926491   -1.109068    1.872196
  B      6.780843   -0.005316    0.093570
  F      7.341666    1.030299   -0.692067
  F      7.269872   -1.240500   -0.417659
  F      7.280205    0.127500    1.414085
  H      2.476221   -1.139857    1.802377

----------------------------
CARTESIAN COORDINATES (A.U.)
----------------------------
  NO LB      ZA    FRAG     MASS         X           Y           Z
   0 C     6.0000    0    12.011   -2.523123    6.802098    0.028282
   1 C     6.0000    0    12.011   -3.778349    4.546097   -0.116434
   2 C     6.0000    0    12.011   -2.416070    2.264631   -0.106890
   3 C     6.0000    0    12.011    0.277438    2.310154   -0.007158
   4 C     6.0000    0    12.011    1.479414    4.695431    0.213044
   5 C     6.0000    0    12.011    0.122503    6.885933    0.224694
   6 C     6.0000    0    12.011    1.644804    0.024024   -0.063816
   7 C     6.0000    0    12.011    0.305011   -2.276054   -0.181446
   8 C     6.0000    0    12.011   -2.390521   -2.258332   -0.190324
   9 C     6.0000    0    12.011   -3.728167   -4.553686   -0.241753
  10 H     1.0000    0     1.008   -5.767667   -4.537503   -0.209032
  11 C     6.0000    0    12.011   -2.444901   -6.796215   -0.341863
  12 C     6.0000    0    12.011    0.207277   -6.852514   -0.430136
  13 C     6.0000    0    12.011    1.539951   -4.648203   -0.357398
  14 H     1.0000    0     1.008   -3.596926    8.542603    0.019281
  15 H     1.0000    0     1.008   -5.814485    4.508992   -0.232510
  16 H     1.0000    0     1.008    3.511115    4.751531    0.396735
  17 H     1.0000    0     1.008    1.075982    8.684915    0.400066
  18 H     1.0000    0     1.008   -3.500177   -8.547573   -0.382394
  19 H     1.0000    0     1.008    1.185622   -8.641117   -0.571136
  20 H     1.0000    0     1.008    3.578075   -4.682792   -0.458070
  21 N     7.0000    0    14.007   -3.658054   -0.003609   -0.169605
  22 C     6.0000    0    12.011    4.422267    0.036079   -0.000418
  23 C     6.0000    0    12.011    5.733017   -1.199577    1.931423
  24 C     6.0000    0    12.011    5.812803    1.281656   -1.866496
  25 C     6.0000    0    12.011    8.347470   -1.155819    1.989768
  26 C     6.0000    0    12.011    8.429276    1.258078   -1.802100
  27 C     6.0000    0    12.011    9.774920    0.055932    0.124894
  28 H     1.0000    0     1.008    9.457405    2.215337   -3.295091
  29 H     1.0000    0     1.008    4.823543    2.233445   -3.386642
  30 C     6.0000    0    12.011   -6.391341   -0.017212   -0.212500
  31 C     6.0000    0    12.011   -7.715752    0.030283    2.037786
  32 C     6.0000    0    12.011   -7.648897   -0.074746   -2.513753
  33 C     6.0000    0    12.011  -10.335615    0.021516    2.012889
  34 H     1.0000    0     1.008   -6.701067    0.075555    3.814008
  35 C     6.0000    0    12.011  -10.254164   -0.083365   -2.551461
  36 H     1.0000    0     1.008   -6.581149   -0.112148   -4.258439
  37 C     6.0000    0    12.011  -11.616430   -0.034656   -0.289502
  38 H     1.0000    0     1.008  -11.357655    0.058776    3.779726
  39 H     1.0000    0     1.008  -11.274459   -0.126640   -4.322699
  40 O     8.0000    0    15.999  -14.152943   -0.045881   -0.518286
  41 C     6.0000    0    12.011  -15.608722    0.007398    1.735228
  42 H     1.0000    0     1.008  -17.574746   -0.009806    1.145354
  43 H     1.0000    0     1.008  -15.238461   -1.646448    2.912716
  44 H     1.0000    0     1.008  -15.242992    1.718216    2.829852
  45 H     1.0000    0     1.008    9.309719   -2.095835    3.537938
  46 B     5.0000    0    10.810   12.813936   -0.010046    0.176822
  47 F     9.0000    0    18.998   13.873738    1.946983   -1.307817
  48 F     9.0000    0    18.998   13.738067   -2.344205   -0.789261
  49 F     9.0000    0    18.998   13.757594    0.240940    2.672233
  50 H     1.0000    0     1.008    4.679380   -2.154018    3.405999

--------------------------------
INTERNAL COORDINATES (ANGSTROEM)
--------------------------------
 C      0   0   0     0.000000000000     0.00000000     0.00000000
 C      1   0   0     1.368316860798     0.00000000     0.00000000
 C      2   1   0     1.406156769094   120.00148407     0.00000000
 C      3   2   1     1.426523151556   119.85947348   358.50227796
 C      4   3   2     1.418232265461   117.78693217     3.23050953
 C      5   4   3     1.363557569095   121.38562112   357.33704299
 C      4   3   2     1.409965993699   119.83396463   181.64249768
 C      7   4   3     1.409961120511   118.91848107   359.07322385
 C      8   7   4     1.426452564050   119.82144588   358.76078399
 C      9   8   7     1.406117812749   119.85321751   181.63815918
 H     10   9   8     1.079429860329   119.74654684   178.72612388
 C     10   9   8     1.368281526304   120.00662064   358.49699462
 C     12  10   9     1.404565138750   121.03723432   359.11079111
 C     13  12  10     1.363624878683   119.84669542     1.51760182
 H      1   2   3     1.082228074524   119.16949806   180.01041456
 H      2   1   3     1.079405044170   120.24041925   179.81524930
 H      5   4   3     1.079923444923   118.57818347   176.59356941
 H      6   5   4     1.081414861045   120.20169344   179.81720853
 H     12  10   9     1.082229718095   119.16922644   180.06276183
 H     13  12  10     1.081405895427   119.94919664   182.02531665
 H     14  13  12     1.079999005919   120.03787447   181.07762757
 N      9   8   7     1.368805289915   119.71703539     2.17239735
 C      7   4   3     1.470166684408   120.58675129   179.09545839
 C     23   7   4     1.397761190303   120.71459015   120.94732681
 C     23   7   4     1.396797329951   120.83567936   300.96584747
 C     24  23   7     1.384047188156   120.30024783   180.67011130
 C     25  23   7     1.385053484723   120.33000176   180.67691114
 C     27  25  23     1.396989197811   122.11455852   358.63602354
 H     27  25  23     1.084802542721   118.63536342   178.97308938
 H     25  23   7     1.083894459156   119.30946568   359.40815726
 C     22   9   8     1.446589010830   119.04500586   179.19585889
 C     31  22   9     1.381963902131   119.56819294    92.38880077
 C     31  22   9     1.388071859904   119.55315748   272.31204011
 C     32  31  22     1.386442362066   119.92489211   179.90199655
 H     32  31  22     1.082758872810   119.79647414   359.94519784
 C     33  31  22     1.378799939346   119.48111127   180.10795308
 H     33  31  22     1.082605760908   119.89134801     0.10099587
 C     34  32  31     1.394524779284   119.62867578     0.00000000
 H     34  32  31     1.080308088736   119.49345859   179.99719893
 H     36  33  31     1.081926149185   120.76950438   179.96203739
 O     38  34  32     1.347726913107   124.23826250   180.05168186
 C     41  38  34     1.419976219845   117.69682973     0.11200196
 H     42  41  38     1.086231742008   106.14780307   179.94691436
 H     42  41  38     1.092053237732   111.46452654   298.76218187
 H     42  41  38     1.092063144727   111.45461102    61.13560858
 H     26  24  23     1.085314061809   118.56539299   178.59368842
 B     28  27  25     1.608791646709   122.13280074   179.00196119
 F     47  28  27     1.415714081770   111.75486689    21.17627787
 F     47  28  27     1.423440889935   110.86212834   261.37333319
 F     47  28  27     1.418013526778   111.46268067   142.11394267
 H     24  23   7     1.083907178078   119.29071372   359.24118129

---------------------------
INTERNAL COORDINATES (A.U.)
---------------------------
 C      0   0   0     0.000000000000     0.00000000     0.00000000
 C      1   0   0     2.585744131336     0.00000000     0.00000000
 C      2   1   0     2.657251194947   120.00148407     0.00000000
 C      3   2   1     2.695738080139   119.85947348   358.50227796
 C      4   3   2     2.680070576013   117.78693217     3.23050953
 C      5   4   3     2.576750373425   121.38562112   357.33704299
 C      4   3   2     2.664449586234   119.83396463   181.64249768
 C      7   4   3     2.664440377243   118.91848107   359.07322385
 C      8   7   4     2.695604689084   119.82144588   358.76078399
 C      9   8   7     2.657177578124   119.85321751   181.63815918
 H     10   9   8     2.039826816799   119.74654684   178.72612388
 C     10   9   8     2.585677358819   120.00662064   358.49699462
 C     12  10   9     2.654243449491   121.03723432   359.11079111
 C     13  12  10     2.576877570112   119.84669542     1.51760182
 H      1   2   3     2.045114675292   119.16949806   180.01041456
 H      2   1   3     2.039779921054   120.24041925   179.81524930
 H      5   4   3     2.040759556505   118.57818347   176.59356941
 H      6   5   4     2.043577924528   120.20169344   179.81720853
 H     12  10   9     2.045117781191   119.16922644   180.06276183
 H     13  12  10     2.043560981965   119.94919664   182.02531665
 H     14  13  12     2.040902346094   120.03787447   181.07762757
 N      9   8   7     2.586667128603   119.71703539     2.17239735
 C      7   4   3     2.778212404745   120.58675129   179.09545839
 C     23   7   4     2.641385850297   120.71459015   120.94732681
 C     23   7   4     2.639564418199   120.83567936   300.96584747
 C     24  23   7     2.615470142038   120.30024783   180.67011130
 C     25  23   7     2.617371766959   120.33000176   180.67691114
 C     27  25  23     2.639926995909   122.11455852   358.63602354
 H     27  25  23     2.049979715123   118.63536342   178.97308938
 H     25  23   7     2.048263685880   119.30946568   359.40815726
 C     22   9   8     2.733657058809   119.04500586   179.19585889
 C     31  22   9     2.611533301993   119.56819294    92.38880077
 C     31  22   9     2.623075669421   119.55315748   272.31204011
 C     32  31  22     2.619996364771   119.92489211   179.90199655
 H     32  31  22     2.046117738684   119.79647414   359.94519784
 C     33  31  22     2.605554278831   119.48111127   180.10795308
 H     33  31  22     2.045828399122   119.89134801     0.10099587
 C     34  32  31     2.635269919814   119.62867578     0.00000000
 H     34  32  31     2.041486427971   119.49345859   179.99719893
 H     36  33  31     2.044544119087   120.76950438   179.96203739
 O     38  34  32     2.546834769088   124.23826250   180.05168186
 C     41  38  34     2.683366172188   117.69682973     0.11200196
 H     42  41  38     2.052680510367   106.14780307   179.94691436
 H     42  41  38     2.063681542975   111.46452654   298.76218187
 H     42  41  38     2.063700264484   111.45461102    61.13560858
 H     26  24  23     2.050946346113   118.56539299   178.59368842
 B     28  27  25     3.040175618820   122.13280074   179.00196119
 F     47  28  27     2.675311898482   111.75486689    21.17627787
 F     47  28  27     2.689913449802   110.86212834   261.37333319
 F     47  28  27     2.679657219806   111.46268067   142.11394267
 H     24  23   7     2.048287721159   119.29071372   359.24118129

---------------------
BASIS SET INFORMATION
---------------------
There are 6 groups of distinct atoms

 Group   1 Type C   : 11s6p2d1f contracted to 5s3p2d1f pattern {62111/411/11/1}
 Group   2 Type H   : 5s1p contracted to 3s1p pattern {311/1}
 Group   3 Type N   : 11s6p2d1f contracted to 5s3p2d1f pattern {62111/411/11/1}
 Group   4 Type O   : 11s6p2d1f contracted to 5s3p2d1f pattern {62111/411/11/1}
 Group   5 Type B   : 11s6p2d1f contracted to 5s3p2d1f pattern {62111/411/11/1}
 Group   6 Type F   : 11s6p2d1f contracted to 5s3p2d1f pattern {62111/411/11/1}

Atom   0C    basis set group =>   1
Atom   1C    basis set group =>   1
Atom   2C    basis set group =>   1
Atom   3C    basis set group =>   1
Atom   4C    basis set group =>   1
Atom   5C    basis set group =>   1
Atom   6C    basis set group =>   1
Atom   7C    basis set group =>   1
Atom   8C    basis set group =>   1
Atom   9C    basis set group =>   1
Atom  10H    basis set group =>   2
Atom  11C    basis set group =>   1
Atom  12C    basis set group =>   1
Atom  13C    basis set group =>   1
Atom  14H    basis set group =>   2
Atom  15H    basis set group =>   2
Atom  16H    basis set group =>   2
Atom  17H    basis set group =>   2
Atom  18H    basis set group =>   2
Atom  19H    basis set group =>   2
Atom  20H    basis set group =>   2
Atom  21N    basis set group =>   3
Atom  22C    basis set group =>   1
Atom  23C    basis set group =>   1
Atom  24C    basis set group =>   1
Atom  25C    basis set group =>   1
Atom  26C    basis set group =>   1
Atom  27C    basis set group =>   1
Atom  28H    basis set group =>   2
Atom  29H    basis set group =>   2
Atom  30C    basis set group =>   1
Atom  31C    basis set group =>   1
Atom  32C    basis set group =>   1
Atom  33C    basis set group =>   1
Atom  34H    basis set group =>   2
Atom  35C    basis set group =>   1
Atom  36H    basis set group =>   2
Atom  37C    basis set group =>   1
Atom  38H    basis set group =>   2
Atom  39H    basis set group =>   2
Atom  40O    basis set group =>   4
Atom  41C    basis set group =>   1
Atom  42H    basis set group =>   2
Atom  43H    basis set group =>   2
Atom  44H    basis set group =>   2
Atom  45H    basis set group =>   2
Atom  46B    basis set group =>   5
Atom  47F    basis set group =>   6
Atom  48F    basis set group =>   6
Atom  49F    basis set group =>   6
Atom  50H    basis set group =>   2
---------------------------------
AUXILIARY/J BASIS SET INFORMATION
---------------------------------
There are 6 groups of distinct atoms

 Group   1 Type C   : 12s5p4d2f1g contracted to 6s4p3d1f1g pattern {711111/2111/211/2/1}
 Group   2 Type H   : 5s2p1d contracted to 3s1p1d pattern {311/2/1}
 Group   3 Type N   : 12s5p4d2f1g contracted to 6s4p3d1f1g pattern {711111/2111/211/2/1}
 Group   4 Type O   : 12s5p4d2f1g contracted to 6s4p3d1f1g pattern {711111/2111/211/2/1}
 Group   5 Type B   : 12s5p4d2f1g contracted to 6s4p3d1f1g pattern {711111/2111/211/2/1}
 Group   6 Type F   : 12s5p4d2f1g contracted to 6s4p3d1f1g pattern {711111/2111/211/2/1}

Atom   0C    basis set group =>   1
Atom   1C    basis set group =>   1
Atom   2C    basis set group =>   1
Atom   3C    basis set group =>   1
Atom   4C    basis set group =>   1
Atom   5C    basis set group =>   1
Atom   6C    basis set group =>   1
Atom   7C    basis set group =>   1
Atom   8C    basis set group =>   1
Atom   9C    basis set group =>   1
Atom  10H    basis set group =>   2
Atom  11C    basis set group =>   1
Atom  12C    basis set group =>   1
Atom  13C    basis set group =>   1
Atom  14H    basis set group =>   2
Atom  15H    basis set group =>   2
Atom  16H    basis set group =>   2
Atom  17H    basis set group =>   2
Atom  18H    basis set group =>   2
Atom  19H    basis set group =>   2
Atom  20H    basis set group =>   2
Atom  21N    basis set group =>   3
Atom  22C    basis set group =>   1
Atom  23C    basis set group =>   1
Atom  24C    basis set group =>   1
Atom  25C    basis set group =>   1
Atom  26C    basis set group =>   1
Atom  27C    basis set group =>   1
Atom  28H    basis set group =>   2
Atom  29H    basis set group =>   2
Atom  30C    basis set group =>   1
Atom  31C    basis set group =>   1
Atom  32C    basis set group =>   1
Atom  33C    basis set group =>   1
Atom  34H    basis set group =>   2
Atom  35C    basis set group =>   1
Atom  36H    basis set group =>   2
Atom  37C    basis set group =>   1
Atom  38H    basis set group =>   2
Atom  39H    basis set group =>   2
Atom  40O    basis set group =>   4
Atom  41C    basis set group =>   1
Atom  42H    basis set group =>   2
Atom  43H    basis set group =>   2
Atom  44H    basis set group =>   2
Atom  45H    basis set group =>   2
Atom  46B    basis set group =>   5
Atom  47F    basis set group =>   6
Atom  48F    basis set group =>   6
Atom  49F    basis set group =>   6
Atom  50H    basis set group =>   2
---------------------------------
AUXILIARY/C BASIS SET INFORMATION
---------------------------------
There are 6 groups of distinct atoms

 Group   1 Type C   : 8s6p5d3f1g contracted to 8s6p4d3f1g pattern {11111111/111111/2111/111/1}
 Group   2 Type H   : 4s3p2d contracted to 4s2p1d pattern {1111/21/2}
 Group   3 Type N   : 8s6p5d3f1g contracted to 8s6p4d3f1g pattern {11111111/111111/2111/111/1}
 Group   4 Type O   : 8s6p5d3f1g contracted to 8s6p4d3f1g pattern {11111111/111111/2111/111/1}
 Group   5 Type B   : 8s6p5d3f1g contracted to 8s6p4d3f1g pattern {11111111/111111/2111/111/1}
 Group   6 Type F   : 8s6p5d3f1g contracted to 8s6p4d3f1g pattern {11111111/111111/2111/111/1}

Atom   0C    basis set group =>   1
Atom   1C    basis set group =>   1
Atom   2C    basis set group =>   1
Atom   3C    basis set group =>   1
Atom   4C    basis set group =>   1
Atom   5C    basis set group =>   1
Atom   6C    basis set group =>   1
Atom   7C    basis set group =>   1
Atom   8C    basis set group =>   1
Atom   9C    basis set group =>   1
Atom  10H    basis set group =>   2
Atom  11C    basis set group =>   1
Atom  12C    basis set group =>   1
Atom  13C    basis set group =>   1
Atom  14H    basis set group =>   2
Atom  15H    basis set group =>   2
Atom  16H    basis set group =>   2
Atom  17H    basis set group =>   2
Atom  18H    basis set group =>   2
Atom  19H    basis set group =>   2
Atom  20H    basis set group =>   2
Atom  21N    basis set group =>   3
Atom  22C    basis set group =>   1
Atom  23C    basis set group =>   1
Atom  24C    basis set group =>   1
Atom  25C    basis set group =>   1
Atom  26C    basis set group =>   1
Atom  27C    basis set group =>   1
Atom  28H    basis set group =>   2
Atom  29H    basis set group =>   2
Atom  30C    basis set group =>   1
Atom  31C    basis set group =>   1
Atom  32C    basis set group =>   1
Atom  33C    basis set group =>   1
Atom  34H    basis set group =>   2
Atom  35C    basis set group =>   1
Atom  36H    basis set group =>   2
Atom  37C    basis set group =>   1
Atom  38H    basis set group =>   2
Atom  39H    basis set group =>   2
Atom  40O    basis set group =>   4
Atom  41C    basis set group =>   1
Atom  42H    basis set group =>   2
Atom  43H    basis set group =>   2
Atom  44H    basis set group =>   2
Atom  45H    basis set group =>   2
Atom  46B    basis set group =>   5
Atom  47F    basis set group =>   6
Atom  48F    basis set group =>   6
Atom  49F    basis set group =>   6
Atom  50H    basis set group =>   2


           ************************************************************
           *        Program running with 6 parallel MPI-processes     *
           *              working on a common directory               *
           ************************************************************
------------------------------------------------------------------------------
                           ORCA GTO INTEGRAL CALCULATION
                           -- RI-GTO INTEGRALS CHOSEN --
------------------------------------------------------------------------------
------------------------------------------------------------------------------
                   ___                                                        
                  /   \      - P O W E R E D   B Y -                         
                 /     \                                                     
                 |  |  |   _    _      __       _____    __    __             
                 |  |  |  | |  | |    /  \     |  _  \  |  |  /  |          
                  \  \/   | |  | |   /    \    | | | |  |  | /  /          
                 / \  \   | |__| |  /  /\  \   | |_| |  |  |/  /          
                |  |  |   |  __  | /  /__\  \  |    /   |      \           
                |  |  |   | |  | | |   __   |  |    \   |  |\   \          
                \     /   | |  | | |  |  |  |  | |\  \  |  | \   \       
                 \___/    |_|  |_| |__|  |__|  |_| \__\ |__|  \__/        
                                                                              
                      - O R C A' S   B I G   F R I E N D -                    
                                      &                                       
                       - I N T E G R A L  F E E D E R -                       
                                                                              
 v1 FN, 2020, v2 2021                                                         
------------------------------------------------------------------------------


Reading SHARK input file BF3-Acr_p_M06L_def2TZVP_coords.SHARKINP.tmp ... ok
----------------------
SHARK INTEGRAL PACKAGE
----------------------

Number of atoms                             ...     51
Number of basis functions                   ...   1106
Number of shells                            ...    428
Maximum angular momentum                    ...      3
Integral batch strategy                     ... SHARK/LIBINT Hybrid
RI-J (if used) integral strategy            ... SPLIT-RIJ (Revised 2003 algorithm where possible)
Printlevel                                  ...      1
Contraction scheme used                     ... SEGMENTED contraction
Coulomb Range Separation                    ... NOT USED
Exchange Range Separation                   ... NOT USED
Finite Nucleus Model                        ... NOT USED
Auxiliary Coulomb fitting basis             ... AVAILABLE
   # of basis functions in Aux-J            ...   1777
   # of shells in Aux-J                     ...    575
   Maximum angular momentum in Aux-J        ...      4
Auxiliary J/K fitting basis                 ... NOT available
Auxiliary Correlation fitting basis         ... AVAILABLE
   # of basis functions in Aux-C            ...   2717
   # of shells in Aux-C                     ...    837
   Maximum angular momentum in Aux-C        ...      4
Auxiliary 'external' fitting basis          ... NOT available
Integral threshold                          ...     2.500000e-11
Primitive cut-off                           ...     2.500000e-12
Primitive pair pre-selection threshold      ...     2.500000e-12

Calculating pre-screening integrals         ... done (  0.1 sec) Dimension = 428
Organizing shell pair data                  ... done ( 19.2 sec)
Shell pair information
Total number of shell pairs                 ...     91806
Shell pairs after pre-screening             ...     54360
Total number of primitive shell pairs       ...    285396
Primitive shell pairs kept                  ...    109136
          la=0 lb=0:  13402 shell pairs
          la=1 lb=0:  15685 shell pairs
          la=1 lb=1:   4579 shell pairs
          la=2 lb=0:   7775 shell pairs
          la=2 lb=1:   4608 shell pairs
          la=2 lb=2:   1170 shell pairs
          la=3 lb=0:   3618 shell pairs
          la=3 lb=1:   2194 shell pairs
          la=3 lb=2:   1065 shell pairs
          la=3 lb=3:    264 shell pairs

Calculating one electron integrals          ... done (  0.1 sec)
Calculating RI/J V-Matrix + Cholesky decomp.... done (  0.2 sec)
Calculating RI/C V-Matrix + Cholesky decomp.... done (  0.5 sec)
Calculating Nuclear repulsion               ... done (  0.0 sec) ENN=   2939.038673459841 Eh

SHARK setup successfully completed in  20.8 seconds

Maximum memory used throughout the entire GTOINT-calculation: 100.2 MB


           ************************************************************
           *        Program running with 6 parallel MPI-processes     *
           *              working on a common directory               *
           ************************************************************
-------------------------------------------------------------------------------
                                 ORCA SCF
-------------------------------------------------------------------------------

------------
SCF SETTINGS
------------
Hamiltonian:
 Density Functional     Method          .... DFT(GTOs)
 Exchange Functional    Exchange        .... PBE
   PBE kappa parameter   XKappa         ....  0.804000
   PBE mue parameter    XMuePBE         ....  0.219520
 Correlation Functional Correlation     .... PBE
   PBE beta parameter  CBetaPBE         ....  0.066725
 LDA part of GGA corr.  LDAOpt          .... PW91-LDA
 Gradients option       PostSCFGGA      .... off
 Hybrid DFT is turned on
   Fraction HF Exchange ScalHFX         ....  0.690000
   Scaling of DF-GGA-X  ScalDFX         ....  0.310000
   Scaling of DF-GGA-C  ScalDFC         ....  0.670000
   Scaling of DF-LDA-C  ScalLDAC        ....  0.670000
   Perturbative correction              ....  0.330000
   Density functional embedding theory  .... OFF
 RI-approximation to the Coulomb term is turned on
   Number of AuxJ basis functions       .... 1777
   RIJ-COSX (HFX calculated with COS-X)).... on


General Settings:
 Integral files         IntName         .... BF3-Acr_p_M06L_def2TZVP_coords
 Hartree-Fock type      HFTyp           .... RHF
 Total Charge           Charge          ....    0
 Multiplicity           Mult            ....    1
 Number of Electrons    NEL             ....  222
 Basis Dimension        Dim             .... 1106
 Nuclear Repulsion      ENuc            ....   2939.0386734598 Eh

Convergence Acceleration:
 DIIS                   CNVDIIS         .... on
   Start iteration      DIISMaxIt       ....    12
   Startup error        DIISStart       ....  0.200000
   # of expansion vecs  DIISMaxEq       ....     5
   Bias factor          DIISBfac        ....   1.050
   Max. coefficient     DIISMaxC        ....  10.000
 Trust-Rad. Augm. Hess. CNVTRAH         .... auto
   Auto Start mean grad. ratio tolernc. ....  1.125000
   Auto Start start iteration           ....    20
   Auto Start num. interpolation iter.  ....    10
   Max. Number of Micro iterations      ....    16
   Max. Number of Macro iterations      .... Maxiter - #DIIS iter
   Number of Davidson start vectors     ....     2
   Converg. threshold I  (grad. norm)   ....   1.000e-05
   Converg. threshold II (energy diff.) ....   1.000e-08
   Grad. Scal. Fac. for Micro threshold ....   0.100
   Minimum threshold for Micro iter.    ....   0.010
   NR start threshold (gradient norm)   ....   0.001
   Initial trust radius                 ....   0.400
   Minimum AH scaling param. (alpha)    ....   1.000
   Maximum AH scaling param. (alpha)    .... 1000.000
   Orbital update algorithm             .... Taylor
   White noise on init. David. guess    .... on
   Maximum white noise                  ....   0.010
   Quad. conv. algorithm                .... NR
 SOSCF                  CNVSOSCF        .... on
   Start iteration      SOSCFMaxIt      ....   150
   Startup grad/error   SOSCFStart      ....  0.003300
 Level Shifting         CNVShift        .... on
   Level shift para.    LevelShift      ....    0.2500
   Turn off err/grad.   ShiftErr        ....    0.0010
 Zerner damping         CNVZerner       .... off
 Static damping         CNVDamp         .... on
   Fraction old density DampFac         ....    0.7000
   Max. Damping (<1)    DampMax         ....    0.9800
   Min. Damping (>=0)   DampMin         ....    0.0000
   Turn off err/grad.   DampErr         ....    0.1000
 Fernandez-Rico         CNVRico         .... off

SCF Procedure:
 Maximum # iterations   MaxIter         ....   125
 SCF integral mode      SCFMode         .... Direct
   Integral package                     .... SHARK and LIBINT hybrid scheme
 Reset frequency        DirectResetFreq ....    20
 Integral Threshold     Thresh          ....  2.500e-11 Eh
 Primitive CutOff       TCut            ....  2.500e-12 Eh

Convergence Tolerance:
 Convergence Check Mode ConvCheckMode   .... Total+1el-Energy
 Convergence forced     ConvForced      .... 1
 Energy Change          TolE            ....  1.000e-08 Eh
 1-El. energy change                    ....  1.000e-05 Eh
 Orbital Gradient       TolG            ....  1.000e-05
 Orbital Rotation angle TolX            ....  1.000e-05
 DIIS Error             TolErr          ....  5.000e-07


Diagonalization of the overlap matrix:
Smallest eigenvalue                        ... 4.809e-06
Time for diagonalization                   ...    0.282 sec
Threshold for overlap eigenvalues          ... 1.000e-08
Number of eigenvalues below threshold      ... 0
Time for construction of square roots      ...    0.199 sec
Total time needed                          ...    0.486 sec

Time for model grid setup =    0.513 sec

------------------------------
INITIAL GUESS: MODEL POTENTIAL
------------------------------
Loading Hartree-Fock densities                     ... done
Calculating cut-offs                               ... done
Initializing the effective Hamiltonian             ... done
Setting up the integral package (SHARK)            ... done
Starting the Coulomb interaction                   ... done (   1.1 sec)
Reading the grid                                   ... done
Mapping shells                                     ... done
Starting the XC term evaluation                    ... done (   0.6 sec)
  promolecular density results
     # of electrons  =    221.984928547
     EX              =   -187.230918019
     EC              =     -2.746282846
     EX+EC           =   -189.977200865
Transforming the Hamiltonian                       ... done (   0.1 sec)
Diagonalizing the Hamiltonian                      ... done (   0.2 sec)
Back transforming the eigenvectors                 ... done (   0.1 sec)
Now organizing SCF variables                       ... done
                      ------------------
                      INITIAL GUESS DONE (   2.7 sec)
                      ------------------
-------------------
DFT GRID GENERATION
-------------------

General Integration Accuracy     IntAcc      ... 4.388
Radial Grid Type                 RadialGrid  ... OptM3 with GC (2021)
Angular Grid (max. ang.)         AngularGrid ... 4 (Lebedev-302)
Angular grid pruning method      GridPruning ... 4 (adaptive)
Weight generation scheme         WeightScheme... Becke
Basis function cutoff            BFCut       ... 1.0000e-11
Integration weight cutoff        WCut        ... 1.0000e-14
Angular grids for H and He will be reduced by one unit
Partially contracted basis set               ... off
Rotationally invariant grid construction     ... off

Total number of grid points                  ...   250742
Total number of batches                      ...     3947
Average number of points per batch           ...       63
Average number of grid points per atom       ...     4917
Time for grid setup =    1.951 sec

--------------------
COSX GRID GENERATION
--------------------

GRIDX 1
-------
General Integration Accuracy     IntAcc      ... 3.816
Radial Grid Type                 RadialGrid  ... OptM3 with GC (2021)
Angular Grid (max. ang.)         AngularGrid ... 1 (Lebedev-50)
Angular grid pruning method      GridPruning ... 4 (adaptive)
Weight generation scheme         WeightScheme... Becke
Basis function cutoff            BFCut       ... 1.0000e-11
Integration weight cutoff        WCut        ... 1.0000e-14
Angular grids for H and He will be reduced by one unit
Partially contracted basis set               ... on
Rotationally invariant grid construction     ... off

Total number of grid points                  ...    31808
Total number of batches                      ...      520
Average number of points per batch           ...       61
Average number of grid points per atom       ...      624
UseSFitting                                  ... on

GRIDX 2
-------
General Integration Accuracy     IntAcc      ... 4.020
Radial Grid Type                 RadialGrid  ... OptM3 with GC (2021)
Angular Grid (max. ang.)         AngularGrid ... 2 (Lebedev-110)
Angular grid pruning method      GridPruning ... 4 (adaptive)
Weight generation scheme         WeightScheme... Becke
Basis function cutoff            BFCut       ... 1.0000e-11
Integration weight cutoff        WCut        ... 1.0000e-14
Angular grids for H and He will be reduced by one unit
Partially contracted basis set               ... on
Rotationally invariant grid construction     ... off

Total number of grid points                  ...    69561
Total number of batches                      ...     1111
Average number of points per batch           ...       62
Average number of grid points per atom       ...     1364
UseSFitting                                  ... on

GRIDX 3
-------
General Integration Accuracy     IntAcc      ... 4.338
Radial Grid Type                 RadialGrid  ... OptM3 with GC (2021)
Angular Grid (max. ang.)         AngularGrid ... 3 (Lebedev-194)
Angular grid pruning method      GridPruning ... 4 (adaptive)
Weight generation scheme         WeightScheme... Becke
Basis function cutoff            BFCut       ... 1.0000e-11
Integration weight cutoff        WCut        ... 1.0000e-14
Angular grids for H and He will be reduced by one unit
Partially contracted basis set               ... on
Rotationally invariant grid construction     ... off

Total number of grid points                  ...   152435
Total number of batches                      ...     2405
Average number of points per batch           ...       63
Average number of grid points per atom       ...     2989
UseSFitting                                  ... on

Time for X-Grid setup             =    4.440 sec


--------------------
CPCM SOLVATION MODEL
--------------------
CPCM parameters:
  Epsilon                                         ...      35.6880
  Refrac                                          ...       1.3442
  Rsolv                                           ...       1.3000
  Surface type                                    ... GAUSSIAN VDW
  Epsilon function type                           ...         CPCM
Solvent:                                     ... ACETONITRILE
SMD-CDS solvent descriptors:
  Soln                                       ...    1.3442
  Soln25                                     ...    1.3416
  Sola                                       ...    0.0700
  Solb                                       ...    0.3200
  Solg                                       ...   41.2500
  Solc                                       ...    0.0000
  Solh                                       ...    0.0000
Radii:
 Radius for C  used is    3.4960 Bohr (=   1.8500 Ang.)
 Radius for H  used is    2.2677 Bohr (=   1.2000 Ang.)
 Radius for N  used is    3.5716 Bohr (=   1.8900 Ang.)
 Radius for O  used is    4.0969 Bohr (=   2.1680 Ang.)
 Radius for B  used is    3.6283 Bohr (=   1.9200 Ang.)
 Radius for F  used is    3.2692 Bohr (=   1.7300 Ang.)
Calculating surface                               ...        done! (  0.0s)
GEPOL surface points                              ...         2802
GEPOL Volume                                      ...    2875.3967
GEPOL Surface-area                                ...    1534.0928
Calculating surface distance matrix               ...        done! (  0.0s)
Performing Cholesky decomposition & store         ...        done! (  1.0s)
Overall time for CPCM initialization              ...                 1.0s
--------------
SCF ITERATIONS
--------------
ITER       Energy         Delta-E        Max-DP      RMS-DP      [F,P]     Damp
               ***  Starting incremental Fock matrix formation  ***
  0  -1452.8103454960   0.000000000000 0.03850066  0.00053419  0.1891226 0.7000
  1  -1453.0513191869  -0.240973690960 0.04210026  0.00044597  0.1064123 0.7000
                               ***Turning on DIIS***
  2  -1453.1905876311  -0.139268444132 0.08788104  0.00105161  0.0556896 0.0000
  3  -1453.4484844430  -0.257896811970 0.03790188  0.00027376  0.0365368 0.0000
  4  -1453.4699092958  -0.021424852811 0.01024679  0.00009995  0.0083297 0.0000
  5  -1453.4708102434  -0.000900947555 0.00466952  0.00004251  0.0038731 0.0000
                      *** Initiating the SOSCF procedure ***
                           *** Shutting down DIIS ***
                      *** Re-Reading the Fockian *** 
                      *** Removing any level shift *** 
ITER      Energy       Delta-E        Grad      Rot      Max-DP    RMS-DP
  6  -1453.47102443  -0.0002141832  0.001677  0.001677  0.001725  0.000020
               *** Restarting incremental Fock matrix formation ***
  7  -1453.47080456   0.0002198670  0.001086  0.004640  0.021726  0.000211
  8  -1453.47084742  -0.0000428565  0.000593  0.006141  0.009014  0.000091
  9  -1453.47086381  -0.0000163965  0.000184  0.000383  0.008277  0.000081
 10  -1453.47086640  -0.0000025876  0.000062  0.000192  0.000591  0.000006
 11  -1453.47086676  -0.0000003609  0.000034  0.000100  0.000653  0.000006
 12  -1453.47086681  -0.0000000461  0.000020  0.000128  0.000230  0.000002
 13  -1453.47086683  -0.0000000210  0.000003  0.000028  0.000269  0.000002
                  ***Gradient check signals convergence***
              ***Rediagonalizing the Fockian in SOSCF/NRSCF***

               *****************************************************
               *                     SUCCESS                       *
               *           SCF CONVERGED AFTER  14 CYCLES          *
               *****************************************************

Old exchange energy                            =   -131.847341799 Eh
New exchange energy                            =   -131.847288889 Eh
Exchange energy change after final integration =      0.000052911 Eh
Total energy after final integration           =  -1453.470813939 Eh
Final COS-X integration done in                =    67.988 sec

SMD CDS free energy correction energy :                -4.54455     Kcal/mol
Total Energy after SMD CDS correction =             -1453.478056135 Eh

----------------
TOTAL SCF ENERGY
----------------

Total Energy       :        -1453.47805614 Eh          -39551.14865 eV

Components:
Nuclear Repulsion  :         2939.03867346 Eh           79975.30817 eV
Electronic Energy  :        -4392.51672959 Eh         -119526.45682 eV
One Electron Energy:        -7827.33705799 Eh         -212992.66969 eV
Two Electron Energy:         3434.82032839 Eh           93466.21287 eV
Max COSX asymmetry :            0.00001093 Eh               0.00030 eV
CPCM Dielectric    :           -0.09662802 Eh              -2.62938 eV
SMD CDS (Gcds)     :           -0.00724220 Eh              -0.19707 eV

Virial components:
Potential Energy   :        -2901.50512953 Eh          -78953.96852 eV
Kinetic Energy     :         1448.02707340 Eh           39402.81987 eV
Virial Ratio       :            2.00376442


DFT components:
N(Alpha)           :      111.000193042609 electrons
N(Beta)            :      111.000193042609 electrons
N(Total)           :      222.000386085219 electrons
E(X)               :      -59.004027033028 Eh       
E(C)               :       -5.029228049045 Eh       
E(XC)              :      -64.033255082073 Eh       
DFET-embed. en.    :        0.000000000000 Eh       
CPCM Solvation Model Properties:
Surface-charge          :           -0.05450021
Charge-correction       :           -0.00040646 Eh              -0.01106 eV
Free-energy (cav+disp)  :           -0.00724220 Eh              -0.19707 eV

---------------
SCF CONVERGENCE
---------------

  Last Energy change         ...   -2.1613e-08  Tolerance :   1.0000e-08
  Last MAX-Density change    ...    2.6645e-15  Tolerance :   1.0000e-07
  Last RMS-Density change    ...    1.2441e-17  Tolerance :   5.0000e-09
  Last Orbital Gradient      ...    1.7703e-06  Tolerance :   1.0000e-05
  Last Orbital Rotation      ...    5.6372e-06  Tolerance :   1.0000e-05

             **** THE GBW FILE WAS UPDATED (BF3-Acr_p_M06L_def2TZVP_coords.gbw) ****
             **** DENSITY BF3-Acr_p_M06L_def2TZVP_coords.scfp WAS UPDATED ****
             **** ENERGY FILE WAS UPDATED (BF3-Acr_p_M06L_def2TZVP_coords.en.tmp) ****
             **** THE GBW FILE WAS UPDATED (BF3-Acr_p_M06L_def2TZVP_coords.gbw) ****
             **** DENSITY BF3-Acr_p_M06L_def2TZVP_coords.scfp WAS UPDATED ****
----------------
ORBITAL ENERGIES
----------------

  NO   OCC          E(Eh)            E(eV) 
   0   2.0000     -25.604216      -696.7262 
   1   2.0000     -25.603534      -696.7076 
   2   2.0000     -25.602213      -696.6716 
   3   2.0000     -20.039867      -545.3125 
   4   2.0000     -15.184089      -413.1801 
   5   2.0000     -10.914595      -297.0012 
   6   2.0000     -10.914553      -297.0001 
   7   2.0000     -10.901841      -296.6542 
   8   2.0000     -10.897562      -296.5377 
   9   2.0000     -10.871039      -295.8160 
  10   2.0000     -10.864928      -295.6497 
  11   2.0000     -10.864895      -295.6488 
  12   2.0000     -10.857941      -295.4596 
  13   2.0000     -10.849546      -295.2312 
  14   2.0000     -10.849539      -295.2310 
  15   2.0000     -10.845032      -295.1083 
  16   2.0000     -10.845007      -295.1076 
  17   2.0000     -10.841703      -295.0177 
  18   2.0000     -10.839548      -294.9591 
  19   2.0000     -10.838650      -294.9347 
  20   2.0000     -10.837176      -294.8946 
  21   2.0000     -10.837168      -294.8943 
  22   2.0000     -10.832653      -294.7715 
  23   2.0000     -10.832637      -294.7710 
  24   2.0000     -10.827588      -294.6336 
  25   2.0000     -10.826828      -294.6130 
  26   2.0000     -10.826781      -294.6117 
  27   2.0000     -10.826274      -294.5979 
  28   2.0000     -10.815383      -294.3015 
  29   2.0000     -10.814990      -294.2908 
  30   2.0000     -10.796333      -293.7831 
  31   2.0000      -7.310735      -198.9352 
  32   2.0000      -1.422171       -38.6992 
  33   2.0000      -1.377571       -37.4856 
  34   2.0000      -1.375127       -37.4191 
  35   2.0000      -1.300622       -35.3917 
  36   2.0000      -1.242241       -33.8031 
  37   2.0000      -1.099586       -29.9213 
  38   2.0000      -1.084084       -29.4994 
  39   2.0000      -1.064601       -28.9693 
  40   2.0000      -1.051564       -28.6145 
  41   2.0000      -1.017954       -27.6999 
  42   2.0000      -0.970117       -26.3982 
  43   2.0000      -0.954474       -25.9726 
  44   2.0000      -0.952386       -25.9157 
  45   2.0000      -0.944752       -25.7080 
  46   2.0000      -0.931371       -25.3439 
  47   2.0000      -0.923835       -25.1388 
  48   2.0000      -0.915992       -24.9254 
  49   2.0000      -0.866171       -23.5697 
  50   2.0000      -0.845060       -22.9953 
  51   2.0000      -0.818815       -22.2811 
  52   2.0000      -0.804366       -21.8879 
  53   2.0000      -0.778829       -21.1930 
  54   2.0000      -0.765528       -20.8311 
  55   2.0000      -0.754335       -20.5265 
  56   2.0000      -0.753234       -20.4965 
  57   2.0000      -0.727281       -19.7903 
  58   2.0000      -0.706222       -19.2173 
  59   2.0000      -0.706131       -19.2148 
  60   2.0000      -0.684348       -18.6221 
  61   2.0000      -0.682845       -18.5812 
  62   2.0000      -0.659690       -17.9511 
  63   2.0000      -0.647133       -17.6094 
  64   2.0000      -0.634379       -17.2623 
  65   2.0000      -0.624462       -16.9925 
  66   2.0000      -0.613704       -16.6997 
  67   2.0000      -0.612314       -16.6619 
  68   2.0000      -0.610562       -16.6142 
  69   2.0000      -0.605903       -16.4875 
  70   2.0000      -0.601006       -16.3542 
  71   2.0000      -0.594780       -16.1848 
  72   2.0000      -0.577092       -15.7035 
  73   2.0000      -0.573028       -15.5929 
  74   2.0000      -0.571193       -15.5430 
  75   2.0000      -0.564850       -15.3703 
  76   2.0000      -0.564479       -15.3603 
  77   2.0000      -0.564021       -15.3478 
  78   2.0000      -0.556740       -15.1497 
  79   2.0000      -0.555011       -15.1026 
  80   2.0000      -0.548066       -14.9136 
  81   2.0000      -0.534071       -14.5328 
  82   2.0000      -0.532302       -14.4847 
  83   2.0000      -0.528135       -14.3713 
  84   2.0000      -0.524301       -14.2669 
  85   2.0000      -0.514969       -14.0130 
  86   2.0000      -0.505161       -13.7461 
  87   2.0000      -0.502247       -13.6668 
  88   2.0000      -0.501614       -13.6496 
  89   2.0000      -0.498004       -13.5514 
  90   2.0000      -0.491645       -13.3783 
  91   2.0000      -0.488816       -13.3014 
  92   2.0000      -0.485551       -13.2125 
  93   2.0000      -0.478923       -13.0322 
  94   2.0000      -0.476119       -12.9559 
  95   2.0000      -0.469820       -12.7845 
  96   2.0000      -0.459229       -12.4963 
  97   2.0000      -0.451647       -12.2899 
  98   2.0000      -0.449375       -12.2281 
  99   2.0000      -0.436288       -11.8720 
 100   2.0000      -0.434606       -11.8262 
 101   2.0000      -0.431288       -11.7359 
 102   2.0000      -0.402567       -10.9544 
 103   2.0000      -0.392425       -10.6784 
 104   2.0000      -0.354297        -9.6409 
 105   2.0000      -0.335131        -9.1194 
 106   2.0000      -0.330357        -8.9895 
 107   2.0000      -0.320294        -8.7156 
 108   2.0000      -0.318374        -8.6634 
 109   2.0000      -0.305676        -8.3179 
 110   2.0000      -0.293372        -7.9831 
 111   0.0000      -0.058748        -1.5986 
 112   0.0000       0.018766         0.5107 
 113   0.0000       0.039213         1.0670 
 114   0.0000       0.044848         1.2204 
 115   0.0000       0.057105         1.5539 
 116   0.0000       0.060049         1.6340 
 117   0.0000       0.069907         1.9023 
 118   0.0000       0.079356         2.1594 
 119   0.0000       0.106144         2.8883 
 120   0.0000       0.112962         3.0739 
 121   0.0000       0.114827         3.1246 
 122   0.0000       0.120769         3.2863 
 123   0.0000       0.127387         3.4664 
 124   0.0000       0.130172         3.5422 
 125   0.0000       0.137176         3.7328 
 126   0.0000       0.141216         3.8427 
 127   0.0000       0.144133         3.9220 
 128   0.0000       0.147922         4.0252 
 129   0.0000       0.152725         4.1559 
 130   0.0000       0.157554         4.2873 
 131   0.0000       0.158701         4.3185 
 132   0.0000       0.162613         4.4249 
 133   0.0000       0.166977         4.5437 
 134   0.0000       0.169718         4.6183 
 135   0.0000       0.175825         4.7844 
 136   0.0000       0.179405         4.8819 
 137   0.0000       0.186642         5.0788 
 138   0.0000       0.188298         5.1238 
 139   0.0000       0.190395         5.1809 
 140   0.0000       0.196146         5.3374 
 141   0.0000       0.199537         5.4297 
 142   0.0000       0.205094         5.5809 
 143   0.0000       0.210511         5.7283 
 144   0.0000       0.217763         5.9256 
 145   0.0000       0.226354         6.1594 
 146   0.0000       0.227901         6.2015 
 147   0.0000       0.231327         6.2947 
 148   0.0000       0.233015         6.3407 
 149   0.0000       0.234271         6.3748 
 150   0.0000       0.236484         6.4351 
 151   0.0000       0.242394         6.5959 
 152   0.0000       0.252995         6.8843 
 153   0.0000       0.256116         6.9693 
 154   0.0000       0.263967         7.1829 
 155   0.0000       0.271246         7.3810 
 156   0.0000       0.275557         7.4983 
 157   0.0000       0.276869         7.5340 
 158   0.0000       0.278746         7.5851 
 159   0.0000       0.285404         7.7662 
 160   0.0000       0.288205         7.8424 
 161   0.0000       0.291048         7.9198 
 162   0.0000       0.296317         8.0632 
 163   0.0000       0.298976         8.1356 
 164   0.0000       0.302378         8.2281 
 165   0.0000       0.305977         8.3260 
 166   0.0000       0.306556         8.3418 
 167   0.0000       0.310323         8.4443 
 168   0.0000       0.312793         8.5115 
 169   0.0000       0.317883         8.6500 
 170   0.0000       0.318975         8.6798 
 171   0.0000       0.320705         8.7268 
 172   0.0000       0.324040         8.8176 
 173   0.0000       0.328512         8.9393 
 174   0.0000       0.330181         8.9847 
 175   0.0000       0.337750         9.1906 
 176   0.0000       0.342194         9.3116 
 177   0.0000       0.345444         9.4000 
 178   0.0000       0.348077         9.4717 
 179   0.0000       0.350320         9.5327 
 180   0.0000       0.359413         9.7801 
 181   0.0000       0.361542         9.8381 
 182   0.0000       0.369178        10.0458 
 183   0.0000       0.370751        10.0886 
 184   0.0000       0.373241        10.1564 
 185   0.0000       0.374987        10.2039 
 186   0.0000       0.378658        10.3038 
 187   0.0000       0.382187        10.3998 
 188   0.0000       0.385110        10.4794 
 189   0.0000       0.388959        10.5841 
 190   0.0000       0.396329        10.7847 
 191   0.0000       0.398790        10.8516 
 192   0.0000       0.403344        10.9756 
 193   0.0000       0.410200        11.1621 
 194   0.0000       0.411105        11.1867 
 195   0.0000       0.412417        11.2224 
 196   0.0000       0.415232        11.2990 
 197   0.0000       0.421921        11.4811 
 198   0.0000       0.428074        11.6485 
 199   0.0000       0.430449        11.7131 
 200   0.0000       0.435340        11.8462 
 201   0.0000       0.437823        11.9138 
 202   0.0000       0.441645        12.0178 
 203   0.0000       0.449884        12.2420 
 204   0.0000       0.450290        12.2530 
 205   0.0000       0.455503        12.3949 
 206   0.0000       0.457280        12.4432 
 207   0.0000       0.458917        12.4878 
 208   0.0000       0.459978        12.5166 
 209   0.0000       0.462007        12.5718 
 210   0.0000       0.463142        12.6027 
 211   0.0000       0.476959        12.9787 
 212   0.0000       0.478461        13.0196 
 213   0.0000       0.482430        13.1276 
 214   0.0000       0.484900        13.1948 
 215   0.0000       0.487185        13.2570 
 216   0.0000       0.490854        13.3568 
 217   0.0000       0.493902        13.4398 
 218   0.0000       0.496052        13.4983 
 219   0.0000       0.497760        13.5447 
 220   0.0000       0.503051        13.6887 
 221   0.0000       0.504164        13.7190 
 222   0.0000       0.509092        13.8531 
 223   0.0000       0.510897        13.9022 
 224   0.0000       0.512141        13.9361 
 225   0.0000       0.513972        13.9859 
 226   0.0000       0.516363        14.0509 
 227   0.0000       0.519037        14.1237 
 228   0.0000       0.520323        14.1587 
 229   0.0000       0.524696        14.2777 
 230   0.0000       0.529001        14.3948 
 231   0.0000       0.534243        14.5375 
 232   0.0000       0.535807        14.5801 
 233   0.0000       0.537952        14.6384 
 234   0.0000       0.544815        14.8252 
 235   0.0000       0.547105        14.8875 
 236   0.0000       0.548040        14.9129 
 237   0.0000       0.550766        14.9871 
 238   0.0000       0.551469        15.0062 
 239   0.0000       0.559540        15.2258 
 240   0.0000       0.565355        15.3841 
 241   0.0000       0.569109        15.4862 
 242   0.0000       0.569573        15.4989 
 243   0.0000       0.575996        15.6736 
 244   0.0000       0.579174        15.7601 
 245   0.0000       0.582837        15.8598 
 246   0.0000       0.584685        15.9101 
 247   0.0000       0.586922        15.9710 
 248   0.0000       0.591489        16.0952 
 249   0.0000       0.597132        16.2488 
 250   0.0000       0.599537        16.3142 
 251   0.0000       0.600533        16.3413 
 252   0.0000       0.601028        16.3548 
 253   0.0000       0.605339        16.4721 
 254   0.0000       0.605982        16.4896 
 255   0.0000       0.614385        16.7183 
 256   0.0000       0.616635        16.7795 
 257   0.0000       0.638863        17.3843 
 258   0.0000       0.643255        17.5039 
 259   0.0000       0.646604        17.5950 
 260   0.0000       0.650900        17.7119 
 261   0.0000       0.651459        17.7271 
 262   0.0000       0.660123        17.9629 
 263   0.0000       0.660539        17.9742 
 264   0.0000       0.670665        18.2497 
 265   0.0000       0.674097        18.3431 
 266   0.0000       0.681629        18.5481 
 267   0.0000       0.686499        18.6806 
 268   0.0000       0.693777        18.8786 
 269   0.0000       0.697118        18.9695 
 270   0.0000       0.701027        19.0759 
 271   0.0000       0.704861        19.1802 
 272   0.0000       0.709757        19.3135 
 273   0.0000       0.716705        19.5025 
 274   0.0000       0.719985        19.5918 
 275   0.0000       0.722411        19.6578 
 276   0.0000       0.726217        19.7614 
 277   0.0000       0.733070        19.9478 
 278   0.0000       0.737562        20.0701 
 279   0.0000       0.742682        20.2094 
 280   0.0000       0.745271        20.2799 
 281   0.0000       0.748448        20.3663 
 282   0.0000       0.755004        20.5447 
 283   0.0000       0.759918        20.6784 
 284   0.0000       0.762268        20.7424 
 285   0.0000       0.764232        20.7958 
 286   0.0000       0.765697        20.8357 
 287   0.0000       0.768283        20.9060 
 288   0.0000       0.774127        21.0651 
 289   0.0000       0.778429        21.1821 
 290   0.0000       0.779158        21.2020 
 291   0.0000       0.781352        21.2617 
 292   0.0000       0.787877        21.4392 
 293   0.0000       0.798064        21.7164 
 294   0.0000       0.799158        21.7462 
 295   0.0000       0.804325        21.8868 
 296   0.0000       0.807766        21.9804 
 297   0.0000       0.813302        22.1311 
 298   0.0000       0.814862        22.1735 
 299   0.0000       0.816555        22.2196 
 300   0.0000       0.820801        22.3351 
 301   0.0000       0.821380        22.3509 
 302   0.0000       0.823798        22.4167 
 303   0.0000       0.827424        22.5154 
 304   0.0000       0.835665        22.7396 
 305   0.0000       0.838393        22.8138 
 306   0.0000       0.842452        22.9243 
 307   0.0000       0.843273        22.9466 
 308   0.0000       0.845416        23.0049 
 309   0.0000       0.849557        23.1176 
 310   0.0000       0.852322        23.1929 
 311   0.0000       0.853434        23.2231 
 312   0.0000       0.859732        23.3945 
 313   0.0000       0.861043        23.4302 
 314   0.0000       0.862232        23.4625 
 315   0.0000       0.864654        23.5284 
 316   0.0000       0.867378        23.6026 
 317   0.0000       0.875322        23.8187 
 318   0.0000       0.876274        23.8446 
 319   0.0000       0.881097        23.9759 
 320   0.0000       0.886541        24.1240 
 321   0.0000       0.887948        24.1623 
 322   0.0000       0.891786        24.2667 
 323   0.0000       0.900479        24.5033 
 324   0.0000       0.907924        24.7059 
 325   0.0000       0.911700        24.8086 
 326   0.0000       0.914790        24.8927 
 327   0.0000       0.919242        25.0138 
 328   0.0000       0.922509        25.1028 
 329   0.0000       0.931451        25.3461 
 330   0.0000       0.933872        25.4119 
 331   0.0000       0.936497        25.4834 
 332   0.0000       0.939658        25.5694 
 333   0.0000       0.948773        25.8174 
 334   0.0000       0.957488        26.0546 
 335   0.0000       0.961541        26.1649 
 336   0.0000       0.965293        26.2670 
 337   0.0000       0.966305        26.2945 
 338   0.0000       0.969862        26.3913 
 339   0.0000       0.973919        26.5017 
 340   0.0000       0.976514        26.5723 
 341   0.0000       0.979956        26.6659 
 342   0.0000       0.987863        26.8811 
 343   0.0000       0.997097        27.1324 
 344   0.0000       1.000020        27.2119 
 345   0.0000       1.004207        27.3259 
 346   0.0000       1.010723        27.5032 
 347   0.0000       1.015027        27.6203 
 348   0.0000       1.016776        27.6679 
 349   0.0000       1.019388        27.7389 
 350   0.0000       1.026873        27.9426 
 351   0.0000       1.035433        28.1756 
 352   0.0000       1.039014        28.2730 
 353   0.0000       1.049992        28.5717 
 354   0.0000       1.057216        28.7683 
 355   0.0000       1.060030        28.8449 
 356   0.0000       1.066350        29.0169 
 357   0.0000       1.070813        29.1383 
 358   0.0000       1.077840        29.3295 
 359   0.0000       1.083622        29.4868 
 360   0.0000       1.088691        29.6248 
 361   0.0000       1.095012        29.7968 
 362   0.0000       1.097779        29.8721 
 363   0.0000       1.109872        30.2011 
 364   0.0000       1.111275        30.2393 
 365   0.0000       1.116265        30.3751 
 366   0.0000       1.123480        30.5714 
 367   0.0000       1.143400        31.1135 
 368   0.0000       1.145702        31.1761 
 369   0.0000       1.157178        31.4884 
 370   0.0000       1.160770        31.5862 
 371   0.0000       1.165605        31.7177 
 372   0.0000       1.172772        31.9128 
 373   0.0000       1.178295        32.0631 
 374   0.0000       1.186534        32.2872 
 375   0.0000       1.189397        32.3651 
 376   0.0000       1.193115        32.4663 
 377   0.0000       1.194732        32.5103 
 378   0.0000       1.200921        32.6787 
 379   0.0000       1.206389        32.8275 
 380   0.0000       1.213704        33.0266 
 381   0.0000       1.215537        33.0765 
 382   0.0000       1.232437        33.5363 
 383   0.0000       1.235090        33.6085 
 384   0.0000       1.238333        33.6968 
 385   0.0000       1.241327        33.7782 
 386   0.0000       1.254934        34.1485 
 387   0.0000       1.257558        34.2199 
 388   0.0000       1.267985        34.5036 
 389   0.0000       1.274267        34.6746 
 390   0.0000       1.278713        34.7956 
 391   0.0000       1.282057        34.8865 
 392   0.0000       1.299562        35.3629 
 393   0.0000       1.303849        35.4795 
 394   0.0000       1.310769        35.6678 
 395   0.0000       1.316336        35.8193 
 396   0.0000       1.326659        36.1002 
 397   0.0000       1.333508        36.2866 
 398   0.0000       1.337039        36.3827 
 399   0.0000       1.342831        36.5403 
 400   0.0000       1.346504        36.6402 
 401   0.0000       1.360115        37.0106 
 402   0.0000       1.362277        37.0694 
 403   0.0000       1.365879        37.1675 
 404   0.0000       1.371333        37.3159 
 405   0.0000       1.376383        37.4533 
 406   0.0000       1.378574        37.5129 
 407   0.0000       1.379865        37.5480 
 408   0.0000       1.384436        37.6724 
 409   0.0000       1.393659        37.9234 
 410   0.0000       1.399676        38.0871 
 411   0.0000       1.405318        38.2406 
 412   0.0000       1.411760        38.4159 
 413   0.0000       1.413101        38.4524 
 414   0.0000       1.418193        38.5910 
 415   0.0000       1.422945        38.7203 
 416   0.0000       1.425290        38.7841 
 417   0.0000       1.433384        39.0044 
 418   0.0000       1.438819        39.1523 
 419   0.0000       1.440844        39.2074 
 420   0.0000       1.442603        39.2552 
 421   0.0000       1.446909        39.3724 
 422   0.0000       1.461750        39.7762 
 423   0.0000       1.473828        40.1049 
 424   0.0000       1.475707        40.1560 
 425   0.0000       1.484838        40.4045 
 426   0.0000       1.490247        40.5517 
 427   0.0000       1.498135        40.7663 
 428   0.0000       1.504809        40.9479 
 429   0.0000       1.513008        41.1710 
 430   0.0000       1.524623        41.4871 
 431   0.0000       1.533784        41.7364 
 432   0.0000       1.542066        41.9617 
 433   0.0000       1.543205        41.9927 
 434   0.0000       1.553292        42.2672 
 435   0.0000       1.559213        42.4283 
 436   0.0000       1.572021        42.7769 
 437   0.0000       1.575177        42.8627 
 438   0.0000       1.588454        43.2240 
 439   0.0000       1.594477        43.3879 
 440   0.0000       1.598210        43.4895 
 441   0.0000       1.602468        43.6054 
 442   0.0000       1.612189        43.8699 
 443   0.0000       1.619991        44.0822 
 444   0.0000       1.621638        44.1270 
 445   0.0000       1.624627        44.2084 
 446   0.0000       1.634930        44.4887 
 447   0.0000       1.636602        44.5342 
 448   0.0000       1.645364        44.7726 
 449   0.0000       1.652998        44.9804 
 450   0.0000       1.655345        45.0442 
 451   0.0000       1.663551        45.2675 
 452   0.0000       1.665191        45.3122 
 453   0.0000       1.668492        45.4020 
 454   0.0000       1.678122        45.6640 
 455   0.0000       1.678443        45.6728 
 456   0.0000       1.683299        45.8049 
 457   0.0000       1.692735        46.0617 
 458   0.0000       1.699480        46.2452 
 459   0.0000       1.700579        46.2751 
 460   0.0000       1.702940        46.3394 
 461   0.0000       1.710166        46.5360 
 462   0.0000       1.715594        46.6837 
 463   0.0000       1.720494        46.8170 
 464   0.0000       1.725016        46.9401 
 465   0.0000       1.727554        47.0091 
 466   0.0000       1.734087        47.1869 
 467   0.0000       1.737438        47.2781 
 468   0.0000       1.742987        47.4291 
 469   0.0000       1.744793        47.4782 
 470   0.0000       1.751530        47.6616 
 471   0.0000       1.755913        47.7808 
 472   0.0000       1.756638        47.8006 
 473   0.0000       1.763068        47.9755 
 474   0.0000       1.768270        48.1171 
 475   0.0000       1.774490        48.2863 
 476   0.0000       1.776917        48.3524 
 477   0.0000       1.790161        48.7128 
 478   0.0000       1.797327        48.9078 
 479   0.0000       1.803855        49.0854 
 480   0.0000       1.807444        49.1830 
 481   0.0000       1.815846        49.4117 
 482   0.0000       1.819457        49.5099 
 483   0.0000       1.820803        49.5466 
 484   0.0000       1.823573        49.6219 
 485   0.0000       1.832795        49.8729 
 486   0.0000       1.838185        50.0195 
 487   0.0000       1.850902        50.3656 
 488   0.0000       1.853007        50.4229 
 489   0.0000       1.860951        50.6390 
 490   0.0000       1.866885        50.8005 
 491   0.0000       1.871173        50.9172 
 492   0.0000       1.872791        50.9612 
 493   0.0000       1.877243        51.0824 
 494   0.0000       1.891657        51.4746 
 495   0.0000       1.896207        51.5984 
 496   0.0000       1.899336        51.6836 
 497   0.0000       1.904686        51.8292 
 498   0.0000       1.909459        51.9590 
 499   0.0000       1.912133        52.0318 
 500   0.0000       1.913458        52.0678 
 501   0.0000       1.920933        52.2713 
 502   0.0000       1.922241        52.3068 
 503   0.0000       1.932525        52.5867 
 504   0.0000       1.936976        52.7078 
 505   0.0000       1.942619        52.8614 
 506   0.0000       1.949262        53.0421 
 507   0.0000       1.951129        53.0929 
 508   0.0000       1.956301        53.2337 
 509   0.0000       1.967086        53.5271 
 510   0.0000       1.971144        53.6376 
 511   0.0000       1.979133        53.8550 
 512   0.0000       1.990793        54.1722 
 513   0.0000       2.001782        54.4713 
 514   0.0000       2.008938        54.6660 
 515   0.0000       2.019255        54.9467 
 516   0.0000       2.023569        55.0641 
 517   0.0000       2.026803        55.1521 
 518   0.0000       2.037078        55.4317 
 519   0.0000       2.046535        55.6890 
 520   0.0000       2.047854        55.7249 
[...]
   106a -> 112a  :     0.018346 
   107a -> 113a  :     0.027163 
   107a -> 115a  :     0.039103 
   107a -> 116a  :     0.049577 
   107a -> 117a  :     0.048727 
   108a -> 111a  :     0.013235 
   108a -> 114a  :     0.181612 
   108a -> 118a  :     0.038550 
   109a -> 115a  :     0.091583 
   109a -> 116a  :     0.075898 
   110a -> 114a  :     0.219560 

STATE 13:  E=   0.212750 au      5.789 eV    46693.3 cm**-1 <S**2> =   0.000000
   102a -> 111a  :     0.360186 
   104a -> 112a  :     0.033839 
   104a -> 113a  :     0.045661 
   105a -> 112a  :     0.012516 
   106a -> 112a  :     0.149816 
   106a -> 113a  :     0.013312 
   106a -> 115a  :     0.012522 
   107a -> 112a  :     0.014130 
   107a -> 116a  :     0.016452 
   107a -> 117a  :     0.059552 
   108a -> 114a  :     0.088572 
   110a -> 114a  :     0.011906 
   110a -> 118a  :     0.078994 

STATE 14:  E=   0.204417 au      5.562 eV    44864.2 cm**-1 <S**2> =   0.000000
   104a -> 111a  :     0.047071 
   104a -> 114a  :     0.029172 
   104a -> 118a  :     0.030481 
   106a -> 118a  :     0.011480 
   107a -> 114a  :     0.039050 
   108a -> 112a  :     0.013742 
   108a -> 113a  :     0.031744 
   110a -> 112a  :     0.022065 
   110a -> 113a  :     0.571082 
   110a -> 115a  :     0.022093 
   110a -> 117a  :     0.089707 

STATE 15:  E=   0.201890 au      5.494 eV    44309.8 cm**-1 <S**2> =   0.000000
   102a -> 111a  :     0.192778 
   104a -> 112a  :     0.103269 
   105a -> 112a  :     0.039683 
   106a -> 112a  :     0.177241 
   106a -> 113a  :     0.083024 
   106a -> 117a  :     0.036525 
   107a -> 112a  :     0.097892 
   107a -> 113a  :     0.030813 
   108a -> 114a  :     0.032477 
   110a -> 111a  :     0.015052 
   110a -> 114a  :     0.044393 
   110a -> 118a  :     0.020168 
   110a -> 122a  :     0.021053 

STATE 16:  E=   0.213022 au      5.797 eV    46753.0 cm**-1 <S**2> =   0.000000
    96a -> 111a  :     0.010205 
    98a -> 111a  :     0.040867 
   100a -> 111a  :     0.022277 
   102a -> 111a  :     0.189344 
   102a -> 114a  :     0.012870 
   104a -> 112a  :     0.165047 
   105a -> 112a  :     0.047683 
   106a -> 112a  :     0.219308 
   106a -> 113a  :     0.016287 
   106a -> 117a  :     0.025261 
   107a -> 113a  :     0.032423 
   107a -> 115a  :     0.019240 
   107a -> 116a  :     0.019786 
   107a -> 117a  :     0.011805 
   110a -> 114a  :     0.020502 
   110a -> 122a  :     0.036839 

STATE 17:  E=   0.198125 au      5.391 eV    43483.4 cm**-1 <S**2> =   0.000000
    97a -> 111a  :     0.308191 
   103a -> 111a  :     0.492430 
   103a -> 114a  :     0.069365 
   107a -> 114a  :     0.012798 

STATE 18:  E=   0.224012 au      6.096 eV    49164.9 cm**-1 <S**2> =   0.000000
   102a -> 111a  :     0.063354 
   104a -> 113a  :     0.029311 
   105a -> 112a  :     0.014453 
   106a -> 112a  :     0.171107 
   107a -> 112a  :     0.064653 
   107a -> 113a  :     0.020323 
   108a -> 114a  :     0.162488 
   110a -> 114a  :     0.196460 
   110a -> 118a  :     0.189778 

STATE 19:  E=   0.204323 au      5.560 eV    44843.8 cm**-1 <S**2> =   0.000000
   101a -> 112a  :     0.012902 
   105a -> 115a  :     0.041155 
   105a -> 116a  :     0.019423 
   109a -> 112a  :     0.742101 
   109a -> 113a  :     0.098718 
   109a -> 115a  :     0.022079 

STATE 20:  E=   0.213369 au      5.806 eV    46829.1 cm**-1 <S**2> =   0.000000
   106a -> 114a  :     0.039547 
   106a -> 118a  :     0.013198 
   107a -> 114a  :     0.046440 
   107a -> 118a  :     0.021485 
   108a -> 112a  :     0.612787 
   108a -> 113a  :     0.064275 
   110a -> 112a  :     0.086799 
   110a -> 113a  :     0.016231 

STATE 21:  E=   0.235393 au      6.405 eV    51662.9 cm**-1 <S**2> =   0.000000
    98a -> 111a  :     0.013830 
   105a -> 112a  :     0.203854 
   105a -> 113a  :     0.224999 
   105a -> 115a  :     0.043747 
   105a -> 116a  :     0.047621 
   105a -> 117a  :     0.012668 
   106a -> 117a  :     0.013435 
   107a -> 113a  :     0.031908 
   107a -> 115a  :     0.010403 
   107a -> 116a  :     0.010743 
   108a -> 114a  :     0.026796 
   109a -> 115a  :     0.089674 
   109a -> 116a  :     0.122075 

STATE 22:  E=   0.234242 au      6.374 eV    51410.1 cm**-1 <S**2> =   0.000000
    97a -> 111a  :     0.047950 
   102a -> 112a  :     0.010575 
   106a -> 118a  :     0.031314 
   107a -> 114a  :     0.332486 
   107a -> 118a  :     0.012286 
   108a -> 112a  :     0.067736 
   108a -> 113a  :     0.056620 
   108a -> 115a  :     0.063864 
   108a -> 116a  :     0.075042 
   108a -> 117a  :     0.053183 
   110a -> 115a  :     0.058178 
   110a -> 116a  :     0.052974 
   110a -> 117a  :     0.061561 

STATE 23:  E=   0.234716 au      6.387 eV    51514.1 cm**-1 <S**2> =   0.000000
    95a -> 111a  :     0.014596 
    97a -> 111a  :     0.023874 
    98a -> 111a  :     0.016499 
   100a -> 111a  :     0.033857 
   102a -> 111a  :     0.030967 
   103a -> 114a  :     0.010572 
   104a -> 112a  :     0.029504 
   105a -> 113a  :     0.028808 
   106a -> 112a  :     0.016287 
   106a -> 113a  :     0.065227 
   106a -> 115a  :     0.017703 
   107a -> 112a  :     0.029576 
   107a -> 113a  :     0.048889 
   107a -> 115a  :     0.062550 
   107a -> 116a  :     0.070846 
   107a -> 117a  :     0.108269 
   108a -> 114a  :     0.088015 
   110a -> 114a  :     0.137938 
   110a -> 115a  :     0.012781 
   110a -> 118a  :     0.013742 

STATE 24:  E=   0.222572 au      6.056 eV    48848.9 cm**-1 <S**2> =   0.000000
    97a -> 111a  :     0.420165 
   103a -> 111a  :     0.146534 
   103a -> 114a  :     0.202922 
   103a -> 118a  :     0.052491 
   107a -> 114a  :     0.013081 

STATE 25:  E=   0.228983 au      6.231 eV    50256.0 cm**-1 <S**2> =   0.000000
   108a -> 112a  :     0.021746 
   108a -> 115a  :     0.044594 
   110a -> 113a  :     0.036770 
   110a -> 115a  :     0.614167 
   110a -> 116a  :     0.115044 
   110a -> 117a  :     0.025239 

STATE 26:  E=   0.239802 au      6.525 eV    52630.5 cm**-1 <S**2> =   0.000000
   104a -> 115a  :     0.028135 
   104a -> 116a  :     0.030616 
   105a -> 115a  :     0.284044 
   105a -> 116a  :     0.313798 
   106a -> 115a  :     0.011505 
   106a -> 116a  :     0.016007 
   109a -> 113a  :     0.230657 
   109a -> 116a  :     0.012159 

STATE 27:  E=   0.231434 au      6.298 eV    50793.8 cm**-1 <S**2> =   0.000000
    65a -> 111a  :     0.013660 
    79a -> 111a  :     0.013529 
    93a -> 111a  :     0.012239 
    94a -> 111a  :     0.064579 
    95a -> 111a  :     0.566166 
    96a -> 111a  :     0.023060 
    98a -> 111a  :     0.033570 
    99a -> 111a  :     0.063215 
   100a -> 111a  :     0.015663 
   101a -> 111a  :     0.043841 
   110a -> 114a  :     0.013970 

STATE 28:  E=   0.232618 au      6.330 eV    51053.8 cm**-1 <S**2> =   0.000000
   102a -> 113a  :     0.028934 
   106a -> 114a  :     0.199855 
   106a -> 118a  :     0.093068 
   107a -> 114a  :     0.012733 
   107a -> 118a  :     0.013619 
   108a -> 112a  :     0.103064 
   108a -> 113a  :     0.028172 
   110a -> 113a  :     0.024187 
   110a -> 116a  :     0.306317 
   110a -> 117a  :     0.081498 

STATE 29:  E=   0.237842 au      6.472 eV    52200.3 cm**-1 <S**2> =   0.000000
   102a -> 113a  :     0.014003 
   102a -> 117a  :     0.010943 
   104a -> 114a  :     0.029436 
   104a -> 118a  :     0.014000 
   105a -> 114a  :     0.032038 
   105a -> 118a  :     0.010351 
   106a -> 114a  :     0.192454 
   106a -> 118a  :     0.036470 
   107a -> 118a  :     0.022914 
   108a -> 112a  :     0.018132 
   108a -> 113a  :     0.035275 
   108a -> 115a  :     0.022562 
   108a -> 116a  :     0.040686 
   108a -> 117a  :     0.030415 
   110a -> 113a  :     0.083303 
   110a -> 115a  :     0.024140 
   110a -> 116a  :     0.223069 
   110a -> 117a  :     0.071534 

STATE 30:  E=   0.225045 au      6.124 eV    49391.6 cm**-1 <S**2> =   0.000000
    94a -> 111a  :     0.025374 
    96a -> 111a  :     0.058148 
   105a -> 112a  :     0.012036 
   106a -> 112a  :     0.061030 
   106a -> 113a  :     0.042191 
   107a -> 112a  :     0.618132 
   107a -> 113a  :     0.013358 
   107a -> 115a  :     0.036314 
   107a -> 116a  :     0.033188 


-------------------------
TD-DFT-EXCITATION SPECTRA
-------------------------

Center of mass = (  0.2696, -0.0009, -0.0102)
Calculating the Dipole integrals                  ... done
Transforming integrals                            ... done
Calculating the Linear Momentum integrals         ... done
Transforming integrals                            ... done
Calculating angular momentum integrals            ... done
Transforming integrals                            ... done

-----------------------------------------------------------------------------
         ABSORPTION SPECTRUM VIA TRANSITION ELECTRIC DIPOLE MOMENTS
-----------------------------------------------------------------------------
State   Energy    Wavelength  fosc         T2        TX        TY        TZ  
        (cm-1)      (nm)                 (au**2)    (au)      (au)      (au) 
-----------------------------------------------------------------------------
   1   23400.9    427.3   0.298190806   4.19506   2.04798   0.00965   0.02760
   2   28867.2    346.4   0.325560209   3.71280   0.00842  -1.92595  -0.05863
   3   28869.8    346.4   0.086573581   0.98723  -0.99339   0.00742  -0.01879
   4   29551.5    338.4   0.012938961   0.14414   0.07148   0.36609  -0.07078
   5   29181.9    342.7   0.006774423   0.07642   0.11659  -0.24037   0.07108
   6   32478.4    307.9   0.049567338   0.50243  -0.00363   0.66227   0.25261
   7   37984.3    263.3   0.073492340   0.63696   0.06125   0.64831  -0.46141
   8   38135.9    262.2   0.678073902   5.85355  -0.03118   2.39958   0.30757
   9   38387.5    260.5   0.491863834   4.21824  -0.00466   2.05369  -0.02417
  10   40471.2    247.1   0.015216457   0.12378  -0.03599   0.34176   0.07539
  11   46266.1    216.1   0.158372681   1.12692   1.05061   0.00078  -0.15215
  12   47011.9    212.7   0.001845965   0.01293  -0.05640  -0.03716  -0.09146
  13   46693.3    214.2   0.075028584   0.52899  -0.72430   0.01591  -0.06425
  14   44864.2    222.9   0.050922916   0.37367   0.00786  -0.57516   0.20688
  15   44309.8    225.7   0.031817682   0.23640  -0.48414   0.00109  -0.04478
  16   46753.0    213.9   0.002312933   0.01629   0.12390  -0.00675   0.02981
  17   43483.4    230.0   0.002448213   0.01854  -0.02668  -0.03961   0.12749
  18   49164.9    203.4   0.837818487   5.61010  -2.36833  -0.03122   0.01094
  19   44843.8    223.0   0.074838896   0.54942   0.65192   0.00614   0.35266
  20   46829.1    213.5   0.024563140   0.17268   0.05012   0.05902  -0.40827
  21   51662.9    193.6   1.711716146  10.90758  -3.30262   0.01115  -0.01211
  22   51410.1    194.5   0.331259861   2.12127  -0.06351  -0.89146   1.15002
  23   51514.1    194.1   0.115125554   0.73573  -0.85474   0.04970  -0.05176
  24   48848.9    204.7   0.037606303   0.25344  -0.21224  -0.12317   0.43957
  25   50256.0    199.0   0.017895825   0.11723   0.28038   0.16057   0.11329
  26   52630.5    190.0   0.430483174   2.69274   0.09358  -0.11488  -1.63425
  27   50793.8    196.9   0.008755242   0.05675   0.23715   0.00102   0.02244
  28   51053.8    195.9   0.114896859   0.74089   0.05025  -0.85505   0.08524
  29   52200.3    191.6   0.103030714   0.64978   0.00174  -0.79228   0.14860
  30   49391.6    202.5   0.028733677   0.19152  -0.43287  -0.06074  -0.02125

-----------------------------------------------------------------------------
         ABSORPTION SPECTRUM VIA TRANSITION VELOCITY DIPOLE MOMENTS
-----------------------------------------------------------------------------
State   Energy    Wavelength   fosc        P2         PX        PY        PZ  
        (cm-1)      (nm)                 (au**2)     (au)      (au)      (au) 
-----------------------------------------------------------------------------
   1   23400.9    427.3   0.422855095   0.06763  -0.26003  -0.00123  -0.00353
   2   28867.2    346.4   0.427155869   0.08427  -0.00127   0.29016   0.00883
   3   28869.8    346.4   0.118518033   0.02338   0.15289  -0.00115   0.00287
   4   29551.5    338.4   0.020428766   0.00413  -0.01176  -0.06205   0.01173
   5   29181.9    342.7   0.011089725   0.00221  -0.01939   0.04118  -0.01184
   6   32478.4    307.9   0.068831207   0.01528   0.00063  -0.11540  -0.04428
   7   37984.3    263.3   0.101060350   0.02624  -0.01403  -0.13081   0.09449
   8   38135.9    262.2   0.917448869   0.23912   0.00693  -0.48489  -0.06288
   9   38387.5    260.5   0.684234345   0.17952   0.00076  -0.42366   0.00515
  10   40471.2    247.1   0.019484154   0.00539   0.00767  -0.07119  -0.01621
  11   46266.1    216.1   0.169879660   0.05372  -0.22934  -0.00020   0.03347
  12   47011.9    212.7   0.002004828   0.00064   0.01278   0.00821   0.02033
  13   46693.3    214.2   0.084814097   0.02707   0.16384  -0.00362   0.01451
  14   44864.2    222.9   0.064866296   0.01989  -0.00187   0.13295  -0.04702
  15   44309.8    225.7   0.043160222   0.01307   0.11385  -0.00026   0.01046
  16   46753.0    213.9   0.002702025   0.00086  -0.02848   0.00162  -0.00705
  17   43483.4    230.0   0.003290928   0.00098   0.00628   0.00956  -0.02911
  18   49164.9    203.4   1.007877432   0.33866   0.58189   0.00766  -0.00254
  19   44843.8    223.0   0.108534178   0.03326  -0.16129  -0.00170  -0.08512
  20   46829.1    213.5   0.033228617   0.01063  -0.01248  -0.01461   0.10132
  21   51662.9    193.6   1.956740786   0.69091   0.83120  -0.00285   0.00308
  22   51410.1    194.5   0.389330893   0.13680   0.01611   0.22603  -0.29231
  23   51514.1    194.1   0.139412218   0.04908   0.22078  -0.01260   0.01351
  24   48848.9    204.7   0.050401589   0.01683   0.05487   0.03112  -0.11335
  25   50256.0    199.0   0.022875544   0.00786  -0.07295  -0.04111  -0.02908
  26   52630.5    190.0   0.505381758   0.18179  -0.02570   0.02973   0.42455
  27   50793.8    196.9   0.011257596   0.00391  -0.06224  -0.00018  -0.00589
  28   51053.8    195.9   0.147002966   0.05129  -0.01319   0.22496  -0.02266
  29   52200.3    191.6   0.131330545   0.04685  -0.00042   0.21289  -0.03915
  30   49391.6    202.5   0.040238440   0.01358   0.11526   0.01632   0.00571

-------------------------------------------------------------------
                             CD SPECTRUM
-------------------------------------------------------------------
State  Energy     Wavelength     R         MX        MY        MZ   
       (cm-1)       (nm)     (1e40*cgs)   (au)      (au)      (au)  
-------------------------------------------------------------------
   1   23400.9    427.3     45.72829   0.04749  -0.02222  -0.00205
   2   28867.2    346.4      9.00267  -0.00961  -0.00538  -0.15037
   3   28869.8    346.4     18.91029  -0.04040   0.00417   0.00265
   4   29551.5    338.4     32.15487   0.03296   0.10668  -0.37854
   5   29181.9    342.7     22.72663   0.02313  -0.10981   0.26891
   6   32478.4    307.9    -115.32731   0.01623  -0.15171  -0.57042
   7   37984.3    263.3    -82.01196   0.00998  -0.33164  -0.08763
   8   38135.9    262.2     87.00409   0.02968   0.12622  -0.38175
   9   38387.5    260.5    -55.72072   0.02311  -0.06051  -0.25630
  10   40471.2    247.1    -12.06392   0.00353  -0.05346  -0.09538
  11   46266.1    216.1     17.06100   0.03724  -0.21657   0.01817
  12   47011.9    212.7      4.42072  -0.03942  -0.14048  -0.02114
  13   46693.3    214.2      1.25662  -0.00651  -0.02716   0.02523
  14   44864.2    222.9    -84.59898   0.01632  -0.11917  -1.19930
  15   44309.8    225.7      9.22711  -0.04059  -0.02254   0.00126
  16   46753.0    213.9     -0.24998  -0.00142   0.00804  -0.01004
  17   43483.4    230.0     -8.86809   0.00638  -0.01135  -0.14973
  18   49164.9    203.4    -15.19918   0.01277   0.06122  -0.00715
  19   44843.8    223.0      8.79681   0.00331   0.34048   0.04085
  20   46829.1    213.5     49.76483  -0.01618   0.58752  -0.17560
  21   51662.9    193.6     59.81502  -0.03772   0.23473   0.02596
  22   51410.1    194.5    -60.20687   0.04137  -1.20313  -1.04139
  23   51514.1    194.1     50.90246  -0.11877   0.11314  -0.01605
  24   48848.9    204.7     36.45655  -0.03416  -0.39637   0.04836
  25   50256.0    199.0    -33.32008  -0.17811  -0.10779  -0.03027
  26   52630.5    190.0     16.16139  -0.01332  -1.93782   0.11448
  27   50793.8    196.9    -12.87700  -0.11442   0.03294  -0.00945
  28   51053.8    195.9    -38.28087  -0.11730   0.13502   0.47103
  29   52200.3    191.6    121.62886   0.03350  -0.18262   0.76212
  30   49391.6    202.5    -10.94704   0.05636  -0.03494   0.04459

Total run time:    33373.931 sec

           *** ORCA-CIS/TD-DFT FINISHED WITHOUT ERROR ***

Maximum memory used throughout the entire CIS-calculation: 5645.6 MB

-----------------------
CIS/TD-DFT TOTAL ENERGY
-----------------------

    E(SCF)  =  -1453.478056135 Eh
    DE(CIS) =      0.106622137 Eh (Root  1)
    ----------------------------- ---------
    E(tot)  =  -1453.371433998 Eh


-------------------------   --------------------
FINAL SINGLE POINT ENERGY     -1453.371433998309
-------------------------   --------------------


                            ***************************************
                            *     ORCA property calculations      *
                            ***************************************


  WARNING: The energy has been calculated at the MP2 level but the densities
           used in the property calculations are still SCF densities
           MP2 response densities have not been calculated 
           use %mp2 Density relaxed end
           or  %mp2 Density unrelaxed end

                                    ---------------------
                                    Active property flags
                                    ---------------------
   (+) Dipole Moment


------------------------------------------------------------------------------
                       ORCA ELECTRIC PROPERTIES CALCULATION
------------------------------------------------------------------------------

Dipole Moment Calculation                       ... on
Quadrupole Moment Calculation                   ... off
Polarizability Calculation                      ... off
GBWName                                         ... BF3-Acr_p_M06L_def2TZVP_coords.gbw
Electron density                                ... BF3-Acr_p_M06L_def2TZVP_coords.scfp
The origin for moment calculation is the CENTER OF MASS  = ( 0.269627, -0.000920 -0.010201)

-------------
DIPOLE MOMENT
-------------
                                X             Y             Z
Electronic contribution:     44.76756      -0.12024      -1.84687
Nuclear contribution   :    -59.85722       0.20415       2.26466
                        -----------------------------------------
Total Dipole Moment    :    -15.08966       0.08391       0.41779
                        -----------------------------------------
Magnitude (a.u.)       :     15.09567
Magnitude (Debye)      :     38.37015



--------------------
Rotational spectrum 
--------------------
 
Rotational constants in cm-1:     0.012130     0.001892     0.001710 
Rotational constants in MHz :   363.659825    56.710211    51.257227 

 Dipole components along the rotational axes: 
x,y,z [a.u.] :   -15.088130    -0.084371     0.469664 
x,y,z [Debye]:   -38.350978    -0.214453     1.193791 

 

Timings for individual modules:

Sum of individual times         ...    35019.234 sec (= 583.654 min)
GTO integral calculation        ...       22.061 sec (=   0.368 min)   0.1 %
SCF iterations                  ...      544.857 sec (=   9.081 min)   1.6 %
MP2 module                      ...     1075.867 sec (=  17.931 min)   3.1 %
CIS module                      ...    33376.449 sec (= 556.274 min)  95.3 %
                             ****ORCA TERMINATED NORMALLY****
TOTAL RUN TIME: 0 days 9 hours 44 minutes 13 seconds 235 msec
