
                                 *****************
                                 * O   R   C   A *
                                 *****************

                                            #,                                       
                                            ###                                      
                                            ####                                     
                                            #####                                    
                                            ######                                   
                                           ########,                                 
                                     ,,################,,,,,                         
                               ,,#################################,,                 
                          ,,##########################################,,             
                       ,#########################################, ''#####,          
                    ,#############################################,,   '####,        
                  ,##################################################,,,,####,       
                ,###########''''           ''''###############################       
              ,#####''   ,,,,##########,,,,          '''####'''          '####       
            ,##' ,,,,###########################,,,                        '##       
           ' ,,###''''                  '''############,,,                           
         ,,##''                                '''############,,,,        ,,,,,,###''
      ,#''                                            '''#######################'''  
     '                                                          ''''####''''         
             ,#######,   #######,   ,#######,      ##                                
            ,#'     '#,  ##    ##  ,#'     '#,    #''#        ######   ,####,        
            ##       ##  ##   ,#'  ##            #'  '#       #        #'  '#        
            ##       ##  #######   ##           ,######,      #####,   #    #        
            '#,     ,#'  ##    ##  '#,     ,#' ,#      #,         ##   #,  ,#        
             '#######'   ##     ##  '#######'  #'      '#     #####' # '####'        



                  #######################################################
                  #                        -***-                        #
                  #          Department of theory and spectroscopy      #
                  #    Directorship and core code : Frank Neese         #
                  #        Max Planck Institute fuer Kohlenforschung    #
                  #                Kaiser Wilhelm Platz 1               #
                  #                 D-45470 Muelheim/Ruhr               #
                  #                      Germany                        #
                  #                                                     #
                  #                  All rights reserved                #
                  #                        -***-                        #
                  #######################################################


                         Program Version 5.0.2 -  RELEASE  -


 With contributions from (in alphabetic order):
   Daniel Aravena         : Magnetic Suceptibility
   Michael Atanasov       : Ab Initio Ligand Field Theory (pilot matlab implementation)
   Alexander A. Auer      : GIAO ZORA, VPT2 properties, NMR spectrum
   Ute Becker             : Parallelization
   Giovanni Bistoni       : ED, misc. LED, open-shell LED, HFLD
   Martin Brehm           : Molecular dynamics
   Dmytro Bykov           : SCF Hessian
   Vijay G. Chilkuri      : MRCI spin determinant printing, contributions to CSF-ICE
   Dipayan Datta          : RHF DLPNO-CCSD density
   Achintya Kumar Dutta   : EOM-CC, STEOM-CC
   Dmitry Ganyushin       : Spin-Orbit,Spin-Spin,Magnetic field MRCI
   Miquel Garcia          : C-PCM and meta-GGA Hessian, CC/C-PCM, Gaussian charge scheme
   Yang Guo               : DLPNO-NEVPT2, F12-NEVPT2, CIM, IAO-localization
   Andreas Hansen         : Spin unrestricted coupled pair/coupled cluster methods
   Benjamin Helmich-Paris : MC-RPA, TRAH-SCF, COSX integrals
   Lee Huntington         : MR-EOM, pCC
   Robert Izsak           : Overlap fitted RIJCOSX, COSX-SCS-MP3, EOM
   Marcus Kettner         : VPT2
   Christian Kollmar      : KDIIS, OOCD, Brueckner-CCSD(T), CCSD density, CASPT2, CASPT2-K
   Simone Kossmann        : Meta GGA functionals, TD-DFT gradient, OOMP2, MP2 Hessian
   Martin Krupicka        : Initial AUTO-CI
   Lucas Lang             : DCDCAS
   Marvin Lechner         : AUTO-CI (C++ implementation), FIC-MRCC
   Dagmar Lenk            : GEPOL surface, SMD
   Dimitrios Liakos       : Extrapolation schemes; Compound Job, initial MDCI parallelization
   Dimitrios Manganas     : Further ROCIS development; embedding schemes
   Dimitrios Pantazis     : SARC Basis sets
   Anastasios Papadopoulos: AUTO-CI, single reference methods and gradients
   Taras Petrenko         : DFT Hessian,TD-DFT gradient, ASA, ECA, R-Raman, ABS, FL, XAS/XES, NRVS
   Peter Pinski           : DLPNO-MP2, DLPNO-MP2 Gradient
   Christoph Reimann      : Effective Core Potentials
   Marius Retegan         : Local ZFS, SOC
   Christoph Riplinger    : Optimizer, TS searches, QM/MM, DLPNO-CCSD(T), (RO)-DLPNO pert. Triples
   Tobias Risthaus        : Range-separated hybrids, TD-DFT gradient, RPA, STAB
   Michael Roemelt        : Original ROCIS implementation
   Masaaki Saitow         : Open-shell DLPNO-CCSD energy and density
   Barbara Sandhoefer     : DKH picture change effects
   Avijit Sen             : IP-ROCIS
   Kantharuban Sivalingam : CASSCF convergence, NEVPT2, FIC-MRCI
   Bernardo de Souza      : ESD, SOC TD-DFT
   Georgi Stoychev        : AutoAux, RI-MP2 NMR, DLPNO-MP2 response
   Willem Van den Heuvel  : Paramagnetic NMR
   Boris Wezisla          : Elementary symmetry handling
   Frank Wennmohs         : Technical directorship


 We gratefully acknowledge several colleagues who have allowed us to
 interface, adapt or use parts of their codes:
   Stefan Grimme, W. Hujo, H. Kruse, P. Pracht,  : VdW corrections, initial TS optimization,
                  C. Bannwarth, S. Ehlert          DFT functionals, gCP, sTDA/sTD-DF
   Ed Valeev, F. Pavosevic, A. Kumar             : LibInt (2-el integral package), F12 methods
   Garnet Chan, S. Sharma, J. Yang, R. Olivares  : DMRG
   Ulf Ekstrom                                   : XCFun DFT Library
   Mihaly Kallay                                 : mrcc  (arbitrary order and MRCC methods)
   Jiri Pittner, Ondrej Demel                    : Mk-CCSD
   Frank Weinhold                                : gennbo (NPA and NBO analysis)
   Christopher J. Cramer and Donald G. Truhlar   : smd solvation model
   Lars Goerigk                                  : TD-DFT with DH, B97 family of functionals
   V. Asgeirsson, H. Jonsson                     : NEB implementation
   FAccTs GmbH                                   : IRC, NEB, NEB-TS, DLPNO-Multilevel, CI-OPT
                                                   MM, QMMM, 2- and 3-layer-ONIOM, Crystal-QMMM,
                                                   LR-CPCM, SF, NACMEs, symmetry and pop. for TD-DFT,
                                                   nearIR, NL-DFT gradient (VV10), updates on ESD,
                                                   ML-optimized integration grids
   S Lehtola, MJT Oliveira, MAL Marques          : LibXC Library
   Liviu Ungur et al                             : ANISO software


 Your calculation uses the libint2 library for the computation of 2-el integrals
 For citations please refer to: http://libint.valeyev.net

 Your ORCA version has been built with support for libXC version: 5.1.0
 For citations please refer to: https://tddft.org/programs/libxc/

 This ORCA versions uses:
   CBLAS   interface :  Fast vector & matrix operations
   LAPACKE interface :  Fast linear algebra routines
   SCALAPACK package :  Parallel linear algebra routines
   Shared memory     :  Shared parallel matrices
   BLAS/LAPACK       :  OpenBLAS 0.3.15  USE64BITINT DYNAMIC_ARCH NO_AFFINITY Prescott SINGLE_THREADED
        Core in use  :  Prescott
   Copyright (c) 2011-2014, The OpenBLAS Project


Your calculation utilizes the SMD solvation module
Please cite in your paper:
A.V. Marenich, C.J. Cramer, D.G. Truhlar J. Phys. Chem. B, 113, (2009), 6378 

================================================================================

----- Orbital basis set information -----
Your calculation utilizes the basis: def2-TZVP
   F. Weigend and R. Ahlrichs, Phys. Chem. Chem. Phys. 7, 3297 (2005).

----- AuxJ basis set information -----
Your calculation utilizes the auxiliary basis: def2/J
   F. Weigend, Phys. Chem. Chem. Phys. 8, 1057 (2006).

----- AuxC basis set information -----
Your calculation utilizes the auxiliary basis: def2-TZVP/C
  H-La, Hf-Rn : A. Hellweg, C. Hattig, S. Hofener and W. Klopper, Theor. Chem. Acc. 117, 587 (2007).
        Ce-Lu : J. Chmela and M. E. Harding, Mol. Phys. (2018).

================================================================================
                                        WARNINGS
                       Please study these warnings very carefully!
================================================================================

INFO   : Checking CIS options ...
  ===> : (D) CORRECTION FOUND - SETTING MODE=3
  ===> : JK MODE FOUND - ACTIVATING RI-MP2 CODE
  ===> : MP2 AND CIS FOUND - CHECKING
WARNING: CIS(D) and MP2 runs must have the same orbital window
  ===> : adjusting orbital windows

WARNING: No MP2 level density has been requested!
         To caclulate MP2 level properties use
         %mp2 Density relaxed end
         or
         %mp2 Density unrelaxed end
         Otherwise for double-hybrid DFT only the energy is correct!

WARNING: The frozen-core approximation is turned on by default for 
         the MP2 part of double-hybrid DFT.

WARNING: CIS/ROCIS methods need fully converged wavefunctions
  ===> : Setting SCFConvForced true
         You can overwrite this default with %scf ConvForced false 


INFO   : the flag for use of the SHARK integral package has been found!

================================================================================
                                       INPUT FILE
================================================================================
NAME = BF3-Acr_p_M06L_def2TZVP_coords.inp
|  1> %maxcore 20000
|  2> %pal
|  3>  nprocs= 4
|  4> end
|  5> ! RI-B2GP-PLYP   def2-TZVP def2/J def2-TZVP/C RIJCOSX CPCM TightSCF
|  6> %TDDFT  
|  7>    NROOTS   30
|  8>    dcorr 4
|  9>    TDA      FALSE
| 10> END
| 11> 
| 12> %CPCM
| 13>    SMD          TRUE
| 14>    SMDsolvent   "ACETONITRILE"
| 15> END
| 16>    
| 17> 
| 18> * xyz 0 1
| 19> C                  -1.33517900    3.59951500    0.01496600
| 20> C                  -1.99941600    2.40569100   -0.06161400
| 21> C                  -1.27852900    1.19839100   -0.05656400
| 22> C                   0.14681400    1.22248100   -0.00378800
| 23> C                   0.78287200    2.48471500    0.11273800
| 24> C                   0.06482600    3.64387900    0.11890300
| 25> C                   0.87039300    0.01271300   -0.03377000
| 26> C                   0.16140500   -1.20443600   -0.09601700
| 27> C                  -1.26500900   -1.19505800   -0.10071500
| 28> C                  -1.97286100   -2.40970700   -0.12793000
| 29> H                  -3.05211800   -2.40114300   -0.11061500
| 30> C                  -1.29378600   -3.59640200   -0.18090600
| 31> C                   0.10968600   -3.62619400   -0.22761800
| 32> C                   0.81490700   -2.45972300   -0.18912700
| 33> H                  -1.90341100    4.52055100    0.01020300
| 34> H                  -3.07689300    2.38605600   -0.12303900
| 35> H                   1.85800200    2.51440200    0.20994300
| 36> H                   0.56938500    4.59585900    0.21170600
| 37> H                  -1.85221400   -4.52318100   -0.20235400
| 38> H                   0.62740400   -4.57268200   -0.30223200
| 39> H                   1.89343600   -2.47802700   -0.24240000
| 40> N                  -1.93575900   -0.00191000   -0.08975100
| 41> C                   2.34016300    0.01909200   -0.00022100
| 42> C                   3.03378200   -0.63478900    1.02206500
| 43> C                   3.07600300    0.67822300   -0.98770700
| 44> C                   4.41729100   -0.61163300    1.05294000
| 45> C                   4.46058100    0.66574600   -0.95363000
| 46> C                   5.17266500    0.02959800    0.06609100
| 47> H                   5.00464300    1.17230600   -1.74368700
| 48> H                   2.55250900    1.18188800   -1.79213400
| 49> C                  -3.38215200   -0.00910800   -0.11245000
| 50> C                  -4.08300000    0.01602500    1.07835000
| 51> C                  -4.04762200   -0.03955400   -1.33022100
| 52> C                  -5.46937200    0.01138600    1.06517500
| 53> H                  -3.54605200    0.03998200    2.01828600
| 54> C                  -5.42627000   -0.04411500   -1.35017500
| 55> H                  -3.48259400   -0.05934600   -2.25346900
| 56> C                  -6.14715000   -0.01833900   -0.15319800
| 57> H                  -6.01021200    0.03110300    2.00014500
| 58> H                  -5.96618700   -0.06701500   -2.28747400
| 59> O                  -7.48941500   -0.02427900   -0.27426500
| 60> C                  -8.25978000    0.00391500    0.91824300
| 61> H                  -9.30015500   -0.00518900    0.60609500
| 62> H                  -8.06384600   -0.87126300    1.54134300
| 63> H                  -8.06624400    0.90924100    1.49749300
| 64> H                   4.92649100   -1.10906800    1.87219600
| 65> B                   6.78084300   -0.00531600    0.09357000
| 66> F                   7.34166600    1.03029900   -0.69206700
| 67> F                   7.26987200   -1.24050000   -0.41765900
| 68> F                   7.28020500    0.12750000    1.41408500
| 69> H                   2.47622100   -1.13985700    1.80237700
| 70> *
| 71> 
| 72> 
| 73>                          ****END OF INPUT****
================================================================================

                       ****************************
                       * Single Point Calculation *
                       ****************************

---------------------------------
CARTESIAN COORDINATES (ANGSTROEM)
---------------------------------
  C     -1.335179    3.599515    0.014966
  C     -1.999416    2.405691   -0.061614
  C     -1.278529    1.198391   -0.056564
  C      0.146814    1.222481   -0.003788
  C      0.782872    2.484715    0.112738
  C      0.064826    3.643879    0.118903
  C      0.870393    0.012713   -0.033770
  C      0.161405   -1.204436   -0.096017
  C     -1.265009   -1.195058   -0.100715
  C     -1.972861   -2.409707   -0.127930
  H     -3.052118   -2.401143   -0.110615
  C     -1.293786   -3.596402   -0.180906
  C      0.109686   -3.626194   -0.227618
  C      0.814907   -2.459723   -0.189127
  H     -1.903411    4.520551    0.010203
  H     -3.076893    2.386056   -0.123039
  H      1.858002    2.514402    0.209943
  H      0.569385    4.595859    0.211706
  H     -1.852214   -4.523181   -0.202354
  H      0.627404   -4.572682   -0.302232
  H      1.893436   -2.478027   -0.242400
  N     -1.935759   -0.001910   -0.089751
  C      2.340163    0.019092   -0.000221
  C      3.033782   -0.634789    1.022065
  C      3.076003    0.678223   -0.987707
  C      4.417291   -0.611633    1.052940
  C      4.460581    0.665746   -0.953630
  C      5.172665    0.029598    0.066091
  H      5.004643    1.172306   -1.743687
  H      2.552509    1.181888   -1.792134
  C     -3.382152   -0.009108   -0.112450
  C     -4.083000    0.016025    1.078350
  C     -4.047622   -0.039554   -1.330221
  C     -5.469372    0.011386    1.065175
  H     -3.546052    0.039982    2.018286
  C     -5.426270   -0.044115   -1.350175
  H     -3.482594   -0.059346   -2.253469
  C     -6.147150   -0.018339   -0.153198
  H     -6.010212    0.031103    2.000145
  H     -5.966187   -0.067015   -2.287474
  O     -7.489415   -0.024279   -0.274265
  C     -8.259780    0.003915    0.918243
  H     -9.300155   -0.005189    0.606095
  H     -8.063846   -0.871263    1.541343
  H     -8.066244    0.909241    1.497493
  H      4.926491   -1.109068    1.872196
  B      6.780843   -0.005316    0.093570
  F      7.341666    1.030299   -0.692067
  F      7.269872   -1.240500   -0.417659
  F      7.280205    0.127500    1.414085
  H      2.476221   -1.139857    1.802377

----------------------------
CARTESIAN COORDINATES (A.U.)
----------------------------
  NO LB      ZA    FRAG     MASS         X           Y           Z
   0 C     6.0000    0    12.011   -2.523123    6.802098    0.028282
   1 C     6.0000    0    12.011   -3.778349    4.546097   -0.116434
   2 C     6.0000    0    12.011   -2.416070    2.264631   -0.106890
   3 C     6.0000    0    12.011    0.277438    2.310154   -0.007158
   4 C     6.0000    0    12.011    1.479414    4.695431    0.213044
   5 C     6.0000    0    12.011    0.122503    6.885933    0.224694
   6 C     6.0000    0    12.011    1.644804    0.024024   -0.063816
   7 C     6.0000    0    12.011    0.305011   -2.276054   -0.181446
   8 C     6.0000    0    12.011   -2.390521   -2.258332   -0.190324
   9 C     6.0000    0    12.011   -3.728167   -4.553686   -0.241753
  10 H     1.0000    0     1.008   -5.767667   -4.537503   -0.209032
  11 C     6.0000    0    12.011   -2.444901   -6.796215   -0.341863
  12 C     6.0000    0    12.011    0.207277   -6.852514   -0.430136
  13 C     6.0000    0    12.011    1.539951   -4.648203   -0.357398
  14 H     1.0000    0     1.008   -3.596926    8.542603    0.019281
  15 H     1.0000    0     1.008   -5.814485    4.508992   -0.232510
  16 H     1.0000    0     1.008    3.511115    4.751531    0.396735
  17 H     1.0000    0     1.008    1.075982    8.684915    0.400066
  18 H     1.0000    0     1.008   -3.500177   -8.547573   -0.382394
  19 H     1.0000    0     1.008    1.185622   -8.641117   -0.571136
  20 H     1.0000    0     1.008    3.578075   -4.682792   -0.458070
  21 N     7.0000    0    14.007   -3.658054   -0.003609   -0.169605
  22 C     6.0000    0    12.011    4.422267    0.036079   -0.000418
  23 C     6.0000    0    12.011    5.733017   -1.199577    1.931423
  24 C     6.0000    0    12.011    5.812803    1.281656   -1.866496
  25 C     6.0000    0    12.011    8.347470   -1.155819    1.989768
  26 C     6.0000    0    12.011    8.429276    1.258078   -1.802100
  27 C     6.0000    0    12.011    9.774920    0.055932    0.124894
  28 H     1.0000    0     1.008    9.457405    2.215337   -3.295091
  29 H     1.0000    0     1.008    4.823543    2.233445   -3.386642
  30 C     6.0000    0    12.011   -6.391341   -0.017212   -0.212500
  31 C     6.0000    0    12.011   -7.715752    0.030283    2.037786
  32 C     6.0000    0    12.011   -7.648897   -0.074746   -2.513753
  33 C     6.0000    0    12.011  -10.335615    0.021516    2.012889
  34 H     1.0000    0     1.008   -6.701067    0.075555    3.814008
  35 C     6.0000    0    12.011  -10.254164   -0.083365   -2.551461
  36 H     1.0000    0     1.008   -6.581149   -0.112148   -4.258439
  37 C     6.0000    0    12.011  -11.616430   -0.034656   -0.289502
  38 H     1.0000    0     1.008  -11.357655    0.058776    3.779726
  39 H     1.0000    0     1.008  -11.274459   -0.126640   -4.322699
  40 O     8.0000    0    15.999  -14.152943   -0.045881   -0.518286
  41 C     6.0000    0    12.011  -15.608722    0.007398    1.735228
  42 H     1.0000    0     1.008  -17.574746   -0.009806    1.145354
  43 H     1.0000    0     1.008  -15.238461   -1.646448    2.912716
  44 H     1.0000    0     1.008  -15.242992    1.718216    2.829852
  45 H     1.0000    0     1.008    9.309719   -2.095835    3.537938
  46 B     5.0000    0    10.810   12.813936   -0.010046    0.176822
  47 F     9.0000    0    18.998   13.873738    1.946983   -1.307817
  48 F     9.0000    0    18.998   13.738067   -2.344205   -0.789261
  49 F     9.0000    0    18.998   13.757594    0.240940    2.672233
  50 H     1.0000    0     1.008    4.679380   -2.154018    3.405999

--------------------------------
INTERNAL COORDINATES (ANGSTROEM)
--------------------------------
 C      0   0   0     0.000000000000     0.00000000     0.00000000
 C      1   0   0     1.368316860798     0.00000000     0.00000000
 C      2   1   0     1.406156769094   120.00148407     0.00000000
 C      3   2   1     1.426523151556   119.85947348   358.50227796
 C      4   3   2     1.418232265461   117.78693217     3.23050953
 C      5   4   3     1.363557569095   121.38562112   357.33704299
 C      4   3   2     1.409965993699   119.83396463   181.64249768
 C      7   4   3     1.409961120511   118.91848107   359.07322385
 C      8   7   4     1.426452564050   119.82144588   358.76078399
 C      9   8   7     1.406117812749   119.85321751   181.63815918
 H     10   9   8     1.079429860329   119.74654684   178.72612388
 C     10   9   8     1.368281526304   120.00662064   358.49699462
 C     12  10   9     1.404565138750   121.03723432   359.11079111
 C     13  12  10     1.363624878683   119.84669542     1.51760182
 H      1   2   3     1.082228074524   119.16949806   180.01041456
 H      2   1   3     1.079405044170   120.24041925   179.81524930
 H      5   4   3     1.079923444923   118.57818347   176.59356941
 H      6   5   4     1.081414861045   120.20169344   179.81720853
 H     12  10   9     1.082229718095   119.16922644   180.06276183
 H     13  12  10     1.081405895427   119.94919664   182.02531665
 H     14  13  12     1.079999005919   120.03787447   181.07762757
 N      9   8   7     1.368805289915   119.71703539     2.17239735
 C      7   4   3     1.470166684408   120.58675129   179.09545839
 C     23   7   4     1.397761190303   120.71459015   120.94732681
 C     23   7   4     1.396797329951   120.83567936   300.96584747
 C     24  23   7     1.384047188156   120.30024783   180.67011130
 C     25  23   7     1.385053484723   120.33000176   180.67691114
 C     27  25  23     1.396989197811   122.11455852   358.63602354
 H     27  25  23     1.084802542721   118.63536342   178.97308938
 H     25  23   7     1.083894459156   119.30946568   359.40815726
 C     22   9   8     1.446589010830   119.04500586   179.19585889
 C     31  22   9     1.381963902131   119.56819294    92.38880077
 C     31  22   9     1.388071859904   119.55315748   272.31204011
 C     32  31  22     1.386442362066   119.92489211   179.90199655
 H     32  31  22     1.082758872810   119.79647414   359.94519784
 C     33  31  22     1.378799939346   119.48111127   180.10795308
 H     33  31  22     1.082605760908   119.89134801     0.10099587
 C     34  32  31     1.394524779284   119.62867578     0.00000000
 H     34  32  31     1.080308088736   119.49345859   179.99719893
 H     36  33  31     1.081926149185   120.76950438   179.96203739
 O     38  34  32     1.347726913107   124.23826250   180.05168186
 C     41  38  34     1.419976219845   117.69682973     0.11200196
 H     42  41  38     1.086231742008   106.14780307   179.94691436
 H     42  41  38     1.092053237732   111.46452654   298.76218187
 H     42  41  38     1.092063144727   111.45461102    61.13560858
 H     26  24  23     1.085314061809   118.56539299   178.59368842
 B     28  27  25     1.608791646709   122.13280074   179.00196119
 F     47  28  27     1.415714081770   111.75486689    21.17627787
 F     47  28  27     1.423440889935   110.86212834   261.37333319
 F     47  28  27     1.418013526778   111.46268067   142.11394267
 H     24  23   7     1.083907178078   119.29071372   359.24118129

---------------------------
INTERNAL COORDINATES (A.U.)
---------------------------
 C      0   0   0     0.000000000000     0.00000000     0.00000000
 C      1   0   0     2.585744131336     0.00000000     0.00000000
 C      2   1   0     2.657251194947   120.00148407     0.00000000
 C      3   2   1     2.695738080139   119.85947348   358.50227796
 C      4   3   2     2.680070576013   117.78693217     3.23050953
 C      5   4   3     2.576750373425   121.38562112   357.33704299
 C      4   3   2     2.664449586234   119.83396463   181.64249768
 C      7   4   3     2.664440377243   118.91848107   359.07322385
 C      8   7   4     2.695604689084   119.82144588   358.76078399
 C      9   8   7     2.657177578124   119.85321751   181.63815918
 H     10   9   8     2.039826816799   119.74654684   178.72612388
 C     10   9   8     2.585677358819   120.00662064   358.49699462
 C     12  10   9     2.654243449491   121.03723432   359.11079111
 C     13  12  10     2.576877570112   119.84669542     1.51760182
 H      1   2   3     2.045114675292   119.16949806   180.01041456
 H      2   1   3     2.039779921054   120.24041925   179.81524930
 H      5   4   3     2.040759556505   118.57818347   176.59356941
 H      6   5   4     2.043577924528   120.20169344   179.81720853
 H     12  10   9     2.045117781191   119.16922644   180.06276183
 H     13  12  10     2.043560981965   119.94919664   182.02531665
 H     14  13  12     2.040902346094   120.03787447   181.07762757
 N      9   8   7     2.586667128603   119.71703539     2.17239735
 C      7   4   3     2.778212404745   120.58675129   179.09545839
 C     23   7   4     2.641385850297   120.71459015   120.94732681
 C     23   7   4     2.639564418199   120.83567936   300.96584747
 C     24  23   7     2.615470142038   120.30024783   180.67011130
 C     25  23   7     2.617371766959   120.33000176   180.67691114
 C     27  25  23     2.639926995909   122.11455852   358.63602354
 H     27  25  23     2.049979715123   118.63536342   178.97308938
 H     25  23   7     2.048263685880   119.30946568   359.40815726
 C     22   9   8     2.733657058809   119.04500586   179.19585889
 C     31  22   9     2.611533301993   119.56819294    92.38880077
 C     31  22   9     2.623075669421   119.55315748   272.31204011
 C     32  31  22     2.619996364771   119.92489211   179.90199655
 H     32  31  22     2.046117738684   119.79647414   359.94519784
 C     33  31  22     2.605554278831   119.48111127   180.10795308
 H     33  31  22     2.045828399122   119.89134801     0.10099587
 C     34  32  31     2.635269919814   119.62867578     0.00000000
 H     34  32  31     2.041486427971   119.49345859   179.99719893
 H     36  33  31     2.044544119087   120.76950438   179.96203739
 O     38  34  32     2.546834769088   124.23826250   180.05168186
 C     41  38  34     2.683366172188   117.69682973     0.11200196
 H     42  41  38     2.052680510367   106.14780307   179.94691436
 H     42  41  38     2.063681542975   111.46452654   298.76218187
 H     42  41  38     2.063700264484   111.45461102    61.13560858
 H     26  24  23     2.050946346113   118.56539299   178.59368842
 B     28  27  25     3.040175618820   122.13280074   179.00196119
 F     47  28  27     2.675311898482   111.75486689    21.17627787
 F     47  28  27     2.689913449802   110.86212834   261.37333319
 F     47  28  27     2.679657219806   111.46268067   142.11394267
 H     24  23   7     2.048287721159   119.29071372   359.24118129

---------------------
BASIS SET INFORMATION
---------------------
There are 6 groups of distinct atoms

 Group   1 Type C   : 11s6p2d1f contracted to 5s3p2d1f pattern {62111/411/11/1}
 Group   2 Type H   : 5s1p contracted to 3s1p pattern {311/1}
 Group   3 Type N   : 11s6p2d1f contracted to 5s3p2d1f pattern {62111/411/11/1}
 Group   4 Type O   : 11s6p2d1f contracted to 5s3p2d1f pattern {62111/411/11/1}
 Group   5 Type B   : 11s6p2d1f contracted to 5s3p2d1f pattern {62111/411/11/1}
 Group   6 Type F   : 11s6p2d1f contracted to 5s3p2d1f pattern {62111/411/11/1}

Atom   0C    basis set group =>   1
Atom   1C    basis set group =>   1
Atom   2C    basis set group =>   1
Atom   3C    basis set group =>   1
Atom   4C    basis set group =>   1
Atom   5C    basis set group =>   1
Atom   6C    basis set group =>   1
Atom   7C    basis set group =>   1
Atom   8C    basis set group =>   1
Atom   9C    basis set group =>   1
Atom  10H    basis set group =>   2
Atom  11C    basis set group =>   1
Atom  12C    basis set group =>   1
Atom  13C    basis set group =>   1
Atom  14H    basis set group =>   2
Atom  15H    basis set group =>   2
Atom  16H    basis set group =>   2
Atom  17H    basis set group =>   2
Atom  18H    basis set group =>   2
Atom  19H    basis set group =>   2
Atom  20H    basis set group =>   2
Atom  21N    basis set group =>   3
Atom  22C    basis set group =>   1
Atom  23C    basis set group =>   1
Atom  24C    basis set group =>   1
Atom  25C    basis set group =>   1
Atom  26C    basis set group =>   1
Atom  27C    basis set group =>   1
Atom  28H    basis set group =>   2
Atom  29H    basis set group =>   2
Atom  30C    basis set group =>   1
Atom  31C    basis set group =>   1
Atom  32C    basis set group =>   1
Atom  33C    basis set group =>   1
Atom  34H    basis set group =>   2
Atom  35C    basis set group =>   1
Atom  36H    basis set group =>   2
Atom  37C    basis set group =>   1
Atom  38H    basis set group =>   2
Atom  39H    basis set group =>   2
Atom  40O    basis set group =>   4
Atom  41C    basis set group =>   1
Atom  42H    basis set group =>   2
Atom  43H    basis set group =>   2
Atom  44H    basis set group =>   2
Atom  45H    basis set group =>   2
Atom  46B    basis set group =>   5
Atom  47F    basis set group =>   6
Atom  48F    basis set group =>   6
Atom  49F    basis set group =>   6
Atom  50H    basis set group =>   2
---------------------------------
AUXILIARY/J BASIS SET INFORMATION
---------------------------------
There are 6 groups of distinct atoms

 Group   1 Type C   : 12s5p4d2f1g contracted to 6s4p3d1f1g pattern {711111/2111/211/2/1}
 Group   2 Type H   : 5s2p1d contracted to 3s1p1d pattern {311/2/1}
 Group   3 Type N   : 12s5p4d2f1g contracted to 6s4p3d1f1g pattern {711111/2111/211/2/1}
 Group   4 Type O   : 12s5p4d2f1g contracted to 6s4p3d1f1g pattern {711111/2111/211/2/1}
 Group   5 Type B   : 12s5p4d2f1g contracted to 6s4p3d1f1g pattern {711111/2111/211/2/1}
 Group   6 Type F   : 12s5p4d2f1g contracted to 6s4p3d1f1g pattern {711111/2111/211/2/1}

Atom   0C    basis set group =>   1
Atom   1C    basis set group =>   1
Atom   2C    basis set group =>   1
Atom   3C    basis set group =>   1
Atom   4C    basis set group =>   1
Atom   5C    basis set group =>   1
Atom   6C    basis set group =>   1
Atom   7C    basis set group =>   1
Atom   8C    basis set group =>   1
Atom   9C    basis set group =>   1
Atom  10H    basis set group =>   2
Atom  11C    basis set group =>   1
Atom  12C    basis set group =>   1
Atom  13C    basis set group =>   1
Atom  14H    basis set group =>   2
Atom  15H    basis set group =>   2
Atom  16H    basis set group =>   2
Atom  17H    basis set group =>   2
Atom  18H    basis set group =>   2
Atom  19H    basis set group =>   2
Atom  20H    basis set group =>   2
Atom  21N    basis set group =>   3
Atom  22C    basis set group =>   1
Atom  23C    basis set group =>   1
Atom  24C    basis set group =>   1
Atom  25C    basis set group =>   1
Atom  26C    basis set group =>   1
Atom  27C    basis set group =>   1
Atom  28H    basis set group =>   2
Atom  29H    basis set group =>   2
Atom  30C    basis set group =>   1
Atom  31C    basis set group =>   1
Atom  32C    basis set group =>   1
Atom  33C    basis set group =>   1
Atom  34H    basis set group =>   2
Atom  35C    basis set group =>   1
Atom  36H    basis set group =>   2
Atom  37C    basis set group =>   1
Atom  38H    basis set group =>   2
Atom  39H    basis set group =>   2
Atom  40O    basis set group =>   4
Atom  41C    basis set group =>   1
Atom  42H    basis set group =>   2
Atom  43H    basis set group =>   2
Atom  44H    basis set group =>   2
Atom  45H    basis set group =>   2
Atom  46B    basis set group =>   5
Atom  47F    basis set group =>   6
Atom  48F    basis set group =>   6
Atom  49F    basis set group =>   6
Atom  50H    basis set group =>   2
---------------------------------
AUXILIARY/C BASIS SET INFORMATION
---------------------------------
There are 6 groups of distinct atoms

 Group   1 Type C   : 8s6p5d3f1g contracted to 8s6p4d3f1g pattern {11111111/111111/2111/111/1}
 Group   2 Type H   : 4s3p2d contracted to 4s2p1d pattern {1111/21/2}
 Group   3 Type N   : 8s6p5d3f1g contracted to 8s6p4d3f1g pattern {11111111/111111/2111/111/1}
 Group   4 Type O   : 8s6p5d3f1g contracted to 8s6p4d3f1g pattern {11111111/111111/2111/111/1}
 Group   5 Type B   : 8s6p5d3f1g contracted to 8s6p4d3f1g pattern {11111111/111111/2111/111/1}
 Group   6 Type F   : 8s6p5d3f1g contracted to 8s6p4d3f1g pattern {11111111/111111/2111/111/1}

Atom   0C    basis set group =>   1
Atom   1C    basis set group =>   1
Atom   2C    basis set group =>   1
Atom   3C    basis set group =>   1
Atom   4C    basis set group =>   1
Atom   5C    basis set group =>   1
Atom   6C    basis set group =>   1
Atom   7C    basis set group =>   1
Atom   8C    basis set group =>   1
Atom   9C    basis set group =>   1
Atom  10H    basis set group =>   2
Atom  11C    basis set group =>   1
Atom  12C    basis set group =>   1
Atom  13C    basis set group =>   1
Atom  14H    basis set group =>   2
Atom  15H    basis set group =>   2
Atom  16H    basis set group =>   2
Atom  17H    basis set group =>   2
Atom  18H    basis set group =>   2
Atom  19H    basis set group =>   2
Atom  20H    basis set group =>   2
Atom  21N    basis set group =>   3
Atom  22C    basis set group =>   1
Atom  23C    basis set group =>   1
Atom  24C    basis set group =>   1
Atom  25C    basis set group =>   1
Atom  26C    basis set group =>   1
Atom  27C    basis set group =>   1
Atom  28H    basis set group =>   2
Atom  29H    basis set group =>   2
Atom  30C    basis set group =>   1
Atom  31C    basis set group =>   1
Atom  32C    basis set group =>   1
Atom  33C    basis set group =>   1
Atom  34H    basis set group =>   2
Atom  35C    basis set group =>   1
Atom  36H    basis set group =>   2
Atom  37C    basis set group =>   1
Atom  38H    basis set group =>   2
Atom  39H    basis set group =>   2
Atom  40O    basis set group =>   4
Atom  41C    basis set group =>   1
Atom  42H    basis set group =>   2
Atom  43H    basis set group =>   2
Atom  44H    basis set group =>   2
Atom  45H    basis set group =>   2
Atom  46B    basis set group =>   5
Atom  47F    basis set group =>   6
Atom  48F    basis set group =>   6
Atom  49F    basis set group =>   6
Atom  50H    basis set group =>   2


           ************************************************************
           *        Program running with 4 parallel MPI-processes     *
           *              working on a common directory               *
           ************************************************************
------------------------------------------------------------------------------
                           ORCA GTO INTEGRAL CALCULATION
                           -- RI-GTO INTEGRALS CHOSEN --
------------------------------------------------------------------------------
------------------------------------------------------------------------------
                   ___                                                        
                  /   \      - P O W E R E D   B Y -                         
                 /     \                                                     
                 |  |  |   _    _      __       _____    __    __             
                 |  |  |  | |  | |    /  \     |  _  \  |  |  /  |          
                  \  \/   | |  | |   /    \    | | | |  |  | /  /          
                 / \  \   | |__| |  /  /\  \   | |_| |  |  |/  /          
                |  |  |   |  __  | /  /__\  \  |    /   |      \           
                |  |  |   | |  | | |   __   |  |    \   |  |\   \          
                \     /   | |  | | |  |  |  |  | |\  \  |  | \   \       
                 \___/    |_|  |_| |__|  |__|  |_| \__\ |__|  \__/        
                                                                              
                      - O R C A' S   B I G   F R I E N D -                    
                                      &                                       
                       - I N T E G R A L  F E E D E R -                       
                                                                              
 v1 FN, 2020, v2 2021                                                         
------------------------------------------------------------------------------


Reading SHARK input file BF3-Acr_p_M06L_def2TZVP_coords.SHARKINP.tmp ... ok
----------------------
SHARK INTEGRAL PACKAGE
----------------------

Number of atoms                             ...     51
Number of basis functions                   ...   1106
Number of shells                            ...    428
Maximum angular momentum                    ...      3
Integral batch strategy                     ... SHARK/LIBINT Hybrid
RI-J (if used) integral strategy            ... SPLIT-RIJ (Revised 2003 algorithm where possible)
Printlevel                                  ...      1
Contraction scheme used                     ... SEGMENTED contraction
Coulomb Range Separation                    ... NOT USED
Exchange Range Separation                   ... NOT USED
Finite Nucleus Model                        ... NOT USED
Auxiliary Coulomb fitting basis             ... AVAILABLE
   # of basis functions in Aux-J            ...   1777
   # of shells in Aux-J                     ...    575
   Maximum angular momentum in Aux-J        ...      4
Auxiliary J/K fitting basis                 ... NOT available
Auxiliary Correlation fitting basis         ... AVAILABLE
   # of basis functions in Aux-C            ...   2717
   # of shells in Aux-C                     ...    837
   Maximum angular momentum in Aux-C        ...      4
Auxiliary 'external' fitting basis          ... NOT available
Integral threshold                          ...     2.500000e-11
Primitive cut-off                           ...     2.500000e-12
Primitive pair pre-selection threshold      ...     2.500000e-12

Calculating pre-screening integrals         ... done (  0.1 sec) Dimension = 428
Organizing shell pair data                  ... done (  2.0 sec)
Shell pair information
Total number of shell pairs                 ...     91806
Shell pairs after pre-screening             ...     54360
Total number of primitive shell pairs       ...    285396
Primitive shell pairs kept                  ...    109136
          la=0 lb=0:  13402 shell pairs
          la=1 lb=0:  15685 shell pairs
          la=1 lb=1:   4579 shell pairs
          la=2 lb=0:   7775 shell pairs
          la=2 lb=1:   4608 shell pairs
          la=2 lb=2:   1170 shell pairs
          la=3 lb=0:   3618 shell pairs
          la=3 lb=1:   2194 shell pairs
          la=3 lb=2:   1065 shell pairs
          la=3 lb=3:    264 shell pairs

Calculating one electron integrals          ... done (  0.2 sec)
Calculating RI/J V-Matrix + Cholesky decomp.... done (  0.3 sec)
Calculating RI/C V-Matrix + Cholesky decomp.... done (  0.5 sec)
Calculating Nuclear repulsion               ... done (  0.0 sec) ENN=   2939.038673459841 Eh

SHARK setup successfully completed in   4.0 seconds

Maximum memory used throughout the entire GTOINT-calculation: 114.3 MB


           ************************************************************
           *        Program running with 4 parallel MPI-processes     *
           *              working on a common directory               *
           ************************************************************
-------------------------------------------------------------------------------
                                 ORCA SCF
-------------------------------------------------------------------------------

------------
SCF SETTINGS
------------
Hamiltonian:
 Density Functional     Method          .... DFT(GTOs)
 Exchange Functional    Exchange        .... B88
   X-Alpha parameter    XAlpha          ....  0.666667
   Becke's b parameter  XBeta           ....  0.004200
 Correlation Functional Correlation     .... LYP
 LDA part of GGA corr.  LDAOpt          .... VWN-3
 Gradients option       PostSCFGGA      .... off
 Hybrid DFT is turned on
   Fraction HF Exchange ScalHFX         ....  0.650000
   Scaling of DF-GGA-X  ScalDFX         ....  0.350000
   Scaling of DF-GGA-C  ScalDFC         ....  0.640000
   Scaling of DF-LDA-C  ScalLDAC        ....  0.640000
   Perturbative correction              ....  0.360000
   Density functional embedding theory  .... OFF
 RI-approximation to the Coulomb term is turned on
   Number of AuxJ basis functions       .... 1777
   RIJ-COSX (HFX calculated with COS-X)).... on


General Settings:
 Integral files         IntName         .... BF3-Acr_p_M06L_def2TZVP_coords
 Hartree-Fock type      HFTyp           .... RHF
 Total Charge           Charge          ....    0
 Multiplicity           Mult            ....    1
 Number of Electrons    NEL             ....  222
 Basis Dimension        Dim             .... 1106
 Nuclear Repulsion      ENuc            ....   2939.0386734598 Eh

Convergence Acceleration:
 DIIS                   CNVDIIS         .... on
   Start iteration      DIISMaxIt       ....    12
   Startup error        DIISStart       ....  0.200000
   # of expansion vecs  DIISMaxEq       ....     5
   Bias factor          DIISBfac        ....   1.050
   Max. coefficient     DIISMaxC        ....  10.000
 Trust-Rad. Augm. Hess. CNVTRAH         .... auto
   Auto Start mean grad. ratio tolernc. ....  1.125000
   Auto Start start iteration           ....    20
   Auto Start num. interpolation iter.  ....    10
   Max. Number of Micro iterations      ....    16
   Max. Number of Macro iterations      .... Maxiter - #DIIS iter
   Number of Davidson start vectors     ....     2
   Converg. threshold I  (grad. norm)   ....   1.000e-05
   Converg. threshold II (energy diff.) ....   1.000e-08
   Grad. Scal. Fac. for Micro threshold ....   0.100
   Minimum threshold for Micro iter.    ....   0.010
   NR start threshold (gradient norm)   ....   0.001
   Initial trust radius                 ....   0.400
   Minimum AH scaling param. (alpha)    ....   1.000
   Maximum AH scaling param. (alpha)    .... 1000.000
   Orbital update algorithm             .... Taylor
   White noise on init. David. guess    .... on
   Maximum white noise                  ....   0.010
   Quad. conv. algorithm                .... NR
 SOSCF                  CNVSOSCF        .... on
   Start iteration      SOSCFMaxIt      ....   150
   Startup grad/error   SOSCFStart      ....  0.003300
 Level Shifting         CNVShift        .... on
   Level shift para.    LevelShift      ....    0.2500
   Turn off err/grad.   ShiftErr        ....    0.0010
 Zerner damping         CNVZerner       .... off
 Static damping         CNVDamp         .... on
   Fraction old density DampFac         ....    0.7000
   Max. Damping (<1)    DampMax         ....    0.9800
   Min. Damping (>=0)   DampMin         ....    0.0000
   Turn off err/grad.   DampErr         ....    0.1000
 Fernandez-Rico         CNVRico         .... off

SCF Procedure:
 Maximum # iterations   MaxIter         ....   125
 SCF integral mode      SCFMode         .... Direct
   Integral package                     .... SHARK and LIBINT hybrid scheme
 Reset frequency        DirectResetFreq ....    20
 Integral Threshold     Thresh          ....  2.500e-11 Eh
 Primitive CutOff       TCut            ....  2.500e-12 Eh

Convergence Tolerance:
 Convergence Check Mode ConvCheckMode   .... Total+1el-Energy
 Convergence forced     ConvForced      .... 1
 Energy Change          TolE            ....  1.000e-08 Eh
 1-El. energy change                    ....  1.000e-05 Eh
 Orbital Gradient       TolG            ....  1.000e-05
 Orbital Rotation angle TolX            ....  1.000e-05
 DIIS Error             TolErr          ....  5.000e-07


Diagonalization of the overlap matrix:
Smallest eigenvalue                        ... 4.809e-06
Time for diagonalization                   ...    0.275 sec
Threshold for overlap eigenvalues          ... 1.000e-08
Number of eigenvalues below threshold      ... 0
Time for construction of square roots      ...    0.226 sec
Total time needed                          ...    0.506 sec

Time for model grid setup =    0.650 sec

------------------------------
INITIAL GUESS: MODEL POTENTIAL
------------------------------
Loading Hartree-Fock densities                     ... done
Calculating cut-offs                               ... done
Initializing the effective Hamiltonian             ... done
Setting up the integral package (SHARK)            ... done
Starting the Coulomb interaction                   ... done (   1.5 sec)
Reading the grid                                   ... done
Mapping shells                                     ... done
Starting the XC term evaluation                    ... done (   0.9 sec)
  promolecular density results
     # of electrons  =    221.984928547
     EX              =   -188.248360394
     EC              =     -0.887136117
     EX+EC           =   -189.135496511
Transforming the Hamiltonian                       ... done (   0.2 sec)
Diagonalizing the Hamiltonian                      ... done (   0.3 sec)
Back transforming the eigenvectors                 ... done (   0.1 sec)
Now organizing SCF variables                       ... done
                      ------------------
                      INITIAL GUESS DONE (   3.7 sec)
                      ------------------
-------------------
DFT GRID GENERATION
-------------------

General Integration Accuracy     IntAcc      ... 4.388
Radial Grid Type                 RadialGrid  ... OptM3 with GC (2021)
Angular Grid (max. ang.)         AngularGrid ... 4 (Lebedev-302)
Angular grid pruning method      GridPruning ... 4 (adaptive)
Weight generation scheme         WeightScheme... Becke
Basis function cutoff            BFCut       ... 1.0000e-11
Integration weight cutoff        WCut        ... 1.0000e-14
Angular grids for H and He will be reduced by one unit
Partially contracted basis set               ... off
Rotationally invariant grid construction     ... off

Total number of grid points                  ...   250742
Total number of batches                      ...     3947
Average number of points per batch           ...       63
Average number of grid points per atom       ...     4917
Time for grid setup =    2.441 sec

--------------------
COSX GRID GENERATION
--------------------

GRIDX 1
-------
General Integration Accuracy     IntAcc      ... 3.816
Radial Grid Type                 RadialGrid  ... OptM3 with GC (2021)
Angular Grid (max. ang.)         AngularGrid ... 1 (Lebedev-50)
Angular grid pruning method      GridPruning ... 4 (adaptive)
Weight generation scheme         WeightScheme... Becke
Basis function cutoff            BFCut       ... 1.0000e-11
Integration weight cutoff        WCut        ... 1.0000e-14
Angular grids for H and He will be reduced by one unit
Partially contracted basis set               ... on
Rotationally invariant grid construction     ... off

Total number of grid points                  ...    31808
Total number of batches                      ...      520
Average number of points per batch           ...       61
Average number of grid points per atom       ...      624
UseSFitting                                  ... on

GRIDX 2
-------
General Integration Accuracy     IntAcc      ... 4.020
Radial Grid Type                 RadialGrid  ... OptM3 with GC (2021)
Angular Grid (max. ang.)         AngularGrid ... 2 (Lebedev-110)
Angular grid pruning method      GridPruning ... 4 (adaptive)
Weight generation scheme         WeightScheme... Becke
Basis function cutoff            BFCut       ... 1.0000e-11
Integration weight cutoff        WCut        ... 1.0000e-14
Angular grids for H and He will be reduced by one unit
Partially contracted basis set               ... on
Rotationally invariant grid construction     ... off

Total number of grid points                  ...    69561
Total number of batches                      ...     1111
Average number of points per batch           ...       62
Average number of grid points per atom       ...     1364
UseSFitting                                  ... on

GRIDX 3
-------
General Integration Accuracy     IntAcc      ... 4.338
Radial Grid Type                 RadialGrid  ... OptM3 with GC (2021)
Angular Grid (max. ang.)         AngularGrid ... 3 (Lebedev-194)
Angular grid pruning method      GridPruning ... 4 (adaptive)
Weight generation scheme         WeightScheme... Becke
Basis function cutoff            BFCut       ... 1.0000e-11
Integration weight cutoff        WCut        ... 1.0000e-14
Angular grids for H and He will be reduced by one unit
Partially contracted basis set               ... on
Rotationally invariant grid construction     ... off

Total number of grid points                  ...   152435
Total number of batches                      ...     2405
Average number of points per batch           ...       63
Average number of grid points per atom       ...     2989
UseSFitting                                  ... on

Time for X-Grid setup             =    5.852 sec


--------------------
CPCM SOLVATION MODEL
--------------------
CPCM parameters:
  Epsilon                                         ...      35.6880
  Refrac                                          ...       1.3442
  Rsolv                                           ...       1.3000
  Surface type                                    ... GAUSSIAN VDW
  Epsilon function type                           ...         CPCM
Solvent:                                     ... ACETONITRILE
SMD-CDS solvent descriptors:
  Soln                                       ...    1.3442
  Soln25                                     ...    1.3416
  Sola                                       ...    0.0700
  Solb                                       ...    0.3200
  Solg                                       ...   41.2500
  Solc                                       ...    0.0000
  Solh                                       ...    0.0000
Radii:
 Radius for C  used is    3.4960 Bohr (=   1.8500 Ang.)
 Radius for H  used is    2.2677 Bohr (=   1.2000 Ang.)
 Radius for N  used is    3.5716 Bohr (=   1.8900 Ang.)
 Radius for O  used is    4.0969 Bohr (=   2.1680 Ang.)
 Radius for B  used is    3.6283 Bohr (=   1.9200 Ang.)
 Radius for F  used is    3.2692 Bohr (=   1.7300 Ang.)
Calculating surface                               ...        done! (  0.0s)
GEPOL surface points                              ...         2802
GEPOL Volume                                      ...    2875.3967
GEPOL Surface-area                                ...    1534.0928
Calculating surface distance matrix               ...        done! (  0.1s)
Performing Cholesky decomposition & store         ...        done! (  0.4s)
Overall time for CPCM initialization              ...                 0.5s
--------------
SCF ITERATIONS
--------------
ITER       Energy         Delta-E        Max-DP      RMS-DP      [F,P]     Damp
               ***  Starting incremental Fock matrix formation  ***
  0  -1452.9327842098   0.000000000000 0.05519680  0.00057010  0.2072390 0.7000
  1  -1453.2180795989  -0.285295389022 0.06190608  0.00047789  0.1131384 0.7000
                               ***Turning on DIIS***
  2  -1453.3795313703  -0.161451771435 0.12665021  0.00108515  0.0569789 0.0000
  3  -1453.6725945459  -0.293063175594 0.04857781  0.00030497  0.0421963 0.0000
  4  -1453.6992772880  -0.026682742107 0.01096985  0.00010235  0.0082310 0.0000
  5  -1453.7002750424  -0.000997754378 0.00558501  0.00004385  0.0037779 0.0000
                      *** Initiating the SOSCF procedure ***
                           *** Shutting down DIIS ***
                      *** Re-Reading the Fockian *** 
                      *** Removing any level shift *** 
ITER      Energy       Delta-E        Grad      Rot      Max-DP    RMS-DP
  6  -1453.70049375  -0.0002187065  0.001508  0.001508  0.001863  0.000020
               *** Restarting incremental Fock matrix formation ***
  7  -1453.70025470   0.0002390467  0.001021  0.004544  0.023543  0.000227
  8  -1453.70029438  -0.0000396796  0.000527  0.005695  0.010538  0.000104
  9  -1453.70030836  -0.0000139819  0.000200  0.000430  0.009640  0.000092
 10  -1453.70031113  -0.0000027690  0.000056  0.000162  0.000609  0.000007
 11  -1453.70031140  -0.0000002679  0.000027  0.000086  0.000626  0.000005
 12  -1453.70031143  -0.0000000315  0.000019  0.000120  0.000369  0.000002
 13  -1453.70031145  -0.0000000188  0.000003  0.000018  0.000220  0.000002
                  ***Gradient check signals convergence***
              ***Rediagonalizing the Fockian in SOSCF/NRSCF***

               *****************************************************
               *                     SUCCESS                       *
               *           SCF CONVERGED AFTER  14 CYCLES          *
               *****************************************************

Old exchange energy                            =   -124.236669981 Eh
New exchange energy                            =   -124.236604106 Eh
Exchange energy change after final integration =      0.000065875 Eh
Total energy after final integration           =  -1453.700245584 Eh
Final COS-X integration done in                =   113.844 sec

SMD CDS free energy correction energy :                -4.54455     Kcal/mol
Total Energy after SMD CDS correction =             -1453.707487780 Eh

----------------
TOTAL SCF ENERGY
----------------

Total Energy       :        -1453.70748778 Eh          -39557.39180 eV

Components:
Nuclear Repulsion  :         2939.03867346 Eh           79975.30817 eV
Electronic Energy  :        -4392.74616124 Eh         -119532.69997 eV
One Electron Energy:        -7827.22323727 Eh         -212989.57247 eV
Two Electron Energy:         3434.47707603 Eh           93456.87249 eV
Max COSX asymmetry :            0.00001023 Eh               0.00028 eV
CPCM Dielectric    :           -0.09637564 Eh              -2.62251 eV
SMD CDS (Gcds)     :           -0.00724220 Eh              -0.19707 eV

Virial components:
Potential Energy   :        -2903.16604669 Eh          -78999.16437 eV
Kinetic Energy     :         1449.45855891 Eh           39441.77257 eV
Virial Ratio       :            2.00293139


DFT components:
N(Alpha)           :      111.000207565855 electrons
N(Beta)            :      111.000207565855 electrons
N(Total)           :      222.000415131710 electrons
E(X)               :      -67.020079832386 Eh       
E(C)               :       -4.917794837442 Eh       
E(XC)              :      -71.937874669828 Eh       
DFET-embed. en.    :        0.000000000000 Eh       
CPCM Solvation Model Properties:
Surface-charge          :           -0.05823291
Charge-correction       :           -0.00044327 Eh              -0.01206 eV
Free-energy (cav+disp)  :           -0.00724220 Eh              -0.19707 eV

---------------
SCF CONVERGENCE
---------------

  Last Energy change         ...   -8.1975e-09  Tolerance :   1.0000e-08
  Last MAX-Density change    ...    1.1102e-15  Tolerance :   1.0000e-07
  Last RMS-Density change    ...    1.1907e-17  Tolerance :   5.0000e-09
  Last Orbital Gradient      ...    1.7109e-06  Tolerance :   1.0000e-05
  Last Orbital Rotation      ...    6.8877e-06  Tolerance :   1.0000e-05

             **** THE GBW FILE WAS UPDATED (BF3-Acr_p_M06L_def2TZVP_coords.gbw) ****
             **** DENSITY BF3-Acr_p_M06L_def2TZVP_coords.scfp WAS UPDATED ****
             **** ENERGY FILE WAS UPDATED (BF3-Acr_p_M06L_def2TZVP_coords.en.tmp) ****
             **** THE GBW FILE WAS UPDATED (BF3-Acr_p_M06L_def2TZVP_coords.gbw) ****
             **** DENSITY BF3-Acr_p_M06L_def2TZVP_coords.scfp WAS UPDATED ****
----------------
ORBITAL ENERGIES
----------------

  NO   OCC          E(Eh)            E(eV) 
   0   2.0000     -25.534866      -694.8390 
   1   2.0000     -25.534209      -694.8211 
   2   2.0000     -25.532964      -694.7873 
   3   2.0000     -19.973823      -543.5154 
   4   2.0000     -15.124194      -411.5502 
   5   2.0000     -10.867755      -295.7266 
   6   2.0000     -10.867714      -295.7255 
   7   2.0000     -10.853952      -295.3511 
   8   2.0000     -10.852160      -295.3023 
   9   2.0000     -10.824438      -294.5479 
  10   2.0000     -10.818278      -294.3803 
  11   2.0000     -10.818246      -294.3794 
  12   2.0000     -10.816103      -294.3211 
  13   2.0000     -10.803832      -293.9872 
  14   2.0000     -10.803826      -293.9871 
  15   2.0000     -10.799180      -293.8606 
  16   2.0000     -10.799154      -293.8599 
  17   2.0000     -10.794739      -293.7398 
  18   2.0000     -10.793907      -293.7171 
  19   2.0000     -10.793068      -293.6943 
  20   2.0000     -10.791752      -293.6585 
  21   2.0000     -10.791746      -293.6583 
  22   2.0000     -10.787466      -293.5419 
  23   2.0000     -10.787448      -293.5414 
  24   2.0000     -10.782453      -293.4055 
  25   2.0000     -10.781213      -293.3717 
  26   2.0000     -10.780975      -293.3652 
  27   2.0000     -10.780924      -293.3639 
  28   2.0000     -10.769793      -293.0610 
  29   2.0000     -10.769406      -293.0504 
  30   2.0000     -10.749582      -292.5110 
  31   2.0000      -7.280979      -198.1255 
  32   2.0000      -1.394178       -37.9375 
  33   2.0000      -1.349923       -36.7333 
  34   2.0000      -1.347513       -36.6677 
  35   2.0000      -1.273167       -34.6446 
  36   2.0000      -1.214500       -33.0482 
  37   2.0000      -1.073629       -29.2149 
  38   2.0000      -1.058525       -28.8039 
  39   2.0000      -1.039277       -28.2802 
  40   2.0000      -1.026462       -27.9314 
  41   2.0000      -0.993431       -27.0326 
  42   2.0000      -0.946733       -25.7619 
  43   2.0000      -0.931337       -25.3430 
  44   2.0000      -0.929326       -25.2883 
  45   2.0000      -0.921972       -25.0881 
  46   2.0000      -0.908535       -24.7225 
  47   2.0000      -0.901024       -24.5181 
  48   2.0000      -0.893692       -24.3186 
  49   2.0000      -0.845193       -22.9989 
  50   2.0000      -0.824049       -22.4235 
  51   2.0000      -0.798189       -21.7198 
  52   2.0000      -0.783891       -21.3308 
  53   2.0000      -0.759332       -20.6625 
  54   2.0000      -0.746212       -20.3055 
  55   2.0000      -0.734825       -19.9956 
  56   2.0000      -0.733760       -19.9666 
  57   2.0000      -0.708498       -19.2792 
  58   2.0000      -0.687924       -18.7194 
  59   2.0000      -0.687532       -18.7087 
  60   2.0000      -0.665989       -18.1225 
  61   2.0000      -0.664405       -18.0794 
  62   2.0000      -0.642200       -17.4752 
  63   2.0000      -0.629664       -17.1340 
  64   2.0000      -0.617117       -16.7926 
  65   2.0000      -0.608084       -16.5468 
  66   2.0000      -0.596716       -16.2375 
  67   2.0000      -0.595555       -16.2059 
  68   2.0000      -0.593588       -16.1523 
  69   2.0000      -0.589827       -16.0500 
  70   2.0000      -0.584986       -15.9183 
  71   2.0000      -0.578189       -15.7333 
  72   2.0000      -0.560234       -15.2447 
  73   2.0000      -0.558028       -15.1847 
  74   2.0000      -0.555965       -15.1286 
  75   2.0000      -0.549607       -14.9556 
  76   2.0000      -0.549362       -14.9489 
  77   2.0000      -0.548295       -14.9199 
  78   2.0000      -0.541626       -14.7384 
  79   2.0000      -0.539907       -14.6916 
  80   2.0000      -0.533908       -14.5284 
  81   2.0000      -0.517820       -14.0906 
  82   2.0000      -0.516382       -14.0515 
  83   2.0000      -0.513849       -13.9826 
  84   2.0000      -0.509619       -13.8674 
  85   2.0000      -0.501118       -13.6361 
  86   2.0000      -0.491155       -13.3650 
  87   2.0000      -0.488283       -13.2869 
  88   2.0000      -0.486141       -13.2286 
  89   2.0000      -0.482186       -13.1209 
  90   2.0000      -0.476480       -12.9657 
  91   2.0000      -0.472151       -12.8479 
  92   2.0000      -0.469368       -12.7722 
  93   2.0000      -0.465318       -12.6619 
  94   2.0000      -0.462581       -12.5875 
  95   2.0000      -0.457128       -12.4391 
  96   2.0000      -0.444042       -12.0830 
  97   2.0000      -0.439204       -11.9513 
  98   2.0000      -0.434080       -11.8119 
  99   2.0000      -0.423642       -11.5279 
 100   2.0000      -0.421633       -11.4732 
 101   2.0000      -0.416799       -11.3417 
 102   2.0000      -0.387857       -10.5541 
 103   2.0000      -0.379965       -10.3394 
 104   2.0000      -0.340476        -9.2648 
 105   2.0000      -0.321542        -8.7496 
 106   2.0000      -0.317205        -8.6316 
 107   2.0000      -0.306811        -8.3488 
 108   2.0000      -0.304628        -8.2894 
 109   2.0000      -0.292655        -7.9635 
 110   2.0000      -0.280592        -7.6353 
 111   0.0000      -0.055354        -1.5063 
 112   0.0000       0.020901         0.5687 
 113   0.0000       0.040066         1.0902 
 114   0.0000       0.046380         1.2621 
 115   0.0000       0.057841         1.5739 
 116   0.0000       0.060830         1.6553 
 117   0.0000       0.070580         1.9206 
 118   0.0000       0.079902         2.1742 
 119   0.0000       0.099623         2.7109 
 120   0.0000       0.105729         2.8770 
 121   0.0000       0.108653         2.9566 
 122   0.0000       0.119428         3.2498 
 123   0.0000       0.120087         3.2677 
 124   0.0000       0.122934         3.3452 
 125   0.0000       0.131112         3.5677 
 126   0.0000       0.133340         3.6284 
 127   0.0000       0.136418         3.7121 
 128   0.0000       0.140068         3.8114 
 129   0.0000       0.146057         3.9744 
 130   0.0000       0.150024         4.0823 
 131   0.0000       0.151041         4.1100 
 132   0.0000       0.155505         4.2315 
 133   0.0000       0.159557         4.3418 
 134   0.0000       0.161666         4.3992 
 135   0.0000       0.167902         4.5689 
 136   0.0000       0.172111         4.6834 
 137   0.0000       0.180100         4.9008 
 138   0.0000       0.180957         4.9241 
 139   0.0000       0.182728         4.9723 
 140   0.0000       0.189553         5.1580 
 141   0.0000       0.192135         5.2283 
 142   0.0000       0.198039         5.3889 
 143   0.0000       0.203356         5.5336 
 144   0.0000       0.210947         5.7402 
 145   0.0000       0.220875         6.0103 
 146   0.0000       0.222853         6.0641 
 147   0.0000       0.224721         6.1150 
 148   0.0000       0.228207         6.2098 
 149   0.0000       0.231042         6.2870 
 150   0.0000       0.233346         6.3497 
 151   0.0000       0.236858         6.4452 
 152   0.0000       0.247176         6.7260 
 153   0.0000       0.250691         6.8216 
 154   0.0000       0.259381         7.0581 
 155   0.0000       0.265205         7.2166 
 156   0.0000       0.268074         7.2947 
 157   0.0000       0.271255         7.3812 
 158   0.0000       0.271861         7.3977 
 159   0.0000       0.280005         7.6193 
 160   0.0000       0.280847         7.6422 
 161   0.0000       0.285975         7.7818 
 162   0.0000       0.291044         7.9197 
 163   0.0000       0.293795         7.9946 
 164   0.0000       0.297508         8.0956 
 165   0.0000       0.301310         8.1991 
 166   0.0000       0.301889         8.2148 
 167   0.0000       0.306710         8.3460 
 168   0.0000       0.307366         8.3638 
 169   0.0000       0.312969         8.5163 
 170   0.0000       0.314372         8.5545 
 171   0.0000       0.314802         8.5662 
 172   0.0000       0.321105         8.7377 
 173   0.0000       0.324877         8.8404 
 174   0.0000       0.326366         8.8809 
 175   0.0000       0.335131         9.1194 
 176   0.0000       0.337806         9.1922 
 177   0.0000       0.340436         9.2637 
 178   0.0000       0.343950         9.3594 
 179   0.0000       0.346163         9.4196 
 180   0.0000       0.355471         9.6729 
 181   0.0000       0.357129         9.7180 
 182   0.0000       0.363385         9.8882 
 183   0.0000       0.365594         9.9483 
 184   0.0000       0.368366        10.0238 
 185   0.0000       0.371367        10.1054 
 186   0.0000       0.375575        10.2199 
 187   0.0000       0.376650        10.2492 
 188   0.0000       0.380362        10.3502 
 189   0.0000       0.383605        10.4384 
 190   0.0000       0.391634        10.6569 
 191   0.0000       0.394744        10.7415 
 192   0.0000       0.399424        10.8689 
 193   0.0000       0.405033        11.0215 
 194   0.0000       0.406662        11.0658 
 195   0.0000       0.409196        11.1348 
 196   0.0000       0.410584        11.1726 
 197   0.0000       0.416544        11.3347 
 198   0.0000       0.423641        11.5279 
 199   0.0000       0.426216        11.5979 
 200   0.0000       0.429693        11.6925 
 201   0.0000       0.434188        11.8148 
 202   0.0000       0.436999        11.8914 
 203   0.0000       0.444717        12.1014 
 204   0.0000       0.444809        12.1039 
 205   0.0000       0.449821        12.2403 
 206   0.0000       0.451577        12.2880 
 207   0.0000       0.453788        12.3482 
 208   0.0000       0.454958        12.3800 
 209   0.0000       0.457817        12.4578 
 210   0.0000       0.458304        12.4711 
 211   0.0000       0.472527        12.8581 
 212   0.0000       0.473622        12.8879 
 213   0.0000       0.476527        12.9670 
 214   0.0000       0.479479        13.0473 
 215   0.0000       0.481706        13.1079 
 216   0.0000       0.485880        13.2215 
 217   0.0000       0.488531        13.2936 
 218   0.0000       0.491117        13.3640 
 219   0.0000       0.492290        13.3959 
 220   0.0000       0.497273        13.5315 
 221   0.0000       0.498091        13.5538 
 222   0.0000       0.503693        13.7062 
 223   0.0000       0.505186        13.7468 
 224   0.0000       0.506937        13.7945 
 225   0.0000       0.508570        13.8389 
 226   0.0000       0.511397        13.9158 
 227   0.0000       0.513247        13.9662 
 228   0.0000       0.515734        14.0338 
 229   0.0000       0.518805        14.1174 
 230   0.0000       0.522927        14.2296 
 231   0.0000       0.528659        14.3855 
 232   0.0000       0.529532        14.4093 
 233   0.0000       0.533129        14.5072 
 234   0.0000       0.538612        14.6564 
 235   0.0000       0.541250        14.7281 
 236   0.0000       0.542293        14.7565 
 237   0.0000       0.544469        14.8158 
 238   0.0000       0.545485        14.8434 
 239   0.0000       0.553930        15.0732 
 240   0.0000       0.558802        15.2058 
 241   0.0000       0.562584        15.3087 
 242   0.0000       0.564143        15.3511 
 243   0.0000       0.570225        15.5166 
 244   0.0000       0.573352        15.6017 
 245   0.0000       0.576386        15.6843 
 246   0.0000       0.578280        15.7358 
 247   0.0000       0.580589        15.7986 
 248   0.0000       0.585176        15.9234 
 249   0.0000       0.591120        16.0852 
 250   0.0000       0.593440        16.1483 
 251   0.0000       0.594905        16.1882 
 252   0.0000       0.595186        16.1958 
 253   0.0000       0.599861        16.3231 
 254   0.0000       0.600573        16.3424 
 255   0.0000       0.608366        16.5545 
 256   0.0000       0.609653        16.5895 
 257   0.0000       0.632825        17.2200 
 258   0.0000       0.636773        17.3275 
 259   0.0000       0.639984        17.4148 
 260   0.0000       0.644438        17.5360 
 261   0.0000       0.645470        17.5641 
 262   0.0000       0.654177        17.8011 
 263   0.0000       0.654257        17.8032 
 264   0.0000       0.664099        18.0711 
 265   0.0000       0.669021        18.2050 
 266   0.0000       0.676980        18.4216 
 267   0.0000       0.681079        18.5331 
 268   0.0000       0.688799        18.7432 
 269   0.0000       0.692802        18.8521 
 270   0.0000       0.695085        18.9142 
 271   0.0000       0.698734        19.0135 
 272   0.0000       0.704348        19.1663 
 273   0.0000       0.709677        19.3113 
 274   0.0000       0.713373        19.4119 
 275   0.0000       0.718302        19.5460 
 276   0.0000       0.720399        19.6031 
 277   0.0000       0.727076        19.7847 
 278   0.0000       0.731464        19.9041 
 279   0.0000       0.736677        20.0460 
 280   0.0000       0.740605        20.1529 
 281   0.0000       0.741834        20.1863 
 282   0.0000       0.748811        20.3762 
 283   0.0000       0.753633        20.5074 
 284   0.0000       0.756863        20.5953 
 285   0.0000       0.758945        20.6520 
 286   0.0000       0.759141        20.6573 
 287   0.0000       0.765119        20.8199 
 288   0.0000       0.768782        20.9196 
 289   0.0000       0.771162        20.9844 
 290   0.0000       0.773242        21.0410 
 291   0.0000       0.774731        21.0815 
 292   0.0000       0.781071        21.2540 
 293   0.0000       0.792841        21.5743 
 294   0.0000       0.793837        21.6014 
 295   0.0000       0.798031        21.7155 
 296   0.0000       0.801932        21.8217 
 297   0.0000       0.806420        21.9438 
 298   0.0000       0.809072        22.0160 
 299   0.0000       0.810409        22.0524 
 300   0.0000       0.814812        22.1722 
 301   0.0000       0.815828        22.1998 
 302   0.0000       0.817619        22.2486 
 303   0.0000       0.820988        22.3402 
 304   0.0000       0.828786        22.5524 
 305   0.0000       0.832656        22.6577 
 306   0.0000       0.835975        22.7480 
 307   0.0000       0.838678        22.8216 
 308   0.0000       0.841752        22.9052 
 309   0.0000       0.842908        22.9367 
 310   0.0000       0.846791        23.0424 
 311   0.0000       0.849025        23.1031 
 312   0.0000       0.853725        23.2310 
 313   0.0000       0.855182        23.2707 
 314   0.0000       0.857777        23.3413 
 315   0.0000       0.860094        23.4043 
 316   0.0000       0.864231        23.5169 
 317   0.0000       0.868818        23.6418 
 318   0.0000       0.869936        23.6722 
 319   0.0000       0.876055        23.8387 
 320   0.0000       0.880772        23.9670 
 321   0.0000       0.886445        24.1214 
 322   0.0000       0.886921        24.1344 
 323   0.0000       0.897654        24.4264 
 324   0.0000       0.903227        24.5780 
 325   0.0000       0.904900        24.6236 
 326   0.0000       0.910687        24.7811 
 327   0.0000       0.914062        24.8729 
 328   0.0000       0.917339        24.9621 
 329   0.0000       0.926792        25.2193 
 330   0.0000       0.930192        25.3118 
 331   0.0000       0.932393        25.3717 
 332   0.0000       0.935556        25.4578 
 333   0.0000       0.944228        25.6938 
 334   0.0000       0.949672        25.8419 
 335   0.0000       0.955668        26.0051 
 336   0.0000       0.959300        26.1039 
 337   0.0000       0.963665        26.2227 
 338   0.0000       0.964580        26.2476 
 339   0.0000       0.970055        26.3965 
 340   0.0000       0.971921        26.4473 
 341   0.0000       0.976616        26.5751 
 342   0.0000       0.986575        26.8461 
 343   0.0000       0.995061        27.0770 
 344   0.0000       0.996446        27.1147 
 345   0.0000       1.000577        27.2271 
 346   0.0000       1.006034        27.3756 
 347   0.0000       1.009680        27.4748 
 348   0.0000       1.012331        27.5469 
 349   0.0000       1.015716        27.6390 
 350   0.0000       1.023930        27.8625 
 351   0.0000       1.031053        28.0564 
 352   0.0000       1.035252        28.1706 
 353   0.0000       1.045979        28.4625 
 354   0.0000       1.051667        28.6173 
 355   0.0000       1.055699        28.7270 
 356   0.0000       1.063081        28.9279 
 357   0.0000       1.067953        29.0605 
 358   0.0000       1.073740        29.2179 
 359   0.0000       1.079087        29.3635 
 360   0.0000       1.084768        29.5181 
 361   0.0000       1.090922        29.6855 
 362   0.0000       1.093779        29.7632 
 363   0.0000       1.106481        30.1089 
 364   0.0000       1.107619        30.1398 
 365   0.0000       1.113460        30.2988 
 366   0.0000       1.119898        30.4740 
 367   0.0000       1.139694        31.0126 
 368   0.0000       1.142214        31.0812 
 369   0.0000       1.153159        31.3790 
 370   0.0000       1.156578        31.4721 
 371   0.0000       1.162089        31.6220 
 372   0.0000       1.168705        31.8021 
 373   0.0000       1.174059        31.9478 
 374   0.0000       1.183752        32.2115 
 375   0.0000       1.185241        32.2520 
 376   0.0000       1.189333        32.3634 
 377   0.0000       1.191644        32.4263 
 378   0.0000       1.197544        32.5868 
 379   0.0000       1.202824        32.7305 
 380   0.0000       1.209352        32.9081 
 381   0.0000       1.211637        32.9703 
 382   0.0000       1.228646        33.4331 
 383   0.0000       1.230172        33.4747 
 384   0.0000       1.233948        33.5774 
 385   0.0000       1.236946        33.6590 
 386   0.0000       1.250170        34.0189 
 387   0.0000       1.254155        34.1273 
 388   0.0000       1.262624        34.3578 
 389   0.0000       1.267948        34.5026 
 390   0.0000       1.274186        34.6724 
 391   0.0000       1.277365        34.7589 
 392   0.0000       1.296153        35.2701 
 393   0.0000       1.299665        35.3657 
 394   0.0000       1.307199        35.5707 
 395   0.0000       1.311958        35.7002 
 396   0.0000       1.324052        36.0293 
 397   0.0000       1.328148        36.1407 
 398   0.0000       1.332575        36.2612 
 399   0.0000       1.338173        36.4135 
 400   0.0000       1.342174        36.5224 
 401   0.0000       1.355692        36.8902 
 402   0.0000       1.357974        36.9524 
 403   0.0000       1.361098        37.0374 
 404   0.0000       1.366937        37.1962 
 405   0.0000       1.371746        37.3271 
 406   0.0000       1.374735        37.4084 
 407   0.0000       1.375293        37.4236 
 408   0.0000       1.379799        37.5462 
 409   0.0000       1.388857        37.7927 
 410   0.0000       1.396111        37.9901 
 411   0.0000       1.399892        38.0930 
 412   0.0000       1.407297        38.2945 
 413   0.0000       1.408689        38.3324 
 414   0.0000       1.413929        38.4750 
 415   0.0000       1.417084        38.5608 
 416   0.0000       1.419602        38.6293 
 417   0.0000       1.428917        38.8828 
 418   0.0000       1.434130        39.0247 
 419   0.0000       1.436795        39.0972 
 420   0.0000       1.439138        39.1609 
 421   0.0000       1.442752        39.2593 
 422   0.0000       1.456485        39.6330 
 423   0.0000       1.468572        39.9619 
 424   0.0000       1.470384        40.0112 
 425   0.0000       1.479062        40.2473 
 426   0.0000       1.484826        40.4042 
 427   0.0000       1.492239        40.6059 
 428   0.0000       1.499079        40.7920 
 429   0.0000       1.507016        41.0080 
 430   0.0000       1.518088        41.3093 
 431   0.0000       1.526729        41.5444 
 432   0.0000       1.535584        41.7854 
 433   0.0000       1.537884        41.8479 
 434   0.0000       1.545872        42.0653 
 435   0.0000       1.552305        42.2404 
 436   0.0000       1.563542        42.5461 
 437   0.0000       1.569048        42.6960 
 438   0.0000       1.578584        42.9554 
 439   0.0000       1.585467        43.1427 
 440   0.0000       1.588539        43.2263 
 441   0.0000       1.593630        43.3649 
 442   0.0000       1.601080        43.5676 
 443   0.0000       1.610701        43.8294 
 444   0.0000       1.613538        43.9066 
 445   0.0000       1.617954        44.0268 
 446   0.0000       1.627284        44.2807 
 447   0.0000       1.628953        44.3261 
 448   0.0000       1.637768        44.5659 
 449   0.0000       1.644601        44.7519 
 450   0.0000       1.647287        44.8250 
 451   0.0000       1.653541        44.9951 
 452   0.0000       1.656269        45.0694 
 453   0.0000       1.661149        45.2022 
 454   0.0000       1.669922        45.4409 
 455   0.0000       1.670746        45.4633 
 456   0.0000       1.676097        45.6089 
 457   0.0000       1.683205        45.8023 
 458   0.0000       1.690871        46.0109 
 459   0.0000       1.691626        46.0315 
 460   0.0000       1.694385        46.1066 
 461   0.0000       1.701853        46.3098 
 462   0.0000       1.706844        46.4456 
 463   0.0000       1.711897        46.5831 
 464   0.0000       1.714238        46.6468 
 465   0.0000       1.719219        46.7823 
 466   0.0000       1.726381        46.9772 
 467   0.0000       1.730765        47.0965 
 468   0.0000       1.731708        47.1222 
 469   0.0000       1.736248        47.2457 
 470   0.0000       1.742969        47.4286 
 471   0.0000       1.747953        47.5642 
 472   0.0000       1.749522        47.6069 
 473   0.0000       1.755564        47.7713 
 474   0.0000       1.758833        47.8603 
 475   0.0000       1.764929        48.0262 
 476   0.0000       1.770312        48.1726 
 477   0.0000       1.780795        48.4579 
 478   0.0000       1.788007        48.6541 
 479   0.0000       1.793683        48.8086 
 480   0.0000       1.799637        48.9706 
 481   0.0000       1.807578        49.1867 
 482   0.0000       1.809875        49.2492 
 483   0.0000       1.812628        49.3241 
 484   0.0000       1.815271        49.3960 
 485   0.0000       1.822791        49.6007 
 486   0.0000       1.830340        49.8061 
 487   0.0000       1.840732        50.0889 
 488   0.0000       1.843075        50.1526 
 489   0.0000       1.851835        50.3910 
 490   0.0000       1.857332        50.5406 
 491   0.0000       1.862364        50.6775 
 492   0.0000       1.863960        50.7209 
 493   0.0000       1.867841        50.8265 
 494   0.0000       1.883447        51.2512 
 495   0.0000       1.887828        51.3704 
 496   0.0000       1.889640        51.4197 
 497   0.0000       1.895546        51.5804 
 498   0.0000       1.900973        51.7281 
 499   0.0000       1.902559        51.7713 
 500   0.0000       1.906497        51.8784 
 501   0.0000       1.913492        52.0688 
 502   0.0000       1.914073        52.0846 
 503   0.0000       1.925465        52.3946 
 504   0.0000       1.927998        52.4635 
 505   0.0000       1.934169        52.6314 
 506   0.0000       1.939869        52.7865 
 507   0.0000       1.942544        52.8593 
 508   0.0000       1.947523        52.9948 
 509   0.0000       1.959692        53.3259 
 510   0.0000       1.964582        53.4590 
 511   0.0000       1.972105        53.6637 
 512   0.0000       1.984108        53.9903 
 513   0.0000       1.994037        54.2605 
 514   0.0000       2.001309        54.4584 
 515   0.0000       2.011383        54.7325 
 516   0.0000       2.016113        54.8612 
 517   0.0000       2.018535        54.9271 
 518   0.0000       2.029385        55.2224 
 519   0.0000       2.038679        55.4753 
 520   0.0000       2.041492        55.5518 
 521   0.0000       2.042308        55.5740 
 522   0.0000       2.046144        55.6784 
[...]

STATE 13:  E=   0.213026 au      5.797 eV    46753.8 cm**-1 <S**2> =   0.000000
   102a -> 111a  :     0.386158 
   104a -> 112a  :     0.042876 
   104a -> 113a  :     0.042991 
   105a -> 112a  :     0.016800 
   106a -> 112a  :     0.128541 
   106a -> 113a  :     0.017276 
   106a -> 115a  :     0.012385 
   107a -> 115a  :     0.010112 
   107a -> 116a  :     0.017029 
   107a -> 117a  :     0.058160 
   108a -> 114a  :     0.088746 
   110a -> 118a  :     0.074107 

STATE 14:  E=   0.201613 au      5.486 eV    44248.9 cm**-1 <S**2> =   0.000000
   104a -> 111a  :     0.037558 
   104a -> 114a  :     0.025224 
   104a -> 118a  :     0.026050 
   106a -> 118a  :     0.010339 
   107a -> 114a  :     0.041523 
   108a -> 112a  :     0.013555 
   108a -> 113a  :     0.037338 
   110a -> 112a  :     0.020881 
   110a -> 113a  :     0.598300 
   110a -> 115a  :     0.018138 
   110a -> 117a  :     0.088641 

STATE 15:  E=   0.204175 au      5.556 eV    44811.3 cm**-1 <S**2> =   0.000000
   102a -> 111a  :     0.177143 
   104a -> 112a  :     0.087924 
   105a -> 112a  :     0.036323 
   106a -> 112a  :     0.200605 
   106a -> 113a  :     0.074752 
   106a -> 117a  :     0.030177 
   107a -> 112a  :     0.102110 
   107a -> 113a  :     0.029512 
   108a -> 114a  :     0.045740 
   110a -> 111a  :     0.013906 
   110a -> 114a  :     0.047367 
   110a -> 118a  :     0.025933 
   110a -> 122a  :     0.010267 

STATE 16:  E=   0.214131 au      5.827 eV    46996.4 cm**-1 <S**2> =   0.000000
    96a -> 111a  :     0.010184 
    98a -> 111a  :     0.034707 
   100a -> 111a  :     0.028191 
   102a -> 111a  :     0.184898 
   102a -> 114a  :     0.013086 
   104a -> 112a  :     0.162677 
   105a -> 112a  :     0.049704 
   106a -> 112a  :     0.211097 
   106a -> 113a  :     0.021224 
   106a -> 117a  :     0.027342 
   107a -> 113a  :     0.038689 
   107a -> 115a  :     0.020563 
   107a -> 116a  :     0.021000 
   107a -> 117a  :     0.012851 
   108a -> 118a  :     0.011112 
   110a -> 114a  :     0.020077 
   110a -> 122a  :     0.019250 
   110a -> 123a  :     0.012510 

STATE 17:  E=   0.191208 au      5.203 eV    41965.2 cm**-1 <S**2> =   0.000000
    97a -> 111a  :     0.276306 
   103a -> 111a  :     0.531958 
   103a -> 114a  :     0.068008 
   103a -> 118a  :     0.010258 
   107a -> 114a  :     0.016496 

STATE 18:  E=   0.197992 au      5.388 eV    43454.3 cm**-1 <S**2> =   0.000000
   101a -> 112a  :     0.012072 
   105a -> 115a  :     0.027341 
   105a -> 116a  :     0.015117 
   109a -> 112a  :     0.741813 
   109a -> 113a  :     0.126564 
   109a -> 115a  :     0.017964 
   109a -> 116a  :     0.014140 

STATE 19:  E=   0.220780 au      6.008 eV    48455.5 cm**-1 <S**2> =   0.000000
   102a -> 111a  :     0.062896 
   104a -> 113a  :     0.021367 
   105a -> 112a  :     0.013051 
   106a -> 112a  :     0.177643 
   107a -> 112a  :     0.070904 
   107a -> 113a  :     0.020719 
   108a -> 114a  :     0.171432 
   110a -> 114a  :     0.210688 
   110a -> 118a  :     0.169690 

STATE 20:  E=   0.206370 au      5.616 eV    45293.0 cm**-1 <S**2> =   0.000000
   106a -> 114a  :     0.030125 
   106a -> 118a  :     0.013405 
   107a -> 114a  :     0.019484 
   107a -> 118a  :     0.013055 
   108a -> 112a  :     0.689185 
   108a -> 113a  :     0.044660 
   110a -> 112a  :     0.085570 
   110a -> 113a  :     0.016882 

STATE 21:  E=   0.233798 au      6.362 eV    51312.6 cm**-1 <S**2> =   0.000000
    98a -> 111a  :     0.012393 
   105a -> 112a  :     0.221324 
   105a -> 113a  :     0.219202 
   105a -> 115a  :     0.044939 
   105a -> 116a  :     0.036765 
   106a -> 117a  :     0.012356 
   107a -> 113a  :     0.038030 
   107a -> 115a  :     0.011497 
   107a -> 116a  :     0.011628 
   108a -> 114a  :     0.026483 
   109a -> 115a  :     0.087792 
   109a -> 116a  :     0.110649 
   110a -> 114a  :     0.012374 
   110a -> 115a  :     0.019666 

STATE 22:  E=   0.232316 au      6.322 eV    50987.4 cm**-1 <S**2> =   0.000000
    97a -> 111a  :     0.028253 
   106a -> 118a  :     0.015971 
   107a -> 114a  :     0.345703 
   107a -> 118a  :     0.017348 
   108a -> 112a  :     0.034873 
   108a -> 113a  :     0.080270 
   108a -> 115a  :     0.038545 
   108a -> 116a  :     0.064668 
   108a -> 117a  :     0.043973 
   110a -> 115a  :     0.155382 
   110a -> 116a  :     0.053245 
   110a -> 117a  :     0.042908 

STATE 23:  E=   0.223051 au      6.070 eV    48953.9 cm**-1 <S**2> =   0.000000
   106a -> 118a  :     0.010757 
   107a -> 114a  :     0.027984 
   108a -> 112a  :     0.010058 
   108a -> 115a  :     0.067052 
   109a -> 115a  :     0.013609 
   110a -> 113a  :     0.034728 
   110a -> 115a  :     0.522468 
   110a -> 116a  :     0.150653 
   110a -> 117a  :     0.040408 

STATE 24:  E=   0.232381 au      6.323 eV    51001.8 cm**-1 <S**2> =   0.000000
    98a -> 111a  :     0.018955 
   100a -> 111a  :     0.036602 
   102a -> 111a  :     0.033050 
   104a -> 112a  :     0.034109 
   105a -> 113a  :     0.028309 
   106a -> 112a  :     0.020472 
   106a -> 113a  :     0.084378 
   106a -> 115a  :     0.018152 
   107a -> 112a  :     0.060659 
   107a -> 113a  :     0.057517 
   107a -> 115a  :     0.056444 
   107a -> 116a  :     0.066874 
   107a -> 117a  :     0.102356 
   108a -> 114a  :     0.088908 
   110a -> 114a  :     0.129936 
   110a -> 115a  :     0.017213 
   110a -> 118a  :     0.016625 

STATE 25:  E=   0.216754 au      5.898 eV    47572.0 cm**-1 <S**2> =   0.000000
    97a -> 111a  :     0.511715 
   103a -> 111a  :     0.150550 
   103a -> 114a  :     0.179840 
   103a -> 118a  :     0.048238 

STATE 26:  E=   0.237768 au      6.470 eV    52184.1 cm**-1 <S**2> =   0.000000
   104a -> 115a  :     0.025592 
   104a -> 116a  :     0.027766 
   105a -> 115a  :     0.267346 
   105a -> 116a  :     0.295988 
   106a -> 115a  :     0.011948 
   106a -> 116a  :     0.016867 
   109a -> 113a  :     0.214094 
   110a -> 116a  :     0.024834 
   110a -> 117a  :     0.015232 

STATE 27:  E=   0.227496 au      6.190 eV    49929.6 cm**-1 <S**2> =   0.000000
   102a -> 113a  :     0.017936 
   105a -> 115a  :     0.020203 
   105a -> 116a  :     0.020959 
   106a -> 114a  :     0.107480 
   106a -> 118a  :     0.058918 
   107a -> 114a  :     0.013168 
   108a -> 112a  :     0.057563 
   108a -> 113a  :     0.012714 
   108a -> 116a  :     0.026550 
   109a -> 113a  :     0.025914 
   110a -> 113a  :     0.039421 
   110a -> 116a  :     0.378444 
   110a -> 117a  :     0.129067 

STATE 28:  E=   0.221070 au      6.016 eV    48519.2 cm**-1 <S**2> =   0.000000
    95a -> 111a  :     0.141220 
    98a -> 111a  :     0.021687 
    99a -> 111a  :     0.024198 
   101a -> 111a  :     0.012778 
   105a -> 112a  :     0.014992 
   106a -> 112a  :     0.046689 
   106a -> 113a  :     0.010835 
   107a -> 112a  :     0.499294 
   107a -> 113a  :     0.015882 
   107a -> 115a  :     0.042580 
   107a -> 116a  :     0.041140 
   110a -> 114a  :     0.021006 
   110a -> 118a  :     0.017821 

STATE 29:  E=   0.224969 au      6.122 eV    49374.9 cm**-1 <S**2> =   0.000000
    65a -> 111a  :     0.011425 
    79a -> 111a  :     0.010499 
    94a -> 111a  :     0.095485 
    95a -> 111a  :     0.378346 
    96a -> 111a  :     0.039732 
    98a -> 111a  :     0.014639 
    99a -> 111a  :     0.066946 
   100a -> 111a  :     0.022582 
   101a -> 111a  :     0.032785 
   106a -> 112a  :     0.019378 
   106a -> 113a  :     0.018252 
   107a -> 112a  :     0.159465 

STATE 30:  E=   0.235268 au      6.402 eV    51635.5 cm**-1 <S**2> =   0.000000
   102a -> 113a  :     0.023060 
   102a -> 117a  :     0.012945 
   104a -> 114a  :     0.026137 
   104a -> 118a  :     0.012962 
   105a -> 114a  :     0.037063 
   105a -> 118a  :     0.012244 
   106a -> 114a  :     0.290801 
   106a -> 118a  :     0.060403 
   107a -> 118a  :     0.030399 
   108a -> 112a  :     0.029467 
   108a -> 113a  :     0.074723 
   108a -> 115a  :     0.025368 
   108a -> 116a  :     0.028952 
   108a -> 117a  :     0.038011 
   110a -> 113a  :     0.052738 
   110a -> 115a  :     0.018051 
   110a -> 116a  :     0.112994 
   110a -> 117a  :     0.028877 


-------------------------
TD-DFT-EXCITATION SPECTRA
-------------------------

Center of mass = (  0.2696, -0.0009, -0.0102)
Calculating the Dipole integrals                  ... done
Transforming integrals                            ... done
Calculating the Linear Momentum integrals         ... done
Transforming integrals                            ... done
Calculating angular momentum integrals            ... done
Transforming integrals                            ... done

-----------------------------------------------------------------------------
         ABSORPTION SPECTRUM VIA TRANSITION ELECTRIC DIPOLE MOMENTS
-----------------------------------------------------------------------------
State   Energy    Wavelength  fosc         T2        TX        TY        TZ  
        (cm-1)      (nm)                 (au**2)    (au)      (au)      (au) 
-----------------------------------------------------------------------------
   1   23538.4    424.8   0.299418405   4.18771  -2.04618  -0.00966  -0.02766
   2   29954.3    333.8   0.334678958   3.67828  -0.00029   1.91708   0.05543
   3   28279.3    353.6   0.079521178   0.92574  -0.96164   0.02596  -0.01787
   4   26967.0    370.8   0.002851740   0.03481   0.11731   0.14195  -0.03002
   5   29759.6    336.0   0.007521713   0.08321   0.05958  -0.25738   0.11581
   6   32471.2    308.0   0.050302968   0.51000  -0.00478   0.67574   0.23099
   7   36282.8    275.6   0.306140705   2.77776  -0.01021  -1.66662  -0.00486
   8   39194.0    255.1   0.092638101   0.77812  -0.07033   0.67982   0.55769
   9   38680.8    258.5   0.840474617   7.15326   0.00552  -2.67455  -0.00645
  10   41651.1    240.1   0.014924430   0.11796  -0.03831   0.33169   0.08050
  11   46311.5    215.9   0.159147090   1.13132  -1.05444  -0.00713   0.13935
  12   47093.1    212.3   0.002324011   0.01625   0.04616  -0.03763  -0.11269
  13   46753.8    213.9   0.066922892   0.47123   0.68294  -0.02682   0.06401
  14   44248.9    226.0   0.055641115   0.41397  -0.00034   0.61473  -0.18995
  15   44811.3    223.2   0.026715359   0.19627  -0.44020   0.00255  -0.04984
  16   46996.4    212.8   0.004169392   0.02921   0.16838  -0.00539   0.02876
  17   41965.2    238.3   0.003745106   0.02938   0.02369   0.05810  -0.15951
  18   43454.3    230.1   0.010041121   0.07607  -0.11519  -0.00736  -0.25050
  19   48455.5    206.4   0.854491590   5.80550   2.40912   0.03043   0.02700
  20   45293.0    220.8   0.012935232   0.09402  -0.03963  -0.17565  -0.24819
  21   51312.6    194.9   1.712385299  10.98634   3.31367  -0.03603   0.06821
  22   50987.4    196.1   0.343597575   2.21852   0.17734   0.92707  -1.15222
  23   48953.9    204.3   0.018324968   0.12323   0.13164  -0.02968   0.32408
  24   51001.8    196.1   0.129010924   0.83275  -0.91228  -0.00816  -0.02067
  25   47572.0    210.2   0.012830771   0.08879   0.05699   0.07804  -0.28188
  26   52184.1    191.6   0.415832135   2.62335  -0.12640   0.22303   1.59926
  27   49929.6    200.3   0.055195462   0.36393   0.05509  -0.53853   0.26624
  28   48519.2    206.1   0.055292839   0.37517   0.60737  -0.05474   0.05729
  29   49374.9    202.5   0.001582991   0.01055   0.10079   0.00773   0.01833
  30   51635.5    193.7   0.148895409   0.94931   0.06090   0.95293  -0.19373

-----------------------------------------------------------------------------
         ABSORPTION SPECTRUM VIA TRANSITION VELOCITY DIPOLE MOMENTS
-----------------------------------------------------------------------------
State   Energy    Wavelength   fosc        P2         PX        PY        PZ  
        (cm-1)      (nm)                 (au**2)     (au)      (au)      (au) 
-----------------------------------------------------------------------------
   1   23538.4    424.8   0.408744640   0.06576   0.25640   0.00121   0.00349
   2   29954.3    333.8   0.400668148   0.08203   0.00005  -0.28628  -0.00827
   3   28279.3    353.6   0.108297636   0.02093   0.14460  -0.00393   0.00266
   4   26967.0    370.8   0.005052787   0.00093  -0.01884  -0.02351   0.00486
   5   29759.6    336.0   0.011573632   0.00235  -0.00971   0.04361  -0.01891
   6   32471.2    308.0   0.067437997   0.01497   0.00082  -0.11568  -0.03980
   7   36282.8    275.6   0.439705724   0.10904   0.00238   0.33020   0.00080
   8   39194.0    255.1   0.116835387   0.03130   0.01585  -0.13541  -0.11274
   9   38680.8    258.5   1.109721057   0.29337  -0.00088   0.54163   0.00121
  10   41651.1    240.1   0.017567064   0.00500   0.00806  -0.06817  -0.01699
  11   46311.5    215.9   0.166626409   0.05274   0.22764   0.00157  -0.03032
  12   47093.1    212.3   0.002408787   0.00078  -0.00975   0.00822   0.02475
  13   46753.8    213.9   0.073848652   0.02360  -0.15283   0.00604  -0.01430
  14   44248.9    226.0   0.070077695   0.02119   0.00015  -0.13925   0.04244
  15   44811.3    223.2   0.034571697   0.01059   0.10226  -0.00059   0.01146
  16   46996.4    212.8   0.004749138   0.00153  -0.03844   0.00129  -0.00678
  17   41965.2    238.3   0.005419800   0.00155  -0.00556  -0.01388   0.03648
  18   43454.3    230.1   0.014243818   0.00423   0.02813   0.00199   0.05861
  19   48455.5    206.4   1.030827685   0.34138  -0.58419  -0.00739  -0.00640
  20   45293.0    220.8   0.017895917   0.00554   0.00965   0.04290   0.06005
  21   51312.6    194.9   1.939754273   0.68026  -0.82456   0.00899  -0.01693
  22   50987.4    196.1   0.400374363   0.13952  -0.04445  -0.23199   0.28935
  23   48953.9    204.3   0.023524737   0.00787  -0.03350   0.00779  -0.08178
  24   51001.8    196.1   0.155593518   0.05424   0.23282   0.00202   0.00534
  25   47572.0    210.2   0.017869559   0.00581  -0.01461  -0.01941   0.07225
  26   52184.1    191.6   0.484821145   0.17291   0.03382  -0.05714  -0.41049
  27   49929.6    200.3   0.070732170   0.02414  -0.01393   0.13856  -0.06887
  28   48519.2    206.1   0.076787238   0.02546  -0.15821   0.01448  -0.01489
  29   49374.9    202.5   0.002110210   0.00071  -0.02617  -0.00208  -0.00481
  30   51635.5    193.7   0.186520835   0.06582  -0.01598  -0.25108   0.05029

-------------------------------------------------------------------
                             CD SPECTRUM
-------------------------------------------------------------------
State  Energy     Wavelength     R         MX        MY        MZ   
       (cm-1)       (nm)     (1e40*cgs)   (au)      (au)      (au)  
-------------------------------------------------------------------
   1   23538.4    424.8     45.39043  -0.04718   0.02184   0.00209
   2   29954.3    333.8     11.85385   0.00983   0.00900   0.14245
   3   28279.3    353.6     16.37020  -0.03608   0.00373   0.00408
   4   26967.0    370.8      6.70826   0.03682   0.03653  -0.15742
   5   29759.6    336.0     38.86056   0.00369  -0.15432   0.36686
   6   32471.2    308.0    -104.36669   0.01647  -0.12834  -0.58259
   7   36282.8    275.6    -49.23647  -0.02240   0.06195   0.29248
   8   39194.0    255.1     76.20315   0.00684   0.34714  -0.13247
   9   38680.8    258.5    -82.37482  -0.03134   0.06435   0.38134
  10   41651.1    240.1    -12.91367   0.00332  -0.05524  -0.11110
  11   46311.5    215.9     20.04247  -0.04442   0.19539  -0.02104
  12   47093.1    212.3      3.21875  -0.03613  -0.16637  -0.01983
  13   46753.8    213.9      0.47152   0.00634   0.02228  -0.04263
  14   44248.9    226.0    -70.56415  -0.01462   0.11251   1.15209
  15   44811.3    223.2      8.47531  -0.04146  -0.02778   0.00407
  16   46996.4    212.8      0.08903   0.00266   0.00677  -0.00776
  17   41965.2    238.3    -14.45293  -0.00792   0.03891   0.20519
  18   43454.3    230.1      6.36296  -0.00415  -0.25696  -0.04442
  19   48455.5    206.4    -15.33211  -0.01349  -0.01013   0.01019
  20   45293.0    220.8     -0.93471  -0.01299   0.36696  -0.24964
  21   51312.6    194.9     89.19024   0.05591  -0.20639  -0.05140
  22   50987.4    196.1     13.08446  -0.06790   1.22883   0.95417
  23   48953.9    204.3    -31.53025  -0.19430  -0.35982  -0.16039
  24   51001.8    196.1     28.47675  -0.06729   0.11209   0.00360
  25   47572.0    210.2     29.26017   0.00431   0.32603  -0.12904
  26   52184.1    191.6     46.61965   0.03081   1.79231  -0.18568
  27   49929.6    200.3    -116.15904  -0.11286   0.59188   0.29514
  28   48519.2    206.1    -20.25866  -0.07288   0.03300   0.05412
  29   49374.9    202.5      4.04690   0.08171   0.01685   0.01191
  30   51635.5    193.7    137.32715  -0.01475   0.13146  -0.86157

Total run time:    50866.982 sec

           *** ORCA-CIS/TD-DFT FINISHED WITHOUT ERROR ***

Maximum memory used throughout the entire CIS-calculation: 5645.6 MB

-----------------------
CIS/TD-DFT TOTAL ENERGY
-----------------------

    E(SCF)  =  -1453.707487780 Eh
    DE(CIS) =      0.107249033 Eh (Root  1)
    ----------------------------- ---------
    E(tot)  =  -1453.600238747 Eh


-------------------------   --------------------
FINAL SINGLE POINT ENERGY     -1453.600238747036
-------------------------   --------------------


                            ***************************************
                            *     ORCA property calculations      *
                            ***************************************


  WARNING: The energy has been calculated at the MP2 level but the densities
           used in the property calculations are still SCF densities
           MP2 response densities have not been calculated 
           use %mp2 Density relaxed end
           or  %mp2 Density unrelaxed end

                                    ---------------------
                                    Active property flags
                                    ---------------------
   (+) Dipole Moment


------------------------------------------------------------------------------
                       ORCA ELECTRIC PROPERTIES CALCULATION
------------------------------------------------------------------------------

Dipole Moment Calculation                       ... on
Quadrupole Moment Calculation                   ... off
Polarizability Calculation                      ... off
GBWName                                         ... BF3-Acr_p_M06L_def2TZVP_coords.gbw
Electron density                                ... BF3-Acr_p_M06L_def2TZVP_coords.scfp
The origin for moment calculation is the CENTER OF MASS  = ( 0.269627, -0.000920 -0.010201)

-------------
DIPOLE MOMENT
-------------
                                X             Y             Z
Electronic contribution:     44.78261      -0.11977      -1.84532
Nuclear contribution   :    -59.85722       0.20415       2.26466
                        -----------------------------------------
Total Dipole Moment    :    -15.07461       0.08438       0.41933
                        -----------------------------------------
Magnitude (a.u.)       :     15.08067
Magnitude (Debye)      :     38.33202



--------------------
Rotational spectrum 
--------------------
 
Rotational constants in cm-1:     0.012130     0.001892     0.001710 
Rotational constants in MHz :   363.659825    56.710211    51.257227 

 Dipole components along the rotational axes: 
x,y,z [a.u.] :   -15.073072    -0.084850     0.471156 
x,y,z [Debye]:   -38.312703    -0.215671     1.197584 

 

Timings for individual modules:

Sum of individual times         ...    54011.955 sec (= 900.199 min)
GTO integral calculation        ...        4.878 sec (=   0.081 min)   0.0 %
SCF iterations                  ...      922.151 sec (=  15.369 min)   1.7 %
MP2 module                      ...     2214.855 sec (=  36.914 min)   4.1 %
CIS module                      ...    50870.070 sec (= 847.835 min)  94.2 %
                             ****ORCA TERMINATED NORMALLY****
TOTAL RUN TIME: 0 days 15 hours 0 minutes 16 seconds 261 msec
