 Entering Gaussian System, Link 0=g09
 Input=/home/png4rjv/fotokatalizis/benchmark/OPCs/BF3-Acr_p_B3LYP-D3_def2TZVP.gjf
 Output=/home/png4rjv/fotokatalizis/benchmark/OPCs/BF3-Acr_p_B3LYP-D3_def2TZVP.log
 Initial command:
 /opt/nce/packages/global/g09/l1.exe "/home/png4rjv/fotokatalizis/benchmark/OPCs/BF3-Acr_p_B3LYP-D3_def2TZVP/Gau-48555.inp" -scrdir="/home/png4rjv/fotokatalizis/benchmark/OPCs/BF3-Acr_p_B3LYP-D3_def2TZVP/"
 Default is to use a total of  12 processors:
                               12 via shared-memory
                                1 via Linda
 Entering Link 1 = /opt/nce/packages/global/g09/l1.exe PID=     48556.
  
 Copyright (c) 1988,1990,1992,1993,1995,1998,2003,2009,2015,
            Gaussian, Inc.  All Rights Reserved.
  
 This is part of the Gaussian(R) 09 program.  It is based on
 the Gaussian(R) 03 system (copyright 2003, Gaussian, Inc.),
 the Gaussian(R) 98 system (copyright 1998, Gaussian, Inc.),
 the Gaussian(R) 94 system (copyright 1995, Gaussian, Inc.),
 the Gaussian 92(TM) system (copyright 1992, Gaussian, Inc.),
 the Gaussian 90(TM) system (copyright 1990, Gaussian, Inc.),
 the Gaussian 88(TM) system (copyright 1988, Gaussian, Inc.),
 the Gaussian 86(TM) system (copyright 1986, Carnegie Mellon
 University), and the Gaussian 82(TM) system (copyright 1983,
 Carnegie Mellon University). Gaussian is a federally registered
 trademark of Gaussian, Inc.
  
 This software contains proprietary and confidential information,
 including trade secrets, belonging to Gaussian, Inc.
  
 This software is provided under written license and may be
 used, copied, transmitted, or stored only in accord with that
 written license.
  
 The following legend is applicable only to US Government
 contracts under FAR:
  
                    RESTRICTED RIGHTS LEGEND
  
 Use, reproduction and disclosure by the US Government is
 subject to restrictions as set forth in subparagraphs (a)
 and (c) of the Commercial Computer Software - Restricted
 Rights clause in FAR 52.227-19.
  
 Gaussian, Inc.
 340 Quinnipiac St., Bldg. 40, Wallingford CT 06492
  
  
 ---------------------------------------------------------------
 Warning -- This program may not be used in any manner that
 competes with the business of Gaussian, Inc. or will provide
 assistance to any competitor of Gaussian, Inc.  The licensee
 of this program is prohibited from giving any competitor of
 Gaussian, Inc. access to this program.  By using this program,
 the user acknowledges that Gaussian, Inc. is engaged in the
 business of creating and licensing software in the field of
 computational chemistry and represents and warrants to the
 licensee that it is not a competitor of Gaussian, Inc. and that
 it will not use this program in any manner prohibited above.
 ---------------------------------------------------------------
  

 Cite this work as:
 Gaussian 09, Revision E.01,
 M. J. Frisch, G. W. Trucks, H. B. Schlegel, G. E. Scuseria, 
 M. A. Robb, J. R. Cheeseman, G. Scalmani, V. Barone, B. Mennucci, 
 G. A. Petersson, H. Nakatsuji, M. Caricato, X. Li, H. P. Hratchian, 
 A. F. Izmaylov, J. Bloino, G. Zheng, J. L. Sonnenberg, M. Hada, 
 M. Ehara, K. Toyota, R. Fukuda, J. Hasegawa, M. Ishida, T. Nakajima, 
 Y. Honda, O. Kitao, H. Nakai, T. Vreven, J. A. Montgomery, Jr., 
 J. E. Peralta, F. Ogliaro, M. Bearpark, J. J. Heyd, E. Brothers, 
 K. N. Kudin, V. N. Staroverov, T. Keith, R. Kobayashi, J. Normand, 
 K. Raghavachari, A. Rendell, J. C. Burant, S. S. Iyengar, J. Tomasi, 
 M. Cossi, N. Rega, J. M. Millam, M. Klene, J. E. Knox, J. B. Cross, 
 V. Bakken, C. Adamo, J. Jaramillo, R. Gomperts, R. E. Stratmann, 
 O. Yazyev, A. J. Austin, R. Cammi, C. Pomelli, J. W. Ochterski, 
 R. L. Martin, K. Morokuma, V. G. Zakrzewski, G. A. Voth, 
 P. Salvador, J. J. Dannenberg, S. Dapprich, A. D. Daniels, 
 O. Farkas, J. B. Foresman, J. V. Ortiz, J. Cioslowski, 
 and D. J. Fox, Gaussian, Inc., Wallingford CT, 2013.
 
 ******************************************
 Gaussian 09:  ES64L-G09RevE.01 30-Nov-2015
                13-Feb-2021 
 ******************************************
 %chk=cp.chk
 Default route:  MaxDisk=500GB
 ----------------------------------------------------------------------
 #p b3lyp/def2TZVP opt freq=noraman nosymm int=ultrafine scrf=(SMD,solv
 ent=Acetonitrile) EmpiricalDispersion=GD3BJ
 ----------------------------------------------------------------------
 1/14=-1,18=20,19=15,26=4,38=1/1,3;
 2/9=110,12=2,15=1,17=6,18=5,40=1/2;
 3/5=44,7=101,11=2,16=1,25=1,30=1,70=32201,71=1,72=2,74=-5,75=-5,124=41/1,2,3;
 4//1;
 5/5=2,38=5,53=2/2;
 6/7=2,8=2,9=2,10=2,28=1/1;
 7/30=1/1,2,3,16;
 1/14=-1,18=20,19=15,26=4/3(2);
 2/9=110,15=1/2;
 99//99;
 2/9=110,15=1/2;
 3/5=44,7=101,11=2,16=1,25=1,30=1,70=32205,71=1,72=2,74=-5,75=-5,124=41/1,2,3;
 4/5=5,16=3,69=1/1;
 5/5=2,38=5,53=2/2;
 7/30=1/1,2,3,16;
 1/14=-1,18=20,19=15,26=4/3(-5);
 2/9=110,15=1/2;
 6/7=2,8=2,9=2,10=2,19=2,28=1/1;
 99/9=1/99;
 Leave Link    1 at Sat Feb 13 08:46:22 2021, MaxMem=           0 cpu:         1.0
 (Enter /opt/nce/packages/global/g09/l101.exe)
 -----
 Title
 -----
 Symbolic Z-matrix:
 Charge =  0 Multiplicity = 1
 C                     1.34428   3.63579  -0.02725 
 C                     2.00697   2.42717   0.06868 
 C                     1.27679   1.21484   0.05556 
 C                    -0.15248   1.24529  -0.01114 
 C                    -0.78453   2.51318  -0.17313 
 C                    -0.05866   3.68389  -0.17108 
 C                    -0.90033   0.0227    0.01443 
 C                    -0.17191  -1.21041   0.07585 
 C                     1.25917  -1.2005    0.0751 
 C                     1.97178  -2.42297   0.09998 
 H                     3.05921  -2.4133    0.07463 
 C                     1.28807  -3.62172   0.1691 
 C                    -0.12067  -3.64952   0.24597 
 C                    -0.82913  -2.46873   0.21037 
 H                     1.92237   4.5626   -0.01761 
 H                     3.09168   2.4019    0.14617 
 H                    -1.86281   2.53901  -0.31731 
 H                    -0.56514   4.64219  -0.29753 
 H                     1.85271  -4.55656   0.19121 
 H                    -0.64626  -4.60004   0.35127 
 H                    -1.91337  -2.47892   0.30306 
 N                     1.9383    0.00243   0.07847 
 C                    -2.35198   0.03134  -0.02045 
 C                    -3.06174  -0.76144  -0.9594 
 C                    -3.09875   0.83386   0.88082 
 C                    -4.44766  -0.72994  -0.99584 
 C                    -4.48522   0.80754   0.85738 
 C                    -5.20172   0.02852  -0.07557 
 H                    -5.0554    1.40219   1.57547 
 H                    -2.57069   1.42196   1.63568 
 C                     3.38042  -0.00781   0.10896 
 C                     4.10041   0.00753  -1.08322 
 C                     4.05116  -0.03296   1.33772 
 C                     5.4973   -0.00207  -1.063 
 H                     3.56645   0.02726  -2.03529 
 C                     5.43914  -0.04239   1.36717 
 H                     3.47712  -0.04513   2.26621 
 C                     6.17671  -0.02707   0.16707 
 H                     6.04199   0.01002  -2.00596 
 H                     5.98641  -0.06178   2.31073 
 O                     7.51685  -0.03799   0.29637 
 C                     8.32748  -0.02387  -0.86205 
 H                     9.36753  -0.03648  -0.51308 
 H                     8.14776  -0.9114   -1.49347 
 H                     8.15946   0.88657  -1.46336 
 H                    -4.98746  -1.29436  -1.76035 
 B                    -6.84664  -0.02481  -0.06644 
 F                    -7.33225   1.19291   0.43441 
 F                    -7.23685  -1.08578   0.76685 
 F                    -7.29399  -0.24534  -1.37828 
 H                    -2.5028   -1.34261  -1.69736 
 
 NAtoms=     51 NQM=       51 NQMF=       0 NMMI=      0 NMMIF=      0
                NMic=       0 NMicF=      0.
                    Isotopes and Nuclear Properties:
 (Nuclear quadrupole moments (NQMom) in fm**2, nuclear magnetic moments (NMagM)
  in nuclear magnetons)

  Atom         1           2           3           4           5           6           7           8           9          10
 IAtWgt=          12          12          12          12          12          12          12          12          12          12
 AtmWgt=  12.0000000  12.0000000  12.0000000  12.0000000  12.0000000  12.0000000  12.0000000  12.0000000  12.0000000  12.0000000
 NucSpn=           0           0           0           0           0           0           0           0           0           0
 AtZEff=   0.0000000   0.0000000   0.0000000   0.0000000   0.0000000   0.0000000   0.0000000   0.0000000   0.0000000   0.0000000
 NQMom=    0.0000000   0.0000000   0.0000000   0.0000000   0.0000000   0.0000000   0.0000000   0.0000000   0.0000000   0.0000000
 NMagM=    0.0000000   0.0000000   0.0000000   0.0000000   0.0000000   0.0000000   0.0000000   0.0000000   0.0000000   0.0000000
 AtZNuc=   6.0000000   6.0000000   6.0000000   6.0000000   6.0000000   6.0000000   6.0000000   6.0000000   6.0000000   6.0000000

  Atom        11          12          13          14          15          16          17          18          19          20
 IAtWgt=           1          12          12          12           1           1           1           1           1           1
 AtmWgt=   1.0078250  12.0000000  12.0000000  12.0000000   1.0078250   1.0078250   1.0078250   1.0078250   1.0078250   1.0078250
 NucSpn=           1           0           0           0           1           1           1           1           1           1
 AtZEff=   0.0000000   0.0000000   0.0000000   0.0000000   0.0000000   0.0000000   0.0000000   0.0000000   0.0000000   0.0000000
 NQMom=    0.0000000   0.0000000   0.0000000   0.0000000   0.0000000   0.0000000   0.0000000   0.0000000   0.0000000   0.0000000
 NMagM=    2.7928460   0.0000000   0.0000000   0.0000000   2.7928460   2.7928460   2.7928460   2.7928460   2.7928460   2.7928460
 AtZNuc=   1.0000000   6.0000000   6.0000000   6.0000000   1.0000000   1.0000000   1.0000000   1.0000000   1.0000000   1.0000000

  Atom        21          22          23          24          25          26          27          28          29          30
 IAtWgt=           1          14          12          12          12          12          12          12           1           1
 AtmWgt=   1.0078250  14.0030740  12.0000000  12.0000000  12.0000000  12.0000000  12.0000000  12.0000000   1.0078250   1.0078250
 NucSpn=           1           2           0           0           0           0           0           0           1           1
 AtZEff=   0.0000000   0.0000000   0.0000000   0.0000000   0.0000000   0.0000000   0.0000000   0.0000000   0.0000000   0.0000000
 NQMom=    0.0000000   2.0440000   0.0000000   0.0000000   0.0000000   0.0000000   0.0000000   0.0000000   0.0000000   0.0000000
 NMagM=    2.7928460   0.4037610   0.0000000   0.0000000   0.0000000   0.0000000   0.0000000   0.0000000   2.7928460   2.7928460
 AtZNuc=   1.0000000   7.0000000   6.0000000   6.0000000   6.0000000   6.0000000   6.0000000   6.0000000   1.0000000   1.0000000

  Atom        31          32          33          34          35          36          37          38          39          40
 IAtWgt=          12          12          12          12           1          12           1          12           1           1
 AtmWgt=  12.0000000  12.0000000  12.0000000  12.0000000   1.0078250  12.0000000   1.0078250  12.0000000   1.0078250   1.0078250
 NucSpn=           0           0           0           0           1           0           1           0           1           1
 AtZEff=   0.0000000   0.0000000   0.0000000   0.0000000   0.0000000   0.0000000   0.0000000   0.0000000   0.0000000   0.0000000
 NQMom=    0.0000000   0.0000000   0.0000000   0.0000000   0.0000000   0.0000000   0.0000000   0.0000000   0.0000000   0.0000000
 NMagM=    0.0000000   0.0000000   0.0000000   0.0000000   2.7928460   0.0000000   2.7928460   0.0000000   2.7928460   2.7928460
 AtZNuc=   6.0000000   6.0000000   6.0000000   6.0000000   1.0000000   6.0000000   1.0000000   6.0000000   1.0000000   1.0000000

  Atom        41          42          43          44          45          46          47          48          49          50
 IAtWgt=          16          12           1           1           1           1          11          19          19          19
 AtmWgt=  15.9949146  12.0000000   1.0078250   1.0078250   1.0078250   1.0078250  11.0093053  18.9984033  18.9984033  18.9984033
 NucSpn=           0           0           1           1           1           1           3           1           1           1
 AtZEff=   0.0000000   0.0000000   0.0000000   0.0000000   0.0000000   0.0000000   0.0000000   0.0000000   0.0000000   0.0000000
 NQMom=    0.0000000   0.0000000   0.0000000   0.0000000   0.0000000   0.0000000   4.0590000   0.0000000   0.0000000   0.0000000
 NMagM=    0.0000000   0.0000000   2.7928460   2.7928460   2.7928460   2.7928460   2.6886370   2.6288670   2.6288670   2.6288670
 AtZNuc=   8.0000000   6.0000000   1.0000000   1.0000000   1.0000000   1.0000000   5.0000000   9.0000000   9.0000000   9.0000000

  Atom        51
 IAtWgt=           1
 AtmWgt=   1.0078250
 NucSpn=           1
 AtZEff=   0.0000000
 NQMom=    0.0000000
 NMagM=    2.7928460
 AtZNuc=   1.0000000
 Leave Link  101 at Sat Feb 13 08:46:22 2021, MaxMem=  5242880000 cpu:         7.6
 (Enter /opt/nce/packages/global/g09/l103.exe)

 GradGradGradGradGradGradGradGradGradGradGradGradGradGradGradGradGradGrad
 Berny optimization.
 Initialization pass.
                           ----------------------------
                           !    Initial Parameters    !
                           ! (Angstroms and Degrees)  !
 --------------------------                            --------------------------
 ! Name  Definition              Value          Derivative Info.                !
 --------------------------------------------------------------------------------
 ! R1    R(1,2)                  1.3817         estimate D2E/DX2                !
 ! R2    R(1,6)                  1.4111         estimate D2E/DX2                !
 ! R3    R(1,15)                 1.0924         estimate D2E/DX2                !
 ! R4    R(2,3)                  1.4153         estimate D2E/DX2                !
 ! R5    R(2,16)                 1.0878         estimate D2E/DX2                !
 ! R6    R(3,4)                  1.4311         estimate D2E/DX2                !
 ! R7    R(3,22)                 1.3813         estimate D2E/DX2                !
 ! R8    R(4,5)                  1.4259         estimate D2E/DX2                !
 ! R9    R(4,7)                  1.4334         estimate D2E/DX2                !
 ! R10   R(5,6)                  1.3775         estimate D2E/DX2                !
 ! R11   R(5,17)                 1.0882         estimate D2E/DX2                !
 ! R12   R(6,18)                 1.0913         estimate D2E/DX2                !
 ! R13   R(7,8)                  1.4335         estimate D2E/DX2                !
 ! R14   R(7,23)                 1.4521         estimate D2E/DX2                !
 ! R15   R(8,9)                  1.4311         estimate D2E/DX2                !
 ! R16   R(8,14)                 1.426          estimate D2E/DX2                !
 ! R17   R(9,10)                 1.4152         estimate D2E/DX2                !
 ! R18   R(9,22)                 1.3814         estimate D2E/DX2                !
 ! R19   R(10,11)                1.0878         estimate D2E/DX2                !
 ! R20   R(10,12)                1.3817         estimate D2E/DX2                !
 ! R21   R(12,13)                1.4111         estimate D2E/DX2                !
 ! R22   R(12,19)                1.0924         estimate D2E/DX2                !
 ! R23   R(13,14)                1.3775         estimate D2E/DX2                !
 ! R24   R(13,20)                1.0912         estimate D2E/DX2                !
 ! R25   R(14,21)                1.0882         estimate D2E/DX2                !
 ! R26   R(22,31)                1.4425         estimate D2E/DX2                !
 ! R27   R(23,24)                1.4191         estimate D2E/DX2                !
 ! R28   R(23,25)                1.4191         estimate D2E/DX2                !
 ! R29   R(24,26)                1.3868         estimate D2E/DX2                !
 ! R30   R(24,51)                1.093          estimate D2E/DX2                !
 ! R31   R(25,27)                1.3869         estimate D2E/DX2                !
 ! R32   R(25,30)                1.0929         estimate D2E/DX2                !
 ! R33   R(26,28)                1.4109         estimate D2E/DX2                !
 ! R34   R(26,46)                1.0929         estimate D2E/DX2                !
 ! R35   R(27,28)                1.4109         estimate D2E/DX2                !
 ! R36   R(27,29)                1.0929         estimate D2E/DX2                !
 ! R37   R(28,47)                1.6458         estimate D2E/DX2                !
 ! R38   R(31,32)                1.3928         estimate D2E/DX2                !
 ! R39   R(31,33)                1.4001         estimate D2E/DX2                !
 ! R40   R(32,34)                1.3971         estimate D2E/DX2                !
 ! R41   R(32,35)                1.0918         estimate D2E/DX2                !
 ! R42   R(33,36)                1.3883         estimate D2E/DX2                !
 ! R43   R(33,37)                1.0917         estimate D2E/DX2                !
 ! R44   R(34,38)                1.4055         estimate D2E/DX2                !
 ! R45   R(34,39)                1.089          estimate D2E/DX2                !
 ! R46   R(36,38)                1.4087         estimate D2E/DX2                !
 ! R47   R(36,40)                1.091          estimate D2E/DX2                !
 ! R48   R(38,41)                1.3464         estimate D2E/DX2                !
 ! R49   R(41,42)                1.4139         estimate D2E/DX2                !
 ! R50   R(42,43)                1.0971         estimate D2E/DX2                !
 ! R51   R(42,44)                1.104          estimate D2E/DX2                !
 ! R52   R(42,45)                1.104          estimate D2E/DX2                !
 ! R53   R(47,48)                1.4034         estimate D2E/DX2                !
 ! R54   R(47,49)                1.4044         estimate D2E/DX2                !
 ! R55   R(47,50)                1.4035         estimate D2E/DX2                !
 ! A1    A(2,1,6)              120.9127         estimate D2E/DX2                !
 ! A2    A(2,1,15)             119.1919         estimate D2E/DX2                !
 ! A3    A(6,1,15)             119.8754         estimate D2E/DX2                !
 ! A4    A(1,2,3)              120.0795         estimate D2E/DX2                !
 ! A5    A(1,2,16)             120.2335         estimate D2E/DX2                !
 ! A6    A(3,2,16)             119.6851         estimate D2E/DX2                !
 ! A7    A(2,3,4)              119.8308         estimate D2E/DX2                !
 ! A8    A(2,3,22)             120.3059         estimate D2E/DX2                !
 ! A9    A(4,3,22)             119.8492         estimate D2E/DX2                !
 ! A10   A(3,4,5)              117.8328         estimate D2E/DX2                !
 ! A11   A(3,4,7)              120.1364         estimate D2E/DX2                !
 ! A12   A(5,4,7)              121.9486         estimate D2E/DX2                !
 ! A13   A(4,5,6)              121.4633         estimate D2E/DX2                !
 ! A14   A(4,5,17)             118.3841         estimate D2E/DX2                !
 ! A15   A(6,5,17)             120.1445         estimate D2E/DX2                !
 ! A16   A(1,6,5)              119.675          estimate D2E/DX2                !
 ! A17   A(1,6,18)             120.2108         estimate D2E/DX2                !
 ! A18   A(5,6,18)             120.1057         estimate D2E/DX2                !
 ! A19   A(4,7,8)              117.9916         estimate D2E/DX2                !
 ! A20   A(4,7,23)             121.0685         estimate D2E/DX2                !
 ! A21   A(8,7,23)             120.9398         estimate D2E/DX2                !
 ! A22   A(7,8,9)              120.1423         estimate D2E/DX2                !
 ! A23   A(7,8,14)             121.9322         estimate D2E/DX2                !
 ! A24   A(9,8,14)             117.8424         estimate D2E/DX2                !
 ! A25   A(8,9,10)             119.8364         estimate D2E/DX2                !
 ! A26   A(8,9,22)             119.8442         estimate D2E/DX2                !
 ! A27   A(10,9,22)            120.3054         estimate D2E/DX2                !
 ! A28   A(9,10,11)            119.6882         estimate D2E/DX2                !
 ! A29   A(9,10,12)            120.074          estimate D2E/DX2                !
 ! A30   A(11,10,12)           120.2349         estimate D2E/DX2                !
 ! A31   A(10,12,13)           120.9177         estimate D2E/DX2                !
 ! A32   A(10,12,19)           119.1894         estimate D2E/DX2                !
 ! A33   A(13,12,19)           119.8724         estimate D2E/DX2                !
 ! A34   A(12,13,14)           119.6797         estimate D2E/DX2                !
 ! A35   A(12,13,20)           120.2153         estimate D2E/DX2                !
 ! A36   A(14,13,20)           120.0958         estimate D2E/DX2                !
 ! A37   A(8,14,13)            121.4548         estimate D2E/DX2                !
 ! A38   A(8,14,21)            118.3916         estimate D2E/DX2                !
 ! A39   A(13,14,21)           120.145          estimate D2E/DX2                !
 ! A40   A(3,22,9)             121.9271         estimate D2E/DX2                !
 ! A41   A(3,22,31)            119.0359         estimate D2E/DX2                !
 ! A42   A(9,22,31)            119.0369         estimate D2E/DX2                !
 ! A43   A(7,23,24)            120.8343         estimate D2E/DX2                !
 ! A44   A(7,23,25)            120.9415         estimate D2E/DX2                !
 ! A45   A(24,23,25)           118.2242         estimate D2E/DX2                !
 ! A46   A(23,24,26)           120.3006         estimate D2E/DX2                !
 ! A47   A(23,24,51)           119.2079         estimate D2E/DX2                !
 ! A48   A(26,24,51)           120.357          estimate D2E/DX2                !
 ! A49   A(23,25,27)           120.3032         estimate D2E/DX2                !
 ! A50   A(23,25,30)           119.253          estimate D2E/DX2                !
 ! A51   A(27,25,30)           120.3237         estimate D2E/DX2                !
 ! A52   A(24,26,28)           121.9503         estimate D2E/DX2                !
 ! A53   A(24,26,46)           120.0172         estimate D2E/DX2                !
 ! A54   A(28,26,46)           118.0288         estimate D2E/DX2                !
 ! A55   A(25,27,28)           121.9595         estimate D2E/DX2                !
 ! A56   A(25,27,29)           120.008          estimate D2E/DX2                !
 ! A57   A(28,27,29)           118.0324         estimate D2E/DX2                !
 ! A58   A(26,28,27)           117.1741         estimate D2E/DX2                !
 ! A59   A(26,28,47)           121.3554         estimate D2E/DX2                !
 ! A60   A(27,28,47)           121.4516         estimate D2E/DX2                !
 ! A61   A(22,31,32)           119.9096         estimate D2E/DX2                !
 ! A62   A(22,31,33)           119.8419         estimate D2E/DX2                !
 ! A63   A(32,31,33)           120.2486         estimate D2E/DX2                !
 ! A64   A(31,32,34)           120.2912         estimate D2E/DX2                !
 ! A65   A(31,32,35)           119.592          estimate D2E/DX2                !
 ! A66   A(34,32,35)           120.1168         estimate D2E/DX2                !
 ! A67   A(31,33,36)           119.8458         estimate D2E/DX2                !
 ! A68   A(31,33,37)           119.6508         estimate D2E/DX2                !
 ! A69   A(36,33,37)           120.5034         estimate D2E/DX2                !
 ! A70   A(32,34,38)           119.7449         estimate D2E/DX2                !
 ! A71   A(32,34,39)           119.1752         estimate D2E/DX2                !
 ! A72   A(38,34,39)           121.0799         estimate D2E/DX2                !
 ! A73   A(33,36,38)           120.3516         estimate D2E/DX2                !
 ! A74   A(33,36,40)           121.3311         estimate D2E/DX2                !
 ! A75   A(38,36,40)           118.3173         estimate D2E/DX2                !
 ! A76   A(34,38,36)           119.5179         estimate D2E/DX2                !
 ! A77   A(34,38,41)           124.4265         estimate D2E/DX2                !
 ! A78   A(36,38,41)           116.0556         estimate D2E/DX2                !
 ! A79   A(38,41,42)           119.4645         estimate D2E/DX2                !
 ! A80   A(41,42,43)           106.4264         estimate D2E/DX2                !
 ! A81   A(41,42,44)           111.5454         estimate D2E/DX2                !
 ! A82   A(41,42,45)           111.5451         estimate D2E/DX2                !
 ! A83   A(43,42,44)           109.088          estimate D2E/DX2                !
 ! A84   A(43,42,45)           109.0878         estimate D2E/DX2                !
 ! A85   A(44,42,45)           109.0693         estimate D2E/DX2                !
 ! A86   A(28,47,48)           108.6451         estimate D2E/DX2                !
 ! A87   A(28,47,49)           107.7867         estimate D2E/DX2                !
 ! A88   A(28,47,50)           108.5713         estimate D2E/DX2                !
 ! A89   A(48,47,49)           110.3419         estimate D2E/DX2                !
 ! A90   A(48,47,50)           111.0776         estimate D2E/DX2                !
 ! A91   A(49,47,50)           110.3247         estimate D2E/DX2                !
 ! D1    D(6,1,2,3)             -1.5146         estimate D2E/DX2                !
 ! D2    D(6,1,2,16)           177.9723         estimate D2E/DX2                !
 ! D3    D(15,1,2,3)          -179.8837         estimate D2E/DX2                !
 ! D4    D(15,1,2,16)           -0.3968         estimate D2E/DX2                !
 ! D5    D(2,1,6,5)              2.1029         estimate D2E/DX2                !
 ! D6    D(2,1,6,18)          -176.8373         estimate D2E/DX2                !
 ! D7    D(15,1,6,5)          -179.539          estimate D2E/DX2                !
 ! D8    D(15,1,6,18)            1.5207         estimate D2E/DX2                !
 ! D9    D(1,2,3,4)             -2.1357         estimate D2E/DX2                !
 ! D10   D(1,2,3,22)           176.5008         estimate D2E/DX2                !
 ! D11   D(16,2,3,4)           178.3746         estimate D2E/DX2                !
 ! D12   D(16,2,3,22)           -2.9889         estimate D2E/DX2                !
 ! D13   D(2,3,4,5)              5.048          estimate D2E/DX2                !
 ! D14   D(2,3,4,7)           -178.1842         estimate D2E/DX2                !
 ! D15   D(22,3,4,5)          -173.5948         estimate D2E/DX2                !
 ! D16   D(22,3,4,7)             3.173          estimate D2E/DX2                !
 ! D17   D(2,3,22,9)           179.5862         estimate D2E/DX2                !
 ! D18   D(2,3,22,31)           -0.3132         estimate D2E/DX2                !
 ! D19   D(4,3,22,9)            -1.7775         estimate D2E/DX2                !
 ! D20   D(4,3,22,31)          178.323          estimate D2E/DX2                !
 ! D21   D(3,4,5,6)             -4.533          estimate D2E/DX2                !
 ! D22   D(3,4,5,17)           174.4285         estimate D2E/DX2                !
 ! D23   D(7,4,5,6)            178.7614         estimate D2E/DX2                !
 ! D24   D(7,4,5,17)            -2.2771         estimate D2E/DX2                !
 ! D25   D(3,4,7,8)             -1.4463         estimate D2E/DX2                !
 ! D26   D(3,4,7,23)           178.5393         estimate D2E/DX2                !
 ! D27   D(5,4,7,8)            175.1851         estimate D2E/DX2                !
 ! D28   D(5,4,7,23)            -4.8293         estimate D2E/DX2                !
 ! D29   D(4,5,6,1)              1.0182         estimate D2E/DX2                !
 ! D30   D(4,5,6,18)           179.9596         estimate D2E/DX2                !
 ! D31   D(17,5,6,1)          -177.9252         estimate D2E/DX2                !
 ! D32   D(17,5,6,18)            1.0161         estimate D2E/DX2                !
 ! D33   D(4,7,8,9)             -1.6091         estimate D2E/DX2                !
 ! D34   D(4,7,8,14)           175.0037         estimate D2E/DX2                !
 ! D35   D(23,7,8,9)           178.4053         estimate D2E/DX2                !
 ! D36   D(23,7,8,14)           -4.9819         estimate D2E/DX2                !
 ! D37   D(4,7,23,24)          128.8251         estimate D2E/DX2                !
 ! D38   D(4,7,23,25)          -51.054          estimate D2E/DX2                !
 ! D39   D(8,7,23,24)          -51.1897         estimate D2E/DX2                !
 ! D40   D(8,7,23,25)          128.9312         estimate D2E/DX2                !
 ! D41   D(7,8,9,10)          -178.321          estimate D2E/DX2                !
 ! D42   D(7,8,9,22)             3.0356         estimate D2E/DX2                !
 ! D43   D(14,8,9,10)            4.9298         estimate D2E/DX2                !
 ! D44   D(14,8,9,22)         -173.7136         estimate D2E/DX2                !
 ! D45   D(7,8,14,13)          178.9005         estimate D2E/DX2                !
 ! D46   D(7,8,14,21)           -2.1608         estimate D2E/DX2                !
 ! D47   D(9,8,14,13)           -4.4121         estimate D2E/DX2                !
 ! D48   D(9,8,14,21)          174.5266         estimate D2E/DX2                !
 ! D49   D(8,9,10,11)          178.4998         estimate D2E/DX2                !
 ! D50   D(8,9,10,12)           -2.1181         estimate D2E/DX2                !
 ! D51   D(22,9,10,11)          -2.8631         estimate D2E/DX2                !
 ! D52   D(22,9,10,12)         176.519          estimate D2E/DX2                !
 ! D53   D(8,9,22,3)            -1.3216         estimate D2E/DX2                !
 ! D54   D(8,9,22,31)          178.5778         estimate D2E/DX2                !
 ! D55   D(10,9,22,3)         -179.9586         estimate D2E/DX2                !
 ! D56   D(10,9,22,31)          -0.0592         estimate D2E/DX2                !
 ! D57   D(9,10,12,13)          -1.4275         estimate D2E/DX2                !
 ! D58   D(9,10,12,19)        -179.7768         estimate D2E/DX2                !
 ! D59   D(11,10,12,13)        177.9512         estimate D2E/DX2                !
 ! D60   D(11,10,12,19)         -0.398          estimate D2E/DX2                !
 ! D61   D(10,12,13,14)          2.0164         estimate D2E/DX2                !
 ! D62   D(10,12,13,20)       -176.8817         estimate D2E/DX2                !
 ! D63   D(19,12,13,14)       -179.6456         estimate D2E/DX2                !
 ! D64   D(19,12,13,20)          1.4563         estimate D2E/DX2                !
 ! D65   D(12,13,14,8)           0.9978         estimate D2E/DX2                !
 ! D66   D(12,13,14,21)       -177.9226         estimate D2E/DX2                !
 ! D67   D(20,13,14,8)         179.8972         estimate D2E/DX2                !
 ! D68   D(20,13,14,21)          0.9769         estimate D2E/DX2                !
 ! D69   D(3,22,31,32)         -88.6148         estimate D2E/DX2                !
 ! D70   D(3,22,31,33)          91.3771         estimate D2E/DX2                !
 ! D71   D(9,22,31,32)          91.4828         estimate D2E/DX2                !
 ! D72   D(9,22,31,33)         -88.5253         estimate D2E/DX2                !
 ! D73   D(7,23,24,26)        -179.0602         estimate D2E/DX2                !
 ! D74   D(7,23,24,51)          -3.2613         estimate D2E/DX2                !
 ! D75   D(25,23,24,26)          0.8221         estimate D2E/DX2                !
 ! D76   D(25,23,24,51)        176.6211         estimate D2E/DX2                !
 ! D77   D(7,23,25,27)        -178.4411         estimate D2E/DX2                !
 ! D78   D(7,23,25,30)          -2.4111         estimate D2E/DX2                !
 ! D79   D(24,23,25,27)          1.6767         estimate D2E/DX2                !
 ! D80   D(24,23,25,30)        177.7067         estimate D2E/DX2                !
 ! D81   D(23,24,26,28)         -3.0553         estimate D2E/DX2                !
 ! D82   D(23,24,26,46)        176.2331         estimate D2E/DX2                !
 ! D83   D(51,24,26,28)       -178.8056         estimate D2E/DX2                !
 ! D84   D(51,24,26,46)          0.4827         estimate D2E/DX2                !
 ! D85   D(23,25,27,28)         -2.0521         estimate D2E/DX2                !
 ! D86   D(23,25,27,29)        177.9738         estimate D2E/DX2                !
 ! D87   D(30,25,27,28)       -178.0393         estimate D2E/DX2                !
 ! D88   D(30,25,27,29)          1.9866         estimate D2E/DX2                !
 ! D89   D(24,26,28,27)          2.6692         estimate D2E/DX2                !
 ! D90   D(24,26,28,47)       -175.7722         estimate D2E/DX2                !
 ! D91   D(46,26,28,27)       -176.6327         estimate D2E/DX2                !
 ! D92   D(46,26,28,47)          4.9259         estimate D2E/DX2                !
 ! D93   D(25,27,28,26)         -0.0974         estimate D2E/DX2                !
 ! D94   D(25,27,28,47)        178.3424         estimate D2E/DX2                !
 ! D95   D(29,27,28,26)        179.8772         estimate D2E/DX2                !
 ! D96   D(29,27,28,47)         -1.683          estimate D2E/DX2                !
 ! D97   D(26,28,47,48)       -152.5101         estimate D2E/DX2                !
 ! D98   D(26,28,47,49)         87.9165         estimate D2E/DX2                !
 ! D99   D(26,28,47,50)        -31.5951         estimate D2E/DX2                !
 ! D100  D(27,28,47,48)         29.1153         estimate D2E/DX2                !
 ! D101  D(27,28,47,49)        -90.4581         estimate D2E/DX2                !
 ! D102  D(27,28,47,50)        150.0302         estimate D2E/DX2                !
 ! D103  D(22,31,32,34)        179.9924         estimate D2E/DX2                !
 ! D104  D(22,31,32,35)          0.0009         estimate D2E/DX2                !
 ! D105  D(33,31,32,34)          0.0005         estimate D2E/DX2                !
 ! D106  D(33,31,32,35)       -179.991          estimate D2E/DX2                !
 ! D107  D(22,31,33,36)       -179.9797         estimate D2E/DX2                !
 ! D108  D(22,31,33,37)          0.0268         estimate D2E/DX2                !
 ! D109  D(32,31,33,36)          0.0122         estimate D2E/DX2                !
 ! D110  D(32,31,33,37)       -179.9813         estimate D2E/DX2                !
 ! D111  D(31,32,34,38)         -0.0116         estimate D2E/DX2                !
 ! D112  D(31,32,34,39)        179.9881         estimate D2E/DX2                !
 ! D113  D(35,32,34,38)        179.9798         estimate D2E/DX2                !
 ! D114  D(35,32,34,39)         -0.0205         estimate D2E/DX2                !
 ! D115  D(31,33,36,38)         -0.0136         estimate D2E/DX2                !
 ! D116  D(31,33,36,40)        179.9915         estimate D2E/DX2                !
 ! D117  D(37,33,36,38)        179.9798         estimate D2E/DX2                !
 ! D118  D(37,33,36,40)         -0.0151         estimate D2E/DX2                !
 ! D119  D(32,34,38,36)          0.0101         estimate D2E/DX2                !
 ! D120  D(32,34,38,41)       -179.9934         estimate D2E/DX2                !
 ! D121  D(39,34,38,36)       -179.9896         estimate D2E/DX2                !
 ! D122  D(39,34,38,41)          0.007          estimate D2E/DX2                !
 ! D123  D(33,36,38,34)          0.0025         estimate D2E/DX2                !
 ! D124  D(33,36,38,41)       -179.9943         estimate D2E/DX2                !
 ! D125  D(40,36,38,34)        179.9975         estimate D2E/DX2                !
 ! D126  D(40,36,38,41)          0.0007         estimate D2E/DX2                !
 ! D127  D(34,38,41,42)          0.0021         estimate D2E/DX2                !
 ! D128  D(36,38,41,42)        179.9988         estimate D2E/DX2                !
 ! D129  D(38,41,42,43)        179.9988         estimate D2E/DX2                !
 ! D130  D(38,41,42,44)        -61.1231         estimate D2E/DX2                !
 ! D131  D(38,41,42,45)         61.121          estimate D2E/DX2                !
 --------------------------------------------------------------------------------
 Trust Radius=3.00D-01 FncErr=1.00D-07 GrdErr=1.00D-06
 Number of steps in this run=    287 maximum allowed number of steps=    306.
 GradGradGradGradGradGradGradGradGradGradGradGradGradGradGradGradGradGrad

 Leave Link  103 at Sat Feb 13 08:46:23 2021, MaxMem=  5242880000 cpu:         0.2
 (Enter /opt/nce/packages/global/g09/l202.exe)
 Symmetry turned off by external request.
 Stoichiometry    C26H19BF3NO
 Framework group  C1[X(C26H19BF3NO)]
 Deg. of freedom   147
 Full point group                 C1      NOp   1
                          Input orientation:                          
 ---------------------------------------------------------------------
 Center     Atomic      Atomic             Coordinates (Angstroms)
 Number     Number       Type             X           Y           Z
 ---------------------------------------------------------------------
      1          6           0        1.344283    3.635788   -0.027249
      2          6           0        2.006968    2.427166    0.068676
      3          6           0        1.276792    1.214836    0.055560
      4          6           0       -0.152476    1.245294   -0.011139
      5          6           0       -0.784528    2.513181   -0.173134
      6          6           0       -0.058659    3.683894   -0.171084
      7          6           0       -0.900332    0.022696    0.014431
      8          6           0       -0.171910   -1.210409    0.075851
      9          6           0        1.259169   -1.200496    0.075104
     10          6           0        1.971779   -2.422970    0.099982
     11          1           0        3.059211   -2.413295    0.074625
     12          6           0        1.288065   -3.621715    0.169104
     13          6           0       -0.120673   -3.649519    0.245968
     14          6           0       -0.829127   -2.468729    0.210365
     15          1           0        1.922367    4.562601   -0.017608
     16          1           0        3.091683    2.401903    0.146170
     17          1           0       -1.862806    2.539009   -0.317310
     18          1           0       -0.565136    4.642188   -0.297525
     19          1           0        1.852711   -4.556565    0.191212
     20          1           0       -0.646261   -4.600038    0.351272
     21          1           0       -1.913367   -2.478923    0.303055
     22          7           0        1.938299    0.002433    0.078473
     23          6           0       -2.351978    0.031341   -0.020448
     24          6           0       -3.061739   -0.761440   -0.959400
     25          6           0       -3.098750    0.833863    0.880815
     26          6           0       -4.447664   -0.729937   -0.995841
     27          6           0       -4.485223    0.807543    0.857375
     28          6           0       -5.201719    0.028522   -0.075571
     29          1           0       -5.055396    1.402189    1.575473
     30          1           0       -2.570688    1.421956    1.635680
     31          6           0        3.380424   -0.007806    0.108959
     32          6           0        4.100406    0.007526   -1.083224
     33          6           0        4.051162   -0.032963    1.337723
     34          6           0        5.497298   -0.002074   -1.062999
     35          1           0        3.566452    0.027261   -2.035292
     36          6           0        5.439136   -0.042393    1.367167
     37          1           0        3.477123   -0.045126    2.266209
     38          6           0        6.176705   -0.027073    0.167071
     39          1           0        6.041988    0.010019   -2.005956
     40          1           0        5.986410   -0.061780    2.310732
     41          8           0        7.516852   -0.037985    0.296366
     42          6           0        8.327477   -0.023867   -0.862049
     43          1           0        9.367525   -0.036478   -0.513084
     44          1           0        8.147756   -0.911400   -1.493471
     45          1           0        8.159458    0.886573   -1.463363
     46          1           0       -4.987455   -1.294359   -1.760354
     47          5           0       -6.846638   -0.024808   -0.066438
     48          9           0       -7.332250    1.192912    0.434406
     49          9           0       -7.236848   -1.085776    0.766847
     50          9           0       -7.293992   -0.245336   -1.378279
     51          1           0       -2.502802   -1.342605   -1.697361
 ---------------------------------------------------------------------
 Rotational constants (GHZ):      0.3582025      0.0563828      0.0507927
 Leave Link  202 at Sat Feb 13 08:46:23 2021, MaxMem=  5242880000 cpu:         0.1
 (Enter /opt/nce/packages/global/g09/l301.exe)
 Standard basis: def2TZVP (5D, 7F)
 Ernie: Thresh=  0.10000D-02 Tol=  0.10000D-05 Strict=F.
  1106 basis functions,  1784 primitive gaussians,  1266 cartesian basis functions
   111 alpha electrons      111 beta electrons
       nuclear repulsion energy      2924.6162976089 Hartrees.
 IExCor=  402 DFT=T Ex+Corr=B3LYP ExCW=0 ScaHFX=  0.200000
 ScaDFX=  0.800000  0.720000  1.000000  0.810000 ScalE2=  1.000000  1.000000
 IRadAn=      5 IRanWt=     -1 IRanGd=            0 ICorTp=0 IEmpDi=141
 NAtoms=   51 NActive=   51 NUniq=   51 SFac= 1.00D+00 NAtFMM=   60 NAOKFM=F Big=F
 Integral buffers will be    131072 words long.
 Raffenetti 2 integral format.
 Two-electron integral symmetry is turned off.
 R6Disp:  Grimme-D3(BJ) Dispersion energy=       -0.1289346738 Hartrees.
 Nuclear repulsion after empirical dispersion term =     2924.4873629351 Hartrees.
 ------------------------------------------------------------------------------
 Polarizable Continuum Model (PCM)
 =================================
 Model                : PCM (using non-symmetric T matrix).
 Atomic radii         : SMD-Coulomb.
 Polarization charges : Total charges.
 Charge compensation  : None.
 Solution method      : On-the-fly selection.
 Cavity type          : VdW (van der Waals Surface) (Alpha=1.000).
 Cavity algorithm     : GePol (No added spheres)
                        Default sphere list used, NSphG=   51.
                        Lebedev-Laikov grids with approx.  5.0 points / Ang**2.
                        Smoothing algorithm: York/Karplus (Gamma=1.0000).
                        Polarization charges: spherical gaussians, with
                                              point-specific exponents (IZeta= 3).
                        Self-potential: point-specific (ISelfS= 7).
                        Self-field    : sphere-specific E.n sum rule (ISelfD= 2).
 1st derivatives      : Analytical E(r).r(x)/FMM algorithm (CHGder, D1EAlg=3).
                        Cavity 1st derivative terms included.
 Solvent              : Acetonitrile, Eps=  35.688000 Eps(inf)=   1.806874
 ------------------------------------------------------------------------------
 GePol: Number of generator spheres                  =      51
 GePol: Total number of spheres                      =      51
 GePol: Number of exposed spheres                    =      51 (100.00%)
 GePol: Number of points                             =    3812
 GePol: Average weight of points                     =       0.11
 GePol: Minimum weight of points                     =   0.95D-10
 GePol: Maximum weight of points                     =    0.21559
 GePol: Number of points with low weight             =     210
 GePol: Fraction of low-weight points (<1% of avg)   =       5.51%
 GePol: Cavity surface area                          =    438.089 Ang**2
 GePol: Cavity volume                                =    430.393 Ang**3
 ------------------------------------------------------------------------------
 Atomic radii for non-electrostatic terms: SMD-CDS.
 ------------------------------------------------------------------------------
 PCM non-electrostatic energy =        -0.0068478852 Hartrees.
 Nuclear repulsion after PCM non-electrostatic terms =     2924.4805150499 Hartrees.
 Leave Link  301 at Sat Feb 13 08:46:23 2021, MaxMem=  5242880000 cpu:         3.9
 (Enter /opt/nce/packages/global/g09/l302.exe)
 NPDir=0 NMtPBC=     1 NCelOv=     1 NCel=       1 NClECP=     1 NCelD=      1
         NCelK=      1 NCelE2=     1 NClLst=     1 CellRange=     0.0.
 One-electron integrals computed using PRISM.
   1 Symmetry operations used in ECPInt.
 ECPInt:  NShTT=   91806 NPrTT=  285396 LenC2=   70283 LenP2D=  149035.
 LDataN:  DoStor=T MaxTD1= 6 Len=  172
 NBasis=  1106 RedAO= T EigKep=  5.42D-06  NBF=  1106
 NBsUse=  1106 1.00D-06 EigRej= -1.00D+00 NBFU=  1106
 Precomputing XC quadrature grid using
 IXCGrd= 4 IRadAn=           5 IRanWt=          -1 IRanGd=           0 AccXCQ= 0.00D+00.
 Generated NRdTot=       0 NPtTot=           0 NUsed=           0 NTot=          32
 NSgBfM=  1143  1143  1143  1143  1143 MxSgAt=    51 MxSgA2=    51.
 Leave Link  302 at Sat Feb 13 08:46:28 2021, MaxMem=  5242880000 cpu:        41.6
 (Enter /opt/nce/packages/global/g09/l303.exe)
 DipDrv:  MaxL=1.
 Leave Link  303 at Sat Feb 13 08:46:28 2021, MaxMem=  5242880000 cpu:         3.2
 (Enter /opt/nce/packages/global/g09/l401.exe)
 ExpMin= 6.06D-02 ExpMax= 3.55D+04 ExpMxC= 1.21D+03 IAcc=3 IRadAn=         5 AccDes= 0.00D+00
 Harris functional with IExCor=  402 and IRadAn=       5 diagonalized for initial guess.
 HarFok:  IExCor=  402 AccDes= 0.00D+00 IRadAn=         5 IDoV= 1 UseB2=F ITyADJ=14
 ICtDFT=  3500011 ScaDFX=  1.000000  1.000000  1.000000  1.000000
 FoFCou: FMM=F IPFlag=           0 FMFlag=      100000 FMFlg1=           0
         NFxFlg=           0 DoJE=T BraDBF=F KetDBF=T FulRan=T
         wScrn=  0.000000 ICntrl=     500 IOpCl=  0 I1Cent=   200000004 NGrid=           0
         NMat0=    1 NMatS0=      1 NMatT0=    0 NMatD0=    1 NMtDS0=    0 NMtDT0=    0
 Symmetry not used in FoFCou.
 Harris En= -1457.44504455816    
 JPrj=0 DoOrth=F DoCkMO=F.
 Leave Link  401 at Sat Feb 13 08:46:40 2021, MaxMem=  5242880000 cpu:       135.1
 (Enter /opt/nce/packages/global/g09/l502.exe)
 Closed shell SCF:
 Using DIIS extrapolation, IDIIS=  1040.
 Two-electron integral symmetry not used.
 IVT=     4849708 IEndB=     4849708 NGot=  5242880000 MDV=  5239650955
 LenX=  5239650955 LenY=  5238046933
 Requested convergence on RMS density matrix=1.00D-08 within 128 cycles.
 Requested convergence on MAX density matrix=1.00D-06.
 Requested convergence on             energy=1.00D-06.
 No special actions if energy rises.
 Fock matrices will be formed incrementally for  20 cycles.

 Cycle   1  Pass 1  IDiag  1:
 FoFJK:  IHMeth= 1 ICntrl=       0 DoSepK=F KAlg= 0 I1Cent=   0 FoldK=F
 IRaf= 650000000 NMat=   1 IRICut=       1 DoRegI=T DoRafI=F ISym2E= 0.
 FoFCou: FMM=F IPFlag=           0 FMFlag=      100000 FMFlg1=           0
         NFxFlg=           0 DoJE=F BraDBF=F KetDBF=F FulRan=T
         wScrn=  0.000000 ICntrl=       0 IOpCl=  0 I1Cent=           0 NGrid=           0
         NMat0=    1 NMatS0=      1 NMatT0=    0 NMatD0=    1 NMtDS0=    0 NMtDT0=    0
 Symmetry not used in FoFCou.
 Inv3:  Mode=1 IEnd=    43594032.
 Iteration    1 A*A^-1 deviation from unit magnitude is 7.55D-15 for   3810.
 Iteration    1 A*A^-1 deviation from orthogonality  is 2.55D-15 for   2580    859.
 Iteration    1 A^-1*A deviation from unit magnitude is 8.10D-15 for   3810.
 Iteration    1 A^-1*A deviation from orthogonality  is 1.49D-08 for   3014   2977.
 Iteration    2 A*A^-1 deviation from unit magnitude is 2.22D-15 for     76.
 Iteration    2 A*A^-1 deviation from orthogonality  is 4.00D-15 for   2977    312.
 Iteration    2 A^-1*A deviation from unit magnitude is 8.88D-16 for   3120.
 Iteration    2 A^-1*A deviation from orthogonality  is 3.51D-16 for   1890    214.
 E= -1456.80234386395    
 DIIS: error= 2.17D-02 at cycle   1 NSaved=   1.
 NSaved= 1 IEnMin= 1 EnMin= -1456.80234386395     IErMin= 1 ErrMin= 2.17D-02
 ErrMax= 2.17D-02  0.00D+00 EMaxC= 1.00D-01 BMatC= 7.47D-01 BMatP= 7.47D-01
 IDIUse=3 WtCom= 7.83D-01 WtEn= 2.17D-01
 Coeff-Com:  0.100D+01
 Coeff-En:   0.100D+01
 Coeff:      0.100D+01
 Gap=     0.122 Goal=   None    Shift=    0.000
 GapD=    0.122 DampG=1.000 DampE=0.500 DampFc=0.5000 IDamp=-1.
 Damping current iteration by 5.00D-01
 RMSDP=2.86D-03 MaxDP=4.11D-01              OVMax= 3.16D-01

 Cycle   2  Pass 1  IDiag  1:
 RMSU=  1.43D-03    CP:  1.00D+00
 E= -1457.05890241672     Delta-E=       -0.256558552768 Rises=F Damp=T
 DIIS: error= 6.77D-03 at cycle   2 NSaved=   2.
 NSaved= 2 IEnMin= 2 EnMin= -1457.05890241672     IErMin= 2 ErrMin= 6.77D-03
 ErrMax= 6.77D-03  0.00D+00 EMaxC= 1.00D-01 BMatC= 7.67D-02 BMatP= 7.47D-01
 IDIUse=3 WtCom= 9.32D-01 WtEn= 6.77D-02
 Coeff-Com:  0.982D-01 0.902D+00
 Coeff-En:   0.190D+00 0.810D+00
 Coeff:      0.104D+00 0.896D+00
 Gap=     0.174 Goal=   None    Shift=    0.000
 RMSDP=8.49D-04 MaxDP=1.03D-01 DE=-2.57D-01 OVMax= 3.93D-01

 Cycle   3  Pass 1  IDiag  1:
 RMSU=  6.78D-04    CP:  9.76D-01  6.58D-01
 E= -1457.37959065276     Delta-E=       -0.320688236043 Rises=F Damp=F
 DIIS: error= 9.29D-03 at cycle   3 NSaved=   3.
 NSaved= 3 IEnMin= 3 EnMin= -1457.37959065276     IErMin= 2 ErrMin= 6.77D-03
 ErrMax= 9.29D-03  0.00D+00 EMaxC= 1.00D-01 BMatC= 8.15D-02 BMatP= 7.67D-02
 IDIUse=3 WtCom= 9.07D-01 WtEn= 9.29D-02
 Coeff-Com: -0.225D-01 0.515D+00 0.508D+00
 Coeff-En:   0.000D+00 0.000D+00 0.100D+01
 Coeff:     -0.204D-01 0.467D+00 0.553D+00
 Gap=     0.124 Goal=   None    Shift=    0.000
 RMSDP=3.39D-04 MaxDP=5.23D-02 DE=-3.21D-01 OVMax= 1.52D-01

 Cycle   4  Pass 1  IDiag  1:
 RMSU=  3.06D-04    CP:  9.80D-01  6.77D-01  7.93D-01
 E= -1457.44204101036     Delta-E=       -0.062450357597 Rises=F Damp=F
 DIIS: error= 5.05D-03 at cycle   4 NSaved=   4.
 NSaved= 4 IEnMin= 4 EnMin= -1457.44204101036     IErMin= 4 ErrMin= 5.05D-03
 ErrMax= 5.05D-03  0.00D+00 EMaxC= 1.00D-01 BMatC= 2.18D-02 BMatP= 7.67D-02
 IDIUse=3 WtCom= 9.49D-01 WtEn= 5.05D-02
 Coeff-Com: -0.217D-01 0.167D+00 0.365D+00 0.489D+00
 Coeff-En:   0.000D+00 0.000D+00 0.241D+00 0.759D+00
 Coeff:     -0.206D-01 0.159D+00 0.359D+00 0.502D+00
 Gap=     0.113 Goal=   None    Shift=    0.000
 RMSDP=1.31D-04 MaxDP=2.14D-02 DE=-6.25D-02 OVMax= 7.01D-02

 Cycle   5  Pass 1  IDiag  1:
 RMSU=  8.31D-05    CP:  9.80D-01  6.66D-01  8.21D-01  6.78D-01
 E= -1457.46217939265     Delta-E=       -0.020138382295 Rises=F Damp=F
 DIIS: error= 1.06D-03 at cycle   5 NSaved=   5.
 NSaved= 5 IEnMin= 5 EnMin= -1457.46217939265     IErMin= 5 ErrMin= 1.06D-03
 ErrMax= 1.06D-03  0.00D+00 EMaxC= 1.00D-01 BMatC= 1.54D-03 BMatP= 2.18D-02
 IDIUse=3 WtCom= 9.89D-01 WtEn= 1.06D-02
 Coeff-Com: -0.925D-02 0.275D-01 0.144D+00 0.291D+00 0.547D+00
 Coeff-En:   0.000D+00 0.000D+00 0.000D+00 0.000D+00 0.100D+01
 Coeff:     -0.915D-02 0.272D-01 0.142D+00 0.288D+00 0.552D+00
 Gap=     0.116 Goal=   None    Shift=    0.000
 RMSDP=6.22D-05 MaxDP=9.86D-03 DE=-2.01D-02 OVMax= 1.49D-02

 Cycle   6  Pass 1  IDiag  1:
 RMSU=  3.42D-05    CP:  9.80D-01  6.83D-01  8.37D-01  6.71D-01  4.61D-01
 E= -1457.46348213437     Delta-E=       -0.001302741719 Rises=F Damp=F
 DIIS: error= 4.94D-04 at cycle   6 NSaved=   6.
 NSaved= 6 IEnMin= 6 EnMin= -1457.46348213437     IErMin= 6 ErrMin= 4.94D-04
 ErrMax= 4.94D-04  0.00D+00 EMaxC= 1.00D-01 BMatC= 1.87D-04 BMatP= 1.54D-03
 IDIUse=3 WtCom= 9.95D-01 WtEn= 4.94D-03
 Coeff-Com: -0.318D-02 0.281D-02 0.480D-01 0.113D+00 0.327D+00 0.512D+00
 Coeff-En:   0.000D+00 0.000D+00 0.000D+00 0.000D+00 0.116D+00 0.884D+00
 Coeff:     -0.317D-02 0.280D-02 0.478D-01 0.112D+00 0.326D+00 0.514D+00
 Gap=     0.116 Goal=   None    Shift=    0.000
 RMSDP=1.81D-05 MaxDP=2.09D-03 DE=-1.30D-03 OVMax= 5.58D-03

 Cycle   7  Pass 1  IDiag  1:
 RMSU=  9.38D-06    CP:  9.80D-01  6.79D-01  8.37D-01  6.76D-01  5.78D-01
                    CP:  6.91D-01
 E= -1457.46367741386     Delta-E=       -0.000195279491 Rises=F Damp=F
 DIIS: error= 1.14D-04 at cycle   7 NSaved=   7.
 NSaved= 7 IEnMin= 7 EnMin= -1457.46367741386     IErMin= 7 ErrMin= 1.14D-04
 ErrMax= 1.14D-04  0.00D+00 EMaxC= 1.00D-01 BMatC= 1.93D-05 BMatP= 1.87D-04
 IDIUse=3 WtCom= 9.99D-01 WtEn= 1.14D-03
 Coeff-Com: -0.665D-03-0.120D-02 0.101D-01 0.288D-01 0.128D+00 0.300D+00
 Coeff-Com:  0.535D+00
 Coeff-En:   0.000D+00 0.000D+00 0.000D+00 0.000D+00 0.000D+00 0.174D-01
 Coeff-En:   0.983D+00
 Coeff:     -0.664D-03-0.120D-02 0.101D-01 0.288D-01 0.128D+00 0.300D+00
 Coeff:      0.535D+00
 Gap=     0.116 Goal=   None    Shift=    0.000
 RMSDP=4.26D-06 MaxDP=2.72D-04 DE=-1.95D-04 OVMax= 1.17D-03

 Cycle   8  Pass 1  IDiag  1:
 RMSU=  3.55D-06    CP:  9.80D-01  6.79D-01  8.37D-01  6.78D-01  5.77D-01
                    CP:  7.07D-01  7.68D-01
 E= -1457.46369472668     Delta-E=       -0.000017312819 Rises=F Damp=F
 DIIS: error= 2.01D-05 at cycle   8 NSaved=   8.
 NSaved= 8 IEnMin= 8 EnMin= -1457.46369472668     IErMin= 8 ErrMin= 2.01D-05
 ErrMax= 2.01D-05  0.00D+00 EMaxC= 1.00D-01 BMatC= 7.76D-07 BMatP= 1.93D-05
 IDIUse=1 WtCom= 1.00D+00 WtEn= 0.00D+00
 Coeff-Com:  0.528D-04-0.765D-03-0.459D-03 0.586D-03 0.237D-01 0.758D-01
 Coeff-Com:  0.218D+00 0.684D+00
 Coeff:      0.528D-04-0.765D-03-0.459D-03 0.586D-03 0.237D-01 0.758D-01
 Coeff:      0.218D+00 0.684D+00
 Gap=     0.116 Goal=   None    Shift=    0.000
 RMSDP=1.57D-06 MaxDP=2.40D-04 DE=-1.73D-05 OVMax= 3.03D-04

 Cycle   9  Pass 1  IDiag  1:
 RMSU=  1.17D-06    CP:  9.80D-01  6.79D-01  8.38D-01  6.79D-01  5.77D-01
                    CP:  7.20D-01  8.25D-01  8.70D-01
 E= -1457.46369529351     Delta-E=       -0.000000566827 Rises=F Damp=F
 DIIS: error= 1.11D-05 at cycle   9 NSaved=   9.
 NSaved= 9 IEnMin= 9 EnMin= -1457.46369529351     IErMin= 9 ErrMin= 1.11D-05
 ErrMax= 1.11D-05  0.00D+00 EMaxC= 1.00D-01 BMatC= 1.93D-07 BMatP= 7.76D-07
 IDIUse=1 WtCom= 1.00D+00 WtEn= 0.00D+00
 Coeff-Com:  0.798D-04-0.331D-03-0.960D-03-0.191D-02 0.442D-02 0.210D-01
 Coeff-Com:  0.817D-01 0.396D+00 0.500D+00
 Coeff:      0.798D-04-0.331D-03-0.960D-03-0.191D-02 0.442D-02 0.210D-01
 Coeff:      0.817D-01 0.396D+00 0.500D+00
 Gap=     0.116 Goal=   None    Shift=    0.000
 RMSDP=6.51D-07 MaxDP=1.17D-04 DE=-5.67D-07 OVMax= 1.43D-04

 Cycle  10  Pass 1  IDiag  1:
 RMSU=  3.76D-07    CP:  9.80D-01  6.79D-01  8.38D-01  6.79D-01  5.79D-01
                    CP:  7.19D-01  8.23D-01  9.12D-01  7.17D-01
 E= -1457.46369549263     Delta-E=       -0.000000199122 Rises=F Damp=F
 DIIS: error= 2.30D-06 at cycle  10 NSaved=  10.
 NSaved=10 IEnMin=10 EnMin= -1457.46369549263     IErMin=10 ErrMin= 2.30D-06
 ErrMax= 2.30D-06  0.00D+00 EMaxC= 1.00D-01 BMatC= 1.01D-08 BMatP= 1.93D-07
 IDIUse=1 WtCom= 1.00D+00 WtEn= 0.00D+00
 Coeff-Com:  0.274D-04-0.602D-04-0.369D-03-0.102D-02-0.397D-03 0.150D-02
 Coeff-Com:  0.130D-01 0.102D+00 0.228D+00 0.658D+00
 Coeff:      0.274D-04-0.602D-04-0.369D-03-0.102D-02-0.397D-03 0.150D-02
 Coeff:      0.130D-01 0.102D+00 0.228D+00 0.658D+00
 Gap=     0.116 Goal=   None    Shift=    0.000
 RMSDP=1.76D-07 MaxDP=2.73D-05 DE=-1.99D-07 OVMax= 2.86D-05

 Cycle  11  Pass 1  IDiag  1:
 RMSU=  9.86D-08    CP:  9.80D-01  6.79D-01  8.38D-01  6.79D-01  5.79D-01
                    CP:  7.20D-01  8.29D-01  9.22D-01  7.71D-01  8.59D-01
 E= -1457.46369550153     Delta-E=       -0.000000008904 Rises=F Damp=F
 DIIS: error= 8.23D-07 at cycle  11 NSaved=  11.
 NSaved=11 IEnMin=11 EnMin= -1457.46369550153     IErMin=11 ErrMin= 8.23D-07
 ErrMax= 8.23D-07  0.00D+00 EMaxC= 1.00D-01 BMatC= 1.66D-09 BMatP= 1.01D-08
 IDIUse=1 WtCom= 1.00D+00 WtEn= 0.00D+00
 Coeff-Com:  0.443D-05 0.112D-04-0.876D-04-0.354D-03-0.846D-03-0.217D-02
 Coeff-Com: -0.424D-02 0.158D-02 0.613D-01 0.354D+00 0.591D+00
 Coeff:      0.443D-05 0.112D-04-0.876D-04-0.354D-03-0.846D-03-0.217D-02
 Coeff:     -0.424D-02 0.158D-02 0.613D-01 0.354D+00 0.591D+00
 Gap=     0.116 Goal=   None    Shift=    0.000
 RMSDP=6.51D-08 MaxDP=9.58D-06 DE=-8.90D-09 OVMax= 1.05D-05

 Cycle  12  Pass 1  IDiag  1:
 RMSU=  4.23D-08    CP:  9.80D-01  6.79D-01  8.38D-01  6.79D-01  5.79D-01
                    CP:  7.20D-01  8.29D-01  9.28D-01  7.71D-01  9.34D-01
                    CP:  8.30D-01
 E= -1457.46369550308     Delta-E=       -0.000000001543 Rises=F Damp=F
 DIIS: error= 2.60D-07 at cycle  12 NSaved=  12.
 NSaved=12 IEnMin=12 EnMin= -1457.46369550308     IErMin=12 ErrMin= 2.60D-07
 ErrMax= 2.60D-07  0.00D+00 EMaxC= 1.00D-01 BMatC= 1.12D-10 BMatP= 1.66D-09
 IDIUse=1 WtCom= 1.00D+00 WtEn= 0.00D+00
 Coeff-Com: -0.193D-05 0.119D-04 0.286D-05-0.466D-04-0.297D-03-0.117D-02
 Coeff-Com: -0.334D-02-0.106D-01 0.416D-02 0.855D-01 0.253D+00 0.673D+00
 Coeff:     -0.193D-05 0.119D-04 0.286D-05-0.466D-04-0.297D-03-0.117D-02
 Coeff:     -0.334D-02-0.106D-01 0.416D-02 0.855D-01 0.253D+00 0.673D+00
 Gap=     0.116 Goal=   None    Shift=    0.000
 RMSDP=3.32D-08 MaxDP=7.13D-06 DE=-1.54D-09 OVMax= 3.65D-06

 Cycle  13  Pass 1  IDiag  1:
 RMSU=  1.60D-08    CP:  9.80D-01  6.79D-01  8.38D-01  6.79D-01  5.79D-01
                    CP:  7.20D-01  8.30D-01  9.28D-01  7.84D-01  9.34D-01
                    CP:  8.72D-01  7.72D-01
 E= -1457.46369550318     Delta-E=       -0.000000000107 Rises=F Damp=F
 DIIS: error= 1.18D-07 at cycle  13 NSaved=  13.
 NSaved=13 IEnMin=13 EnMin= -1457.46369550318     IErMin=13 ErrMin= 1.18D-07
 ErrMax= 1.18D-07  0.00D+00 EMaxC= 1.00D-01 BMatC= 2.37D-11 BMatP= 1.12D-10
 IDIUse=1 WtCom= 1.00D+00 WtEn= 0.00D+00
 Coeff-Com: -0.140D-05 0.509D-05 0.857D-05 0.731D-05-0.663D-04-0.405D-03
 Coeff-Com: -0.129D-02-0.551D-02-0.293D-02 0.105D-01 0.735D-01 0.379D+00
 Coeff-Com:  0.548D+00
 Coeff:     -0.140D-05 0.509D-05 0.857D-05 0.731D-05-0.663D-04-0.405D-03
 Coeff:     -0.129D-02-0.551D-02-0.293D-02 0.105D-01 0.735D-01 0.379D+00
 Coeff:      0.548D+00
 Gap=     0.116 Goal=   None    Shift=    0.000
 RMSDP=1.26D-08 MaxDP=2.78D-06 DE=-1.07D-10 OVMax= 1.05D-06

 Cycle  14  Pass 1  IDiag  1:
 RMSU=  3.70D-09    CP:  9.80D-01  6.79D-01  8.38D-01  6.79D-01  5.79D-01
                    CP:  7.20D-01  8.30D-01  9.28D-01  7.82D-01  9.42D-01
                    CP:  8.85D-01  8.55D-01  6.89D-01
 E= -1457.46369550320     Delta-E=       -0.000000000014 Rises=F Damp=F
 DIIS: error= 3.34D-08 at cycle  14 NSaved=  14.
 NSaved=14 IEnMin=14 EnMin= -1457.46369550320     IErMin=14 ErrMin= 3.34D-08
 ErrMax= 3.34D-08  0.00D+00 EMaxC= 1.00D-01 BMatC= 1.50D-12 BMatP= 2.37D-11
 IDIUse=1 WtCom= 1.00D+00 WtEn= 0.00D+00
 Coeff-Com: -0.532D-06 0.153D-05 0.414D-05 0.795D-05-0.883D-05-0.115D-03
 Coeff-Com: -0.387D-03-0.201D-02-0.189D-02-0.303D-02 0.125D-01 0.132D+00
 Coeff-Com:  0.269D+00 0.594D+00
 Coeff:     -0.532D-06 0.153D-05 0.414D-05 0.795D-05-0.883D-05-0.115D-03
 Coeff:     -0.387D-03-0.201D-02-0.189D-02-0.303D-02 0.125D-01 0.132D+00
 Coeff:      0.269D+00 0.594D+00
 Gap=     0.116 Goal=   None    Shift=    0.000
 RMSDP=1.97D-09 MaxDP=3.17D-07 DE=-1.36D-11 OVMax= 2.45D-07

 Error on total polarization charges =  0.06174
 SCF Done:  E(RB3LYP) =  -1457.46369550     A.U. after   14 cycles
            NFock= 14  Conv=0.20D-08     -V/T= 2.0054
 KE= 1.449651868966D+03 PE=-9.250392301417D+03 EE= 3.418796221899D+03
 SMD-CDS (non-electrostatic) energy       (kcal/mol) =      -4.30
 (included in total energy above)
 Leave Link  502 at Sat Feb 13 09:17:52 2021, MaxMem=  5242880000 cpu:     22432.0
 (Enter /opt/nce/packages/global/g09/l601.exe)
 Copying SCF densities to generalized density rwf, IOpCl= 0 IROHF=0.

 **********************************************************************

            Population analysis using the SCF density.

 **********************************************************************

 Alpha  occ. eigenvalues --  -24.62319 -24.62318 -24.62313 -19.16596 -14.41354
 Alpha  occ. eigenvalues --  -10.25933 -10.25930 -10.24889 -10.24391 -10.22428
 Alpha  occ. eigenvalues --  -10.21974 -10.21973 -10.21889 -10.20071 -10.20071
 Alpha  occ. eigenvalues --  -10.19711 -10.19710 -10.19634 -10.19464 -10.19463
 Alpha  occ. eigenvalues --  -10.19330 -10.19287 -10.19008 -10.19007 -10.18484
 Alpha  occ. eigenvalues --  -10.18391 -10.18296 -10.18289 -10.16939 -10.16938
 Alpha  occ. eigenvalues --  -10.15018  -6.79203  -1.17194  -1.13166  -1.13084
 Alpha  occ. eigenvalues --   -1.08059  -1.02321  -0.89524  -0.88255  -0.86494
 Alpha  occ. eigenvalues --   -0.85319  -0.82386  -0.78701  -0.77692  -0.77084
 Alpha  occ. eigenvalues --   -0.76347  -0.75042  -0.74544  -0.74149  -0.70352
 Alpha  occ. eigenvalues --   -0.68225  -0.66180  -0.64930  -0.62825  -0.61714
 Alpha  occ. eigenvalues --   -0.60627  -0.60429  -0.58465  -0.56895  -0.56575
 Alpha  occ. eigenvalues --   -0.55321  -0.53648  -0.53480  -0.51940  -0.50913
 Alpha  occ. eigenvalues --   -0.49888  -0.48568  -0.48256  -0.47908  -0.47801
 Alpha  occ. eigenvalues --   -0.47608  -0.47242  -0.45868  -0.45548  -0.45487
 Alpha  occ. eigenvalues --   -0.44948  -0.44791  -0.44739  -0.43811  -0.43565
 Alpha  occ. eigenvalues --   -0.43399  -0.41917  -0.41697  -0.41067  -0.39929
 Alpha  occ. eigenvalues --   -0.39635  -0.39477  -0.39137  -0.39035  -0.38979
 Alpha  occ. eigenvalues --   -0.38013  -0.37551  -0.37127  -0.36782  -0.36618
 Alpha  occ. eigenvalues --   -0.35833  -0.35457  -0.35192  -0.35082  -0.33680
 Alpha  occ. eigenvalues --   -0.33460  -0.33299  -0.32330  -0.28682  -0.27914
 Alpha  occ. eigenvalues --   -0.27397  -0.27001  -0.25836  -0.25477  -0.23813
 Alpha  occ. eigenvalues --   -0.23413
 Alpha virt. eigenvalues --   -0.11807  -0.04938  -0.03518  -0.03156  -0.02055
 Alpha virt. eigenvalues --   -0.01769  -0.00983  -0.00186   0.02990   0.04324
 Alpha virt. eigenvalues --    0.05087   0.05201   0.06115   0.06281   0.07025
 Alpha virt. eigenvalues --    0.07512   0.07948   0.08080   0.08704   0.09163
 Alpha virt. eigenvalues --    0.09250   0.09643   0.10071   0.10817   0.10921
 Alpha virt. eigenvalues --    0.11425   0.11650   0.11838   0.11933   0.12089
 Alpha virt. eigenvalues --    0.12533   0.12726   0.12989   0.13399   0.14002
 Alpha virt. eigenvalues --    0.14196   0.14937   0.15387   0.16072   0.16498
 Alpha virt. eigenvalues --    0.17077   0.17410   0.18088   0.18288   0.18805
 Alpha virt. eigenvalues --    0.19055   0.19968   0.20244   0.20390   0.20700
 Alpha virt. eigenvalues --    0.21404   0.21647   0.21744   0.22060   0.22153
 Alpha virt. eigenvalues --    0.22336   0.22674   0.22780   0.23153   0.23615
 Alpha virt. eigenvalues --    0.23831   0.24098   0.24693   0.24726   0.25442
 Alpha virt. eigenvalues --    0.25543   0.26066   0.26242   0.26617   0.27203
 Alpha virt. eigenvalues --    0.27600   0.28003   0.28331   0.28391   0.28850
 Alpha virt. eigenvalues --    0.29056   0.29217   0.29673   0.29904   0.30460
 Alpha virt. eigenvalues --    0.30562   0.30844   0.31555   0.31813   0.31938
 Alpha virt. eigenvalues --    0.32433   0.32984   0.33339   0.33555   0.34062
 Alpha virt. eigenvalues --    0.34228   0.34534   0.34896   0.35264   0.35549
 Alpha virt. eigenvalues --    0.35788   0.36076   0.36591   0.36671   0.36947
 Alpha virt. eigenvalues --    0.37176   0.37296   0.37636   0.38385   0.38806
 Alpha virt. eigenvalues --    0.39623   0.39851   0.40036   0.40286   0.40573
 Alpha virt. eigenvalues --    0.40814   0.41168   0.41501   0.41598   0.42052
 Alpha virt. eigenvalues --    0.42233   0.42600   0.42741   0.42852   0.43272
 Alpha virt. eigenvalues --    0.43619   0.44136   0.44236   0.44429   0.44561
 Alpha virt. eigenvalues --    0.44893   0.45021   0.45340   0.45976   0.46226
 Alpha virt. eigenvalues --    0.46238   0.47042   0.47393   0.47922   0.48034
 Alpha virt. eigenvalues --    0.48203   0.48583   0.48823   0.49159   0.49613
 Alpha virt. eigenvalues --    0.49880   0.49939   0.50305   0.50455   0.50926
 Alpha virt. eigenvalues --    0.51365   0.52401   0.53409   0.53686   0.54465
 Alpha virt. eigenvalues --    0.54982   0.55528   0.55821   0.56439   0.57238
 Alpha virt. eigenvalues --    0.57927   0.58216   0.58779   0.59541   0.59790
 Alpha virt. eigenvalues --    0.59987   0.60314   0.60927   0.61308   0.61743
 Alpha virt. eigenvalues --    0.61866   0.62481   0.62575   0.63370   0.63547
 Alpha virt. eigenvalues --    0.64145   0.64391   0.64840   0.65168   0.65587
 Alpha virt. eigenvalues --    0.65763   0.66004   0.66372   0.66669   0.66769
 Alpha virt. eigenvalues --    0.66989   0.67491   0.67857   0.68298   0.68420
 Alpha virt. eigenvalues --    0.68601   0.69203   0.69419   0.69529   0.70035
 Alpha virt. eigenvalues --    0.70263   0.70856   0.71025   0.71139   0.71640
 Alpha virt. eigenvalues --    0.71926   0.72803   0.72943   0.73396   0.73654
 Alpha virt. eigenvalues --    0.73789   0.73975   0.74425   0.74778   0.75049
 Alpha virt. eigenvalues --    0.75626   0.76317   0.76744   0.76972   0.77288
 Alpha virt. eigenvalues --    0.77485   0.78183   0.78721   0.78888   0.79400
 Alpha virt. eigenvalues --    0.80013   0.80574   0.80690   0.81453   0.81569
 Alpha virt. eigenvalues --    0.82066   0.82429   0.82732   0.83541   0.84549
 Alpha virt. eigenvalues --    0.84653   0.84803   0.85395   0.86126   0.86528
 Alpha virt. eigenvalues --    0.86665   0.87152   0.87450   0.88311   0.89081
 Alpha virt. eigenvalues --    0.89215   0.89672   0.89942   0.90484   0.91022
 Alpha virt. eigenvalues --    0.92033   0.92515   0.93061   0.93462   0.94351
 Alpha virt. eigenvalues --    0.94630   0.95467   0.96149   0.96435   0.96527
 Alpha virt. eigenvalues --    0.97886   0.98062   0.99140   0.99666   0.99903
 Alpha virt. eigenvalues --    1.00159   1.01655   1.02281   1.03423   1.03908
 Alpha virt. eigenvalues --    1.04066   1.04703   1.05277   1.06228   1.06785
 Alpha virt. eigenvalues --    1.07214   1.07418   1.07542   1.07960   1.08416
 Alpha virt. eigenvalues --    1.08838   1.09858   1.10376   1.10938   1.11206
 Alpha virt. eigenvalues --    1.12718   1.13165   1.13888   1.14133   1.14453
 Alpha virt. eigenvalues --    1.14740   1.16352   1.17351   1.17511   1.18070
 Alpha virt. eigenvalues --    1.19036   1.19108   1.20294   1.20740   1.21065
 Alpha virt. eigenvalues --    1.21780   1.22321   1.22809   1.22901   1.23077
 Alpha virt. eigenvalues --    1.23780   1.24176   1.24330   1.25095   1.25939
 Alpha virt. eigenvalues --    1.26332   1.27440   1.27805   1.28120   1.28398
 Alpha virt. eigenvalues --    1.28689   1.29060   1.29783   1.30192   1.30321
 Alpha virt. eigenvalues --    1.31008   1.31690   1.32578   1.33189   1.34067
 Alpha virt. eigenvalues --    1.34228   1.34434   1.35577   1.36395   1.37288
 Alpha virt. eigenvalues --    1.37821   1.38416   1.39783   1.40442   1.40930
 Alpha virt. eigenvalues --    1.41533   1.41895   1.42593   1.42962   1.43198
 Alpha virt. eigenvalues --    1.43620   1.44470   1.46285   1.47118   1.47158
 Alpha virt. eigenvalues --    1.47507   1.48218   1.48620   1.49438   1.49684
 Alpha virt. eigenvalues --    1.49763   1.50663   1.50894   1.51111   1.52010
 Alpha virt. eigenvalues --    1.52449   1.52778   1.52973   1.53328   1.53964
 Alpha virt. eigenvalues --    1.54077   1.54878   1.55145   1.55396   1.56552
 Alpha virt. eigenvalues --    1.56748   1.57378   1.58052   1.58624   1.58776
 Alpha virt. eigenvalues --    1.59564   1.59772   1.60265   1.60469   1.61284
 Alpha virt. eigenvalues --    1.61397   1.61642   1.63520   1.63789   1.63978
 Alpha virt. eigenvalues --    1.64474   1.64877   1.65955   1.66089   1.66445
 Alpha virt. eigenvalues --    1.66732   1.67663   1.67866   1.68526   1.69143
 Alpha virt. eigenvalues --    1.69716   1.70482   1.70705   1.71768   1.72070
 Alpha virt. eigenvalues --    1.72765   1.73253   1.73742   1.74325   1.74508
 Alpha virt. eigenvalues --    1.74738   1.75182   1.76293   1.76541   1.76924
 Alpha virt. eigenvalues --    1.77272   1.78010   1.78330   1.79913   1.80889
 Alpha virt. eigenvalues --    1.81218   1.81900   1.83100   1.84054   1.84151
 Alpha virt. eigenvalues --    1.84957   1.85132   1.86240   1.86770   1.87180
 Alpha virt. eigenvalues --    1.87635   1.88413   1.88531   1.88998   1.89505
 Alpha virt. eigenvalues --    1.89874   1.90319   1.91539   1.92620   1.93734
 Alpha virt. eigenvalues --    1.94439   1.94743   1.94801   1.95629   1.96644
 Alpha virt. eigenvalues --    1.97409   1.98209   1.98483   1.99402   1.99899
 Alpha virt. eigenvalues --    2.00263   2.00980   2.01641   2.03478   2.04071
 Alpha virt. eigenvalues --    2.05082   2.05341   2.06039   2.06503   2.06898
 Alpha virt. eigenvalues --    2.07470   2.07761   2.08453   2.10093   2.10340
 Alpha virt. eigenvalues --    2.10612   2.10831   2.12512   2.12731   2.12959
 Alpha virt. eigenvalues --    2.13544   2.14478   2.14605   2.15118   2.15907
 Alpha virt. eigenvalues --    2.16456   2.16889   2.17530   2.18050   2.18904
 Alpha virt. eigenvalues --    2.19787   2.20908   2.21213   2.21940   2.22013
 Alpha virt. eigenvalues --    2.22481   2.22695   2.24552   2.24893   2.25204
 Alpha virt. eigenvalues --    2.25551   2.25687   2.26851   2.27550   2.27829
 Alpha virt. eigenvalues --    2.28704   2.29155   2.30210   2.31140   2.32159
 Alpha virt. eigenvalues --    2.33123   2.33342   2.34178   2.35201   2.35344
 Alpha virt. eigenvalues --    2.37326   2.37719   2.38124   2.38926   2.39566
 Alpha virt. eigenvalues --    2.40471   2.41195   2.42046   2.43303   2.43554
 Alpha virt. eigenvalues --    2.44677   2.46273   2.47052   2.47406   2.47829
 Alpha virt. eigenvalues --    2.48956   2.49352   2.50312   2.51228   2.52855
 Alpha virt. eigenvalues --    2.53062   2.53445   2.53834   2.54410   2.55001
 Alpha virt. eigenvalues --    2.55209   2.55740   2.56125   2.57221   2.57945
 Alpha virt. eigenvalues --    2.58805   2.59206   2.59357   2.59652   2.60323
 Alpha virt. eigenvalues --    2.60893   2.61374   2.61789   2.61888   2.62591
 Alpha virt. eigenvalues --    2.62852   2.63163   2.64463   2.65022   2.65555
 Alpha virt. eigenvalues --    2.65837   2.66479   2.66740   2.67013   2.67280
 Alpha virt. eigenvalues --    2.67796   2.68427   2.69033   2.69077   2.69506
 Alpha virt. eigenvalues --    2.69692   2.69780   2.70516   2.70987   2.71139
 Alpha virt. eigenvalues --    2.71838   2.72147   2.72726   2.72814   2.73539
 Alpha virt. eigenvalues --    2.73695   2.74628   2.74851   2.75314   2.75705
 Alpha virt. eigenvalues --    2.76189   2.76380   2.77894   2.78258   2.78363
 Alpha virt. eigenvalues --    2.78666   2.78958   2.79619   2.80188   2.80839
 Alpha virt. eigenvalues --    2.81211   2.81431   2.81998   2.82437   2.82834
 Alpha virt. eigenvalues --    2.83213   2.83466   2.83676   2.83943   2.84152
 Alpha virt. eigenvalues --    2.84820   2.86095   2.86516   2.86885   2.87629
 Alpha virt. eigenvalues --    2.88077   2.88179   2.88526   2.89038   2.89679
 Alpha virt. eigenvalues --    2.89931   2.90444   2.91165   2.91440   2.92123
 Alpha virt. eigenvalues --    2.92434   2.92782   2.93949   2.94135   2.95078
 Alpha virt. eigenvalues --    2.95657   2.96213   2.96619   2.97237   2.97838
 Alpha virt. eigenvalues --    2.98188   2.98628   2.99294   2.99631   2.99917
 Alpha virt. eigenvalues --    3.00879   3.02184   3.02546   3.03574   3.03917
 Alpha virt. eigenvalues --    3.04253   3.04422   3.04959   3.05307   3.06005
 Alpha virt. eigenvalues --    3.06469   3.06798   3.07637   3.08276   3.08372
 Alpha virt. eigenvalues --    3.09182   3.09938   3.10165   3.10476   3.11060
 Alpha virt. eigenvalues --    3.11524   3.11946   3.12533   3.13337   3.13554
 Alpha virt. eigenvalues --    3.14248   3.14792   3.15161   3.15540   3.15865
 Alpha virt. eigenvalues --    3.16085   3.17297   3.17819   3.17966   3.18167
 Alpha virt. eigenvalues --    3.18620   3.19190   3.19639   3.20122   3.20284
 Alpha virt. eigenvalues --    3.21023   3.22138   3.22412   3.22590   3.23060
 Alpha virt. eigenvalues --    3.23868   3.24265   3.24812   3.25560   3.25966
 Alpha virt. eigenvalues --    3.27246   3.27931   3.28326   3.28628   3.28945
 Alpha virt. eigenvalues --    3.29677   3.29969   3.30831   3.31007   3.31473
 Alpha virt. eigenvalues --    3.31520   3.32156   3.32419   3.33093   3.33261
 Alpha virt. eigenvalues --    3.33839   3.33992   3.34615   3.35015   3.35599
 Alpha virt. eigenvalues --    3.35647   3.36263   3.37110   3.37221   3.37545
 Alpha virt. eigenvalues --    3.37722   3.38270   3.38530   3.39050   3.39985
 Alpha virt. eigenvalues --    3.40283   3.40669   3.41656   3.42100   3.42456
 Alpha virt. eigenvalues --    3.42568   3.42800   3.43389   3.43792   3.44486
 Alpha virt. eigenvalues --    3.45473   3.45587   3.45895   3.46287   3.46629
 Alpha virt. eigenvalues --    3.47122   3.47371   3.48217   3.48362   3.48655
 Alpha virt. eigenvalues --    3.49085   3.49536   3.50342   3.50912   3.51207
 Alpha virt. eigenvalues --    3.51874   3.52177   3.52406   3.52997   3.53270
 Alpha virt. eigenvalues --    3.53626   3.53815   3.53891   3.54876   3.55425
 Alpha virt. eigenvalues --    3.55691   3.56357   3.56525   3.56688   3.57724
 Alpha virt. eigenvalues --    3.58043   3.58482   3.59268   3.59669   3.60007
 Alpha virt. eigenvalues --    3.60639   3.60895   3.61433   3.64461   3.64561
 Alpha virt. eigenvalues --    3.65206   3.66133   3.66215   3.67189   3.68099
 Alpha virt. eigenvalues --    3.69322   3.69619   3.70392   3.71104   3.72454
 Alpha virt. eigenvalues --    3.74083   3.74702   3.75631   3.75895   3.76864
 Alpha virt. eigenvalues --    3.77439   3.78115   3.79979   3.80659   3.82271
 Alpha virt. eigenvalues --    3.82795   3.83683   3.84818   3.85588   3.87214
 Alpha virt. eigenvalues --    3.87584   3.88288   3.89622   3.89899   3.90208
 Alpha virt. eigenvalues --    3.90933   3.94885   3.94988   3.95483   3.95736
 Alpha virt. eigenvalues --    3.96307   3.96854   3.97580   3.98790   3.99282
 Alpha virt. eigenvalues --    3.99668   4.00422   4.02785   4.03021   4.04708
 Alpha virt. eigenvalues --    4.05143   4.05557   4.05868   4.06467   4.06975
 Alpha virt. eigenvalues --    4.07475   4.08276   4.08548   4.10160   4.11454
 Alpha virt. eigenvalues --    4.12386   4.12761   4.12995   4.13705   4.14143
 Alpha virt. eigenvalues --    4.14634   4.16184   4.16535   4.16992   4.17196
 Alpha virt. eigenvalues --    4.17908   4.18916   4.20479   4.20833   4.21014
 Alpha virt. eigenvalues --    4.21348   4.21738   4.22348   4.22482   4.23093
 Alpha virt. eigenvalues --    4.23451   4.24639   4.24907   4.25639   4.26368
 Alpha virt. eigenvalues --    4.27605   4.27767   4.28780   4.29173   4.30301
 Alpha virt. eigenvalues --    4.31041   4.32608   4.33554   4.34051   4.34405
 Alpha virt. eigenvalues --    4.35088   4.35750   4.36265   4.38149   4.39155
 Alpha virt. eigenvalues --    4.39838   4.40446   4.41748   4.42433   4.44871
 Alpha virt. eigenvalues --    4.46899   4.47291   4.49266   4.50293   4.50563
 Alpha virt. eigenvalues --    4.51783   4.54254   4.55227   4.56491   4.57749
 Alpha virt. eigenvalues --    4.58396   4.60648   4.61250   4.62091   4.63044
 Alpha virt. eigenvalues --    4.64431   4.65442   4.67292   4.67981   4.70695
 Alpha virt. eigenvalues --    4.72426   4.73761   4.76276   4.77084   4.77720
 Alpha virt. eigenvalues --    4.78698   4.80889   4.82804   4.84376   4.84843
 Alpha virt. eigenvalues --    4.85430   4.87653   4.90203   4.90978   4.93544
 Alpha virt. eigenvalues --    4.95279   4.95943   4.96636   4.98671   4.99859
 Alpha virt. eigenvalues --    5.00960   5.02186   5.03764   5.03920   5.06808
 Alpha virt. eigenvalues --    5.09630   5.11111   5.12700   5.16071   5.17774
 Alpha virt. eigenvalues --    5.17957   5.22067   5.23181   5.23996   5.26353
 Alpha virt. eigenvalues --    5.26452   5.27465   5.32422   5.33673   5.34965
 Alpha virt. eigenvalues --    5.35167   5.38323   5.41015   5.46958   5.47279
 Alpha virt. eigenvalues --    5.49136   5.50701   5.52742   5.53048   5.54601
 Alpha virt. eigenvalues --    5.57770   5.62343   5.67865   5.70266   5.75096
 Alpha virt. eigenvalues --    5.77002   5.77974   5.79520   5.81878   5.92142
 Alpha virt. eigenvalues --    6.00040   6.01043   6.08842   6.22419   6.35521
 Alpha virt. eigenvalues --    6.41196   6.54189   6.62372   6.77100   6.85377
 Alpha virt. eigenvalues --    6.87074   6.90124   6.90334   6.90460   6.90836
 Alpha virt. eigenvalues --    6.90870   6.91232   6.91773   6.92138   7.01182
 Alpha virt. eigenvalues --    7.05337   7.06502   7.07961   7.09135   7.09644
 Alpha virt. eigenvalues --    7.16224   7.25165   7.27149   7.27503   7.30085
 Alpha virt. eigenvalues --    7.39829   7.40256   7.40844   8.34193   8.37858
 Alpha virt. eigenvalues --    8.37986   8.50862   8.51317   8.56123   8.82531
 Alpha virt. eigenvalues --    8.82737   8.85430   8.85450   8.89628   8.89812
 Alpha virt. eigenvalues --    8.90681   8.95270   8.97004  15.66191  22.19147
 Alpha virt. eigenvalues --   22.31821  22.33547  22.40857  22.43485  22.59738
 Alpha virt. eigenvalues --   22.60422  22.62023  22.62802  22.63830  22.65892
 Alpha virt. eigenvalues --   22.69319  22.70702  22.74181  22.74735  22.81110
 Alpha virt. eigenvalues --   22.86663  22.88717  22.90757  22.96314  23.04988
 Alpha virt. eigenvalues --   23.11372  23.25568  23.29931  23.34877  23.66584
 Alpha virt. eigenvalues --   33.29602  44.20331  57.02734  57.10789  57.16101
          Condensed to atoms (all electrons):
 Mulliken charges:
               1
     1  C   -0.121184
     2  C   -0.174253
     3  C    0.105773
     4  C    0.101013
     5  C   -0.235038
     6  C   -0.144553
     7  C    0.251528
     8  C    0.099486
     9  C    0.105363
    10  C   -0.174470
    11  H    0.183101
    12  C   -0.121077
    13  C   -0.144411
    14  C   -0.233421
    15  H    0.166144
    16  H    0.183141
    17  H    0.196850
    18  H    0.161484
    19  H    0.166134
    20  H    0.161503
    21  H    0.196395
    22  N    0.162319
    23  C    0.072826
    24  C   -0.282056
    25  C   -0.279527
    26  C   -0.219463
    27  C   -0.222306
    28  C    0.002020
    29  H    0.134029
    30  H    0.167424
    31  C    0.023790
    32  C   -0.212935
    33  C   -0.194067
    34  C   -0.227142
    35  H    0.157718
    36  C   -0.183581
    37  H    0.153394
    38  C    0.339024
    39  H    0.164735
    40  H    0.143351
    41  O   -0.276816
    42  C   -0.214956
    43  H    0.154819
    44  H    0.141434
    45  H    0.141433
    46  H    0.134651
    47  B    0.602393
    48  F   -0.427980
    49  F   -0.422348
    50  F   -0.427482
    51  H    0.165794
 Sum of Mulliken charges =  -0.00000
 Mulliken charges with hydrogens summed into heavy atoms:
               1
     1  C    0.044960
     2  C    0.008889
     3  C    0.105773
     4  C    0.101013
     5  C   -0.038188
     6  C    0.016931
     7  C    0.251528
     8  C    0.099486
     9  C    0.105363
    10  C    0.008631
    12  C    0.045056
    13  C    0.017091
    14  C   -0.037026
    22  N    0.162319
    23  C    0.072826
    24  C   -0.116263
    25  C   -0.112103
    26  C   -0.084812
    27  C   -0.088277
    28  C    0.002020
    31  C    0.023790
    32  C   -0.055217
    33  C   -0.040673
    34  C   -0.062408
    36  C   -0.040231
    38  C    0.339024
    41  O   -0.276816
    42  C    0.222729
    47  B    0.602393
    48  F   -0.427980
    49  F   -0.422348
    50  F   -0.427482
 Electronic spatial extent (au):  <R**2>=          19288.4526
 Charge=             -0.0000 electrons
 Dipole moment (field-independent basis, Debye):
[...]
 Alpha virt. eigenvalues --    0.57541   0.58608   0.59137   0.59677   0.59937
 Alpha virt. eigenvalues --    0.60057   0.60606   0.61326   0.61688   0.61821
 Alpha virt. eigenvalues --    0.62176   0.62699   0.62989   0.63881   0.64367
 Alpha virt. eigenvalues --    0.64400   0.64899   0.65165   0.65517   0.65679
 Alpha virt. eigenvalues --    0.65952   0.66377   0.66392   0.66768   0.66847
 Alpha virt. eigenvalues --    0.67179   0.67670   0.68198   0.68547   0.68855
 Alpha virt. eigenvalues --    0.69051   0.69270   0.69976   0.70094   0.70354
 Alpha virt. eigenvalues --    0.70857   0.71274   0.71492   0.71940   0.72226
 Alpha virt. eigenvalues --    0.72531   0.72758   0.73579   0.73741   0.73946
 Alpha virt. eigenvalues --    0.74325   0.74771   0.74893   0.75136   0.75552
 Alpha virt. eigenvalues --    0.75800   0.76611   0.76714   0.76960   0.77317
 Alpha virt. eigenvalues --    0.77687   0.78457   0.79034   0.79443   0.79924
 Alpha virt. eigenvalues --    0.80397   0.80733   0.81276   0.81543   0.82164
 Alpha virt. eigenvalues --    0.82429   0.82886   0.83142   0.83917   0.84410
 Alpha virt. eigenvalues --    0.84510   0.85224   0.85543   0.86237   0.86546
 Alpha virt. eigenvalues --    0.87222   0.87324   0.87960   0.88412   0.89043
 Alpha virt. eigenvalues --    0.89135   0.89716   0.89960   0.90770   0.91238
 Alpha virt. eigenvalues --    0.92100   0.92936   0.93509   0.94064   0.94572
 Alpha virt. eigenvalues --    0.94725   0.96091   0.96232   0.96365   0.97258
 Alpha virt. eigenvalues --    0.98181   0.98228   0.99171   0.99761   1.00207
 Alpha virt. eigenvalues --    1.01031   1.02263   1.02689   1.03829   1.04393
 Alpha virt. eigenvalues --    1.04898   1.05313   1.06097   1.06633   1.06867
 Alpha virt. eigenvalues --    1.07572   1.07625   1.07857   1.07925   1.08793
 Alpha virt. eigenvalues --    1.09162   1.10139   1.10815   1.10972   1.11855
 Alpha virt. eigenvalues --    1.12546   1.13243   1.14052   1.14914   1.14988
 Alpha virt. eigenvalues --    1.15554   1.16545   1.16937   1.17542   1.17930
 Alpha virt. eigenvalues --    1.19010   1.20022   1.20814   1.21163   1.21732
 Alpha virt. eigenvalues --    1.22411   1.23013   1.23260   1.23510   1.23767
 Alpha virt. eigenvalues --    1.24331   1.24502   1.24875   1.25193   1.26437
 Alpha virt. eigenvalues --    1.26537   1.27948   1.27982   1.28223   1.28544
 Alpha virt. eigenvalues --    1.28811   1.30086   1.30264   1.30889   1.31192
 Alpha virt. eigenvalues --    1.31349   1.32546   1.33356   1.33693   1.34247
 Alpha virt. eigenvalues --    1.35534   1.35640   1.36218   1.37120   1.37708
 Alpha virt. eigenvalues --    1.38548   1.39350   1.40140   1.40431   1.41306
 Alpha virt. eigenvalues --    1.41897   1.42243   1.42865   1.43369   1.43505
 Alpha virt. eigenvalues --    1.44179   1.44852   1.46217   1.47241   1.47918
 Alpha virt. eigenvalues --    1.48515   1.48981   1.49127   1.50131   1.50436
 Alpha virt. eigenvalues --    1.50841   1.50996   1.51603   1.51710   1.52551
 Alpha virt. eigenvalues --    1.52631   1.53306   1.53755   1.53932   1.54726
 Alpha virt. eigenvalues --    1.55011   1.55742   1.55902   1.56465   1.56768
 Alpha virt. eigenvalues --    1.57000   1.57684   1.58276   1.58594   1.58987
 Alpha virt. eigenvalues --    1.59302   1.59768   1.60076   1.60718   1.61131
 Alpha virt. eigenvalues --    1.62074   1.62645   1.63671   1.63987   1.64318
 Alpha virt. eigenvalues --    1.64743   1.65366   1.65612   1.65847   1.66408
 Alpha virt. eigenvalues --    1.66951   1.67650   1.68314   1.69315   1.69794
 Alpha virt. eigenvalues --    1.70031   1.70327   1.70999   1.72023   1.72231
 Alpha virt. eigenvalues --    1.72893   1.73255   1.73723   1.74533   1.74938
 Alpha virt. eigenvalues --    1.75368   1.75640   1.76434   1.76804   1.77407
 Alpha virt. eigenvalues --    1.77428   1.77987   1.79021   1.79843   1.80688
 Alpha virt. eigenvalues --    1.81299   1.82198   1.82775   1.83957   1.84915
 Alpha virt. eigenvalues --    1.85492   1.85695   1.86831   1.87374   1.88116
 Alpha virt. eigenvalues --    1.88403   1.88505   1.88933   1.89537   1.89789
 Alpha virt. eigenvalues --    1.90359   1.91570   1.92421   1.93362   1.94199
 Alpha virt. eigenvalues --    1.94489   1.94800   1.95129   1.96209   1.96958
 Alpha virt. eigenvalues --    1.98235   1.99078   1.99115   2.00264   2.00910
 Alpha virt. eigenvalues --    2.01627   2.02853   2.03213   2.04518   2.04856
 Alpha virt. eigenvalues --    2.05513   2.05765   2.06124   2.06809   2.07565
 Alpha virt. eigenvalues --    2.07743   2.08525   2.09278   2.10361   2.10600
 Alpha virt. eigenvalues --    2.11091   2.11654   2.11963   2.12946   2.13379
 Alpha virt. eigenvalues --    2.13722   2.14414   2.15550   2.15822   2.16527
 Alpha virt. eigenvalues --    2.17126   2.17507   2.17952   2.18861   2.20865
 Alpha virt. eigenvalues --    2.21365   2.21578   2.21909   2.22362   2.23043
 Alpha virt. eigenvalues --    2.23441   2.24651   2.25124   2.25167   2.26812
 Alpha virt. eigenvalues --    2.27083   2.27486   2.27966   2.28379   2.28880
 Alpha virt. eigenvalues --    2.29856   2.29980   2.30469   2.31525   2.32344
 Alpha virt. eigenvalues --    2.33512   2.34371   2.35014   2.35921   2.36494
 Alpha virt. eigenvalues --    2.37070   2.38159   2.38384   2.39668   2.40184
 Alpha virt. eigenvalues --    2.41162   2.42558   2.42703   2.43271   2.43903
 Alpha virt. eigenvalues --    2.45775   2.47378   2.47419   2.48194   2.49242
 Alpha virt. eigenvalues --    2.49530   2.50101   2.51985   2.52104   2.53412
 Alpha virt. eigenvalues --    2.53753   2.54025   2.54558   2.54893   2.55882
 Alpha virt. eigenvalues --    2.56293   2.56355   2.57443   2.57756   2.59079
 Alpha virt. eigenvalues --    2.59171   2.59956   2.60220   2.60745   2.60951
 Alpha virt. eigenvalues --    2.61052   2.61705   2.62113   2.62833   2.63083
 Alpha virt. eigenvalues --    2.64092   2.64628   2.65420   2.65800   2.65911
 Alpha virt. eigenvalues --    2.66329   2.66664   2.66949   2.67302   2.67977
 Alpha virt. eigenvalues --    2.68782   2.69480   2.69618   2.70031   2.70384
 Alpha virt. eigenvalues --    2.70745   2.71111   2.71254   2.71532   2.71645
 Alpha virt. eigenvalues --    2.72158   2.72646   2.72927   2.73501   2.74109
 Alpha virt. eigenvalues --    2.74682   2.75334   2.75795   2.76111   2.76196
 Alpha virt. eigenvalues --    2.76781   2.77080   2.77630   2.78377   2.78616
 Alpha virt. eigenvalues --    2.79593   2.79688   2.79697   2.80549   2.81163
 Alpha virt. eigenvalues --    2.81617   2.82013   2.82607   2.82867   2.83404
 Alpha virt. eigenvalues --    2.83728   2.83946   2.84386   2.84972   2.85270
 Alpha virt. eigenvalues --    2.85788   2.86721   2.87128   2.87705   2.88179
 Alpha virt. eigenvalues --    2.88694   2.88880   2.89472   2.89602   2.90413
 Alpha virt. eigenvalues --    2.91147   2.91537   2.91773   2.92132   2.93303
 Alpha virt. eigenvalues --    2.93409   2.93497   2.94425   2.94771   2.95474
 Alpha virt. eigenvalues --    2.95943   2.96287   2.96754   2.97216   2.98005
 Alpha virt. eigenvalues --    2.98357   2.98771   2.99907   3.00430   3.01172
 Alpha virt. eigenvalues --    3.01269   3.02645   3.03197   3.03621   3.04139
 Alpha virt. eigenvalues --    3.04355   3.05006   3.05684   3.06433   3.06676
 Alpha virt. eigenvalues --    3.07046   3.07874   3.08298   3.08505   3.09133
 Alpha virt. eigenvalues --    3.09668   3.10597   3.11037   3.11546   3.12111
 Alpha virt. eigenvalues --    3.12261   3.12503   3.12816   3.13729   3.13982
 Alpha virt. eigenvalues --    3.14346   3.14603   3.15395   3.15771   3.16157
 Alpha virt. eigenvalues --    3.16645   3.17710   3.18432   3.18578   3.18877
 Alpha virt. eigenvalues --    3.19490   3.19866   3.20381   3.20696   3.21065
 Alpha virt. eigenvalues --    3.22115   3.22566   3.23135   3.23931   3.24031
 Alpha virt. eigenvalues --    3.24837   3.24982   3.26052   3.26577   3.26688
 Alpha virt. eigenvalues --    3.27066   3.28040   3.28760   3.29276   3.29471
 Alpha virt. eigenvalues --    3.29586   3.30006   3.30532   3.31447   3.32244
 Alpha virt. eigenvalues --    3.32395   3.33252   3.33850   3.34065   3.34318
 Alpha virt. eigenvalues --    3.34453   3.34923   3.35497   3.36158   3.36331
 Alpha virt. eigenvalues --    3.36407   3.37371   3.37768   3.37930   3.38327
 Alpha virt. eigenvalues --    3.38675   3.38959   3.39452   3.40100   3.40478
 Alpha virt. eigenvalues --    3.41058   3.41431   3.42206   3.42675   3.42758
 Alpha virt. eigenvalues --    3.43335   3.44100   3.44301   3.44763   3.45358
 Alpha virt. eigenvalues --    3.45907   3.46240   3.46589   3.46905   3.47597
 Alpha virt. eigenvalues --    3.47818   3.48107   3.48770   3.48917   3.49783
 Alpha virt. eigenvalues --    3.49943   3.50364   3.51093   3.51415   3.52160
 Alpha virt. eigenvalues --    3.52475   3.53093   3.53325   3.53590   3.53657
 Alpha virt. eigenvalues --    3.54024   3.54555   3.54577   3.55029   3.55854
 Alpha virt. eigenvalues --    3.56106   3.57214   3.57779   3.58086   3.58208
 Alpha virt. eigenvalues --    3.58924   3.59145   3.59685   3.59734   3.60102
 Alpha virt. eigenvalues --    3.60760   3.62200   3.64101   3.64702   3.65250
 Alpha virt. eigenvalues --    3.65853   3.66292   3.66528   3.67918   3.68683
 Alpha virt. eigenvalues --    3.68907   3.69747   3.70824   3.72609   3.73244
 Alpha virt. eigenvalues --    3.74203   3.75311   3.76723   3.77061   3.78540
 Alpha virt. eigenvalues --    3.78704   3.79289   3.81053   3.81425   3.83481
 Alpha virt. eigenvalues --    3.84004   3.84358   3.84985   3.87301   3.87854
 Alpha virt. eigenvalues --    3.89054   3.89984   3.90339   3.91052   3.92281
 Alpha virt. eigenvalues --    3.92564   3.95487   3.96278   3.96682   3.97272
 Alpha virt. eigenvalues --    3.97663   3.98385   3.99148   4.00870   4.01298
 Alpha virt. eigenvalues --    4.01711   4.02412   4.03565   4.05068   4.05727
 Alpha virt. eigenvalues --    4.06174   4.06399   4.07010   4.07518   4.07854
 Alpha virt. eigenvalues --    4.08409   4.09741   4.10614   4.10957   4.12482
 Alpha virt. eigenvalues --    4.13702   4.14404   4.14920   4.15277   4.15899
 Alpha virt. eigenvalues --    4.16454   4.17618   4.18063   4.18836   4.19200
 Alpha virt. eigenvalues --    4.20160   4.21803   4.21922   4.22341   4.22691
 Alpha virt. eigenvalues --    4.22777   4.23026   4.23834   4.24485   4.24623
 Alpha virt. eigenvalues --    4.24919   4.26227   4.26579   4.28115   4.28598
 Alpha virt. eigenvalues --    4.28836   4.29166   4.30608   4.30912   4.31652
 Alpha virt. eigenvalues --    4.33115   4.33933   4.34031   4.34586   4.35239
 Alpha virt. eigenvalues --    4.35798   4.37918   4.39022   4.39610   4.41699
 Alpha virt. eigenvalues --    4.43303   4.43475   4.44373   4.45595   4.47353
 Alpha virt. eigenvalues --    4.47830   4.49464   4.51289   4.51703   4.52973
 Alpha virt. eigenvalues --    4.54268   4.56320   4.56695   4.59438   4.59644
 Alpha virt. eigenvalues --    4.60172   4.62163   4.63039   4.64018   4.64854
 Alpha virt. eigenvalues --    4.66540   4.67239   4.68574   4.69591   4.72539
 Alpha virt. eigenvalues --    4.73649   4.74777   4.78824   4.79629   4.79860
 Alpha virt. eigenvalues --    4.80239   4.82534   4.84023   4.86099   4.87145
 Alpha virt. eigenvalues --    4.87387   4.88782   4.92038   4.93523   4.94885
 Alpha virt. eigenvalues --    4.96126   4.97241   4.97845   4.99380   5.01655
 Alpha virt. eigenvalues --    5.02508   5.03389   5.04707   5.06403   5.09669
 Alpha virt. eigenvalues --    5.13884   5.14711   5.15109   5.18592   5.19938
 Alpha virt. eigenvalues --    5.21215   5.22972   5.26269   5.26716   5.27523
 Alpha virt. eigenvalues --    5.30168   5.31312   5.33713   5.33899   5.35101
 Alpha virt. eigenvalues --    5.38121   5.41518   5.44012   5.45720   5.46909
 Alpha virt. eigenvalues --    5.49898   5.53690   5.54871   5.55049   5.56533
 Alpha virt. eigenvalues --    5.60031   5.65589   5.70341   5.73085   5.73951
 Alpha virt. eigenvalues --    5.77868   5.79639   5.82001   5.85270   5.90132
 Alpha virt. eigenvalues --    5.99409   6.04447   6.09910   6.24781   6.35184
 Alpha virt. eigenvalues --    6.45457   6.53193   6.62573   6.77690   6.84613
 Alpha virt. eigenvalues --    6.87820   6.90574   6.90870   6.91027   6.91178
 Alpha virt. eigenvalues --    6.91215   6.91549   6.91734   6.92531   7.01179
 Alpha virt. eigenvalues --    7.02847   7.03826   7.08166   7.09401   7.09569
 Alpha virt. eigenvalues --    7.16039   7.23165   7.25898   7.26849   7.29449
 Alpha virt. eigenvalues --    7.38704   7.39544   7.41321   8.35425   8.37236
 Alpha virt. eigenvalues --    8.37492   8.51062   8.51193   8.57347   8.77512
 Alpha virt. eigenvalues --    8.79511   8.80116   8.84128   8.87491   8.90291
 Alpha virt. eigenvalues --    8.90815   8.96509   8.98141  15.53650  22.23560
 Alpha virt. eigenvalues --   22.31494  22.34718  22.42690  22.48517  22.63427
 Alpha virt. eigenvalues --   22.63795  22.66460  22.67189  22.69291  22.72036
 Alpha virt. eigenvalues --   22.72405  22.75771  22.78535  22.80764  22.84471
 Alpha virt. eigenvalues --   22.93100  22.93580  22.95688  23.01412  23.11499
 Alpha virt. eigenvalues --   23.19722  23.31791  23.34860  23.41376  23.74556
 Alpha virt. eigenvalues --   33.31427  44.19517  57.01329  57.08397  57.11093
          Condensed to atoms (all electrons):
 Mulliken charges:
               1
     1  C   -0.114287
     2  C   -0.172154
     3  C    0.101908
     4  C    0.112199
     5  C   -0.217445
     6  C   -0.138446
     7  C    0.256288
     8  C    0.111059
     9  C    0.102672
    10  C   -0.172255
    11  H    0.180861
    12  C   -0.114196
    13  C   -0.138240
    14  C   -0.216559
    15  H    0.165514
    16  H    0.181047
    17  H    0.186460
    18  H    0.160360
    19  H    0.165512
    20  H    0.160387
    21  H    0.186210
    22  N    0.176240
    23  C   -0.004016
    24  C   -0.236735
    25  C   -0.235784
    26  C   -0.228749
    27  C   -0.229677
    28  C    0.023462
    29  H    0.132362
    30  H    0.147619
    31  C    0.031554
    32  C   -0.216745
    33  C   -0.195079
    34  C   -0.221503
    35  H    0.156704
    36  C   -0.183639
    37  H    0.152510
    38  C    0.345121
    39  H    0.163356
    40  H    0.142173
    41  O   -0.284189
    42  C   -0.213204
    43  H    0.154604
    44  H    0.143588
    45  H    0.143571
    46  H    0.132339
    47  B    0.597487
    48  F   -0.443229
    49  F   -0.441463
    50  F   -0.442762
    51  H    0.147188
 Sum of Mulliken charges =  -0.00000
 Mulliken charges with hydrogens summed into heavy atoms:
               1
     1  C    0.051227
     2  C    0.008892
     3  C    0.101908
     4  C    0.112199
     5  C   -0.030985
     6  C    0.021914
     7  C    0.256288
     8  C    0.111059
     9  C    0.102672
    10  C    0.008606
    12  C    0.051316
    13  C    0.022147
    14  C   -0.030350
    22  N    0.176240
    23  C   -0.004016
    24  C   -0.089547
    25  C   -0.088165
    26  C   -0.096410
    27  C   -0.097315
    28  C    0.023462
    31  C    0.031554
    32  C   -0.060041
    33  C   -0.042569
    34  C   -0.058147
    36  C   -0.041466
    38  C    0.345121
    41  O   -0.284189
    42  C    0.228559
    47  B    0.597487
    48  F   -0.443229
    49  F   -0.441463
    50  F   -0.442762
 Electronic spatial extent (au):  <R**2>=          19200.8080
 Charge=             -0.0000 electrons
 Dipole moment (field-independent basis, Debye):
    X=            -39.1628    Y=              0.1536    Z=              1.0995  Tot=             39.1785
 Quadrupole moment (field-independent basis, Debye-Ang):
   XX=           -352.0459   YY=           -154.5085   ZZ=           -178.9657
   XY=              0.8874   XZ=            -15.8059   YZ=             -1.8082
 Traceless Quadrupole moment (field-independent basis, Debye-Ang):
   XX=           -123.5392   YY=             73.9982   ZZ=             49.5409
   XY=              0.8874   XZ=            -15.8059   YZ=             -1.8082
 Octapole moment (field-independent basis, Debye-Ang**2):
  XXX=          -2006.8725  YYY=              1.0998  ZZZ=             -4.0411  XYY=            -35.0522
  XXY=              6.4601  XXZ=             93.3616  XZZ=            -41.2128  YZZ=             -1.1696
  YYZ=              2.8112  XYZ=            -10.8344
 Hexadecapole moment (field-independent basis, Debye-Ang**3):
 XXXX=         -29808.8563 YYYY=          -2573.8467 ZZZZ=           -754.8183 XXXY=             37.6827
 XXXZ=          -1039.3903 YYYX=              2.4679 YYYZ=             34.6786 ZZZX=            -28.4418
 ZZZY=            -22.5961 XXYY=          -4188.6906 XXZZ=          -3560.1537 YYZZ=           -738.2275
 XXYZ=            -48.3443 YYXZ=             22.2611 ZZXY=             -5.0084
 N-N= 2.933537790607D+03 E-N=-9.268778958160D+03  KE= 1.450366714997D+03
 Leave Link  601 at Sun Feb 14 00:47:15 2021, MaxMem=  5242880000 cpu:         6.3
 (Enter /opt/nce/packages/global/g09/l9999.exe)
 1\1\GINC-CN005\SP\RB3LYP TD-FC\Gen\C26H19B1F3N1O1\PNG4RJV\14-Feb-2021\
 0\\#p b3lyp chkbasis geom=allcheck Guess=Read int=ultrafine scrf=(SMD,
 solvent=Acetonitrile) td=(NStates=30) EmpiricalDispersion=GD3BJ\\Title
 \\0,1\C,0,1.3341852294,3.6031662115,-0.1440307195\C,0,2.0038132954,2.4
 130538203,-0.035622555\C,0,1.2821301526,1.2020568585,0.0049027803\C,0,
 -0.1449704197,1.2256761019,-0.0434869886\C,0,-0.7914073596,2.485162103
 6,-0.1834706248\C,0,-0.0732327864,3.6446054125,-0.2302527483\C,0,-0.86
 53002393,0.017025665,0.021271077\C,0,-0.1606858414,-1.1988299186,0.117
 0912863\C,0,1.2673196235,-1.1894374594,0.1293380849\C,0,1.9745075722,-
 2.4074207093,0.2026874105\H,0,3.0525088881,-2.4040917295,0.1972494326\
 C,0,1.2891053585,-3.590657439,0.2840554902\C,0,-0.1210612395,-3.618049
 261,0.3095905439\C,0,-0.8250427962,-2.4516726476,0.2305831506\H,0,1.89
 93216907,4.5254595523,-0.1744192954\H,0,3.0804446702,2.3993709297,0.01
 63542011\H,0,-1.8672198419,2.5081442022,-0.2601584378\H,0,-0.578025961
 9,4.5947962314,-0.3388635418\H,0,1.843194977,-4.5184111448,0.340545762
 \H,0,-0.6394580931,-4.563016387,0.3976627005\H,0,-1.9033266189,-2.4641
 670112,0.2610273906\N,0,1.9376388296,0.0028745153,0.080204275\C,0,-2.3
 427147811,0.0234378788,-0.0113958253\C,0,-3.030011076,-0.5454168199,-1
 .0856636726\C,0,-3.074239031,0.5990419002,1.0296233003\C,0,-4.41813893
 1,-0.5247502324,-1.1147072842\C,0,-4.4624240518,0.5899466736,0.9941980
 64\C,0,-5.1722380101,0.0347338489,-0.0767600845\H,0,-5.0048224462,1.03
 44482863,1.8206294628\H,0,-2.5520743239,1.0414032972,1.8687448762\C,0,
 3.3850214551,-0.0036200556,0.1115727949\C,0,4.0934190035,-0.048380799,
 -1.0750798117\C,0,4.041859662,0.0379853873,1.3350257384\C,0,5.48329362
 25,-0.0513556088,-1.0532362589\H,0,3.5637889039,-0.0800382199,-2.01805
 35725\C,0,5.4235487158,0.0351243247,1.3650023729\H,0,3.4709285425,0.07
 2480051,2.2533672616\C,0,6.153928146,-0.0089820343,0.1713361395\H,0,6.
 0263452931,-0.0861723305,-1.985283999\H,0,5.9560605361,0.067236313,2.3
 061118839\O,0,7.4994714444,-0.0071524129,0.3005294322\C,0,8.2972655868
 ,-0.040540084,-0.8842229444\H,0,9.3303884832,-0.0291250717,-0.54562766
 04\H,0,8.111305138,-0.9509500209,-1.4582189082\H,0,8.108276489,0.83464
 22872,-1.5098121668\H,0,-4.9250530341,-0.9565686053,-1.969820322\B,0,-
 6.7888089546,0.0001270422,-0.0925588257\F,0,-7.3453340595,1.105484058,
 0.6111603166\F,0,-7.2798072434,-1.1901989633,0.5292579848\F,0,-7.30155
 30567,0.0252093731,-1.4203934338\H,0,-2.4730391117,-0.9888583595,-1.90
 14915323\\Version=ES64L-G09RevE.01\State=1-A\HF=-1457.4719893\RMSD=7.5
 15e-09\PG=C01 [X(C26H19B1F3N1O1)]\\@


 The chemist is a guest at the physicist's table and
 frequently dines well.
                   -- Richard Bersohn
 Job cpu time:       1 days 23 hours  7 minutes 44.4 seconds.
 File lengths (MBytes):  RWF=   6139 Int=      0 D2E=      0 Chk=   1099 Scr=      1
 Normal termination of Gaussian 09 at Sun Feb 14 00:47:16 2021.
