
                                 *****************
                                 * O   R   C   A *
                                 *****************

                                            #,                                       
                                            ###                                      
                                            ####                                     
                                            #####                                    
                                            ######                                   
                                           ########,                                 
                                     ,,################,,,,,                         
                               ,,#################################,,                 
                          ,,##########################################,,             
                       ,#########################################, ''#####,          
                    ,#############################################,,   '####,        
                  ,##################################################,,,,####,       
                ,###########''''           ''''###############################       
              ,#####''   ,,,,##########,,,,          '''####'''          '####       
            ,##' ,,,,###########################,,,                        '##       
           ' ,,###''''                  '''############,,,                           
         ,,##''                                '''############,,,,        ,,,,,,###''
      ,#''                                            '''#######################'''  
     '                                                          ''''####''''         
             ,#######,   #######,   ,#######,      ##                                
            ,#'     '#,  ##    ##  ,#'     '#,    #''#        ######   ,####,        
            ##       ##  ##   ,#'  ##            #'  '#       #        #'  '#        
            ##       ##  #######   ##           ,######,      #####,   #    #        
            '#,     ,#'  ##    ##  '#,     ,#' ,#      #,         ##   #,  ,#        
             '#######'   ##     ##  '#######'  #'      '#     #####' # '####'        



                  #######################################################
                  #                        -***-                        #
                  #          Department of theory and spectroscopy      #
                  #    Directorship and core code : Frank Neese         #
                  #        Max Planck Institute fuer Kohlenforschung    #
                  #                Kaiser Wilhelm Platz 1               #
                  #                 D-45470 Muelheim/Ruhr               #
                  #                      Germany                        #
                  #                                                     #
                  #                  All rights reserved                #
                  #                        -***-                        #
                  #######################################################


                         Program Version 5.0.2 -  RELEASE  -


 With contributions from (in alphabetic order):
   Daniel Aravena         : Magnetic Suceptibility
   Michael Atanasov       : Ab Initio Ligand Field Theory (pilot matlab implementation)
   Alexander A. Auer      : GIAO ZORA, VPT2 properties, NMR spectrum
   Ute Becker             : Parallelization
   Giovanni Bistoni       : ED, misc. LED, open-shell LED, HFLD
   Martin Brehm           : Molecular dynamics
   Dmytro Bykov           : SCF Hessian
   Vijay G. Chilkuri      : MRCI spin determinant printing, contributions to CSF-ICE
   Dipayan Datta          : RHF DLPNO-CCSD density
   Achintya Kumar Dutta   : EOM-CC, STEOM-CC
   Dmitry Ganyushin       : Spin-Orbit,Spin-Spin,Magnetic field MRCI
   Miquel Garcia          : C-PCM and meta-GGA Hessian, CC/C-PCM, Gaussian charge scheme
   Yang Guo               : DLPNO-NEVPT2, F12-NEVPT2, CIM, IAO-localization
   Andreas Hansen         : Spin unrestricted coupled pair/coupled cluster methods
   Benjamin Helmich-Paris : MC-RPA, TRAH-SCF, COSX integrals
   Lee Huntington         : MR-EOM, pCC
   Robert Izsak           : Overlap fitted RIJCOSX, COSX-SCS-MP3, EOM
   Marcus Kettner         : VPT2
   Christian Kollmar      : KDIIS, OOCD, Brueckner-CCSD(T), CCSD density, CASPT2, CASPT2-K
   Simone Kossmann        : Meta GGA functionals, TD-DFT gradient, OOMP2, MP2 Hessian
   Martin Krupicka        : Initial AUTO-CI
   Lucas Lang             : DCDCAS
   Marvin Lechner         : AUTO-CI (C++ implementation), FIC-MRCC
   Dagmar Lenk            : GEPOL surface, SMD
   Dimitrios Liakos       : Extrapolation schemes; Compound Job, initial MDCI parallelization
   Dimitrios Manganas     : Further ROCIS development; embedding schemes
   Dimitrios Pantazis     : SARC Basis sets
   Anastasios Papadopoulos: AUTO-CI, single reference methods and gradients
   Taras Petrenko         : DFT Hessian,TD-DFT gradient, ASA, ECA, R-Raman, ABS, FL, XAS/XES, NRVS
   Peter Pinski           : DLPNO-MP2, DLPNO-MP2 Gradient
   Christoph Reimann      : Effective Core Potentials
   Marius Retegan         : Local ZFS, SOC
   Christoph Riplinger    : Optimizer, TS searches, QM/MM, DLPNO-CCSD(T), (RO)-DLPNO pert. Triples
   Tobias Risthaus        : Range-separated hybrids, TD-DFT gradient, RPA, STAB
   Michael Roemelt        : Original ROCIS implementation
   Masaaki Saitow         : Open-shell DLPNO-CCSD energy and density
   Barbara Sandhoefer     : DKH picture change effects
   Avijit Sen             : IP-ROCIS
   Kantharuban Sivalingam : CASSCF convergence, NEVPT2, FIC-MRCI
   Bernardo de Souza      : ESD, SOC TD-DFT
   Georgi Stoychev        : AutoAux, RI-MP2 NMR, DLPNO-MP2 response
   Willem Van den Heuvel  : Paramagnetic NMR
   Boris Wezisla          : Elementary symmetry handling
   Frank Wennmohs         : Technical directorship


 We gratefully acknowledge several colleagues who have allowed us to
 interface, adapt or use parts of their codes:
   Stefan Grimme, W. Hujo, H. Kruse, P. Pracht,  : VdW corrections, initial TS optimization,
                  C. Bannwarth, S. Ehlert          DFT functionals, gCP, sTDA/sTD-DF
   Ed Valeev, F. Pavosevic, A. Kumar             : LibInt (2-el integral package), F12 methods
   Garnet Chan, S. Sharma, J. Yang, R. Olivares  : DMRG
   Ulf Ekstrom                                   : XCFun DFT Library
   Mihaly Kallay                                 : mrcc  (arbitrary order and MRCC methods)
   Jiri Pittner, Ondrej Demel                    : Mk-CCSD
   Frank Weinhold                                : gennbo (NPA and NBO analysis)
   Christopher J. Cramer and Donald G. Truhlar   : smd solvation model
   Lars Goerigk                                  : TD-DFT with DH, B97 family of functionals
   V. Asgeirsson, H. Jonsson                     : NEB implementation
   FAccTs GmbH                                   : IRC, NEB, NEB-TS, DLPNO-Multilevel, CI-OPT
                                                   MM, QMMM, 2- and 3-layer-ONIOM, Crystal-QMMM,
                                                   LR-CPCM, SF, NACMEs, symmetry and pop. for TD-DFT,
                                                   nearIR, NL-DFT gradient (VV10), updates on ESD,
                                                   ML-optimized integration grids
   S Lehtola, MJT Oliveira, MAL Marques          : LibXC Library
   Liviu Ungur et al                             : ANISO software


 Your calculation uses the libint2 library for the computation of 2-el integrals
 For citations please refer to: http://libint.valeyev.net

 Your ORCA version has been built with support for libXC version: 5.1.0
 For citations please refer to: https://tddft.org/programs/libxc/

 This ORCA versions uses:
   CBLAS   interface :  Fast vector & matrix operations
   LAPACKE interface :  Fast linear algebra routines
   SCALAPACK package :  Parallel linear algebra routines
   Shared memory     :  Shared parallel matrices
   BLAS/LAPACK       :  OpenBLAS 0.3.15  USE64BITINT DYNAMIC_ARCH NO_AFFINITY Zen SINGLE_THREADED
        Core in use  :  Zen
   Copyright (c) 2011-2014, The OpenBLAS Project


Your calculation utilizes the atom-pairwise dispersion correction
with the Becke-Johnson damping scheme (D3BJ)
Cite in your paper:
S.Grimme, S.Ehrlich, L.Goerigk, J Comput Chem, (2011), 32, 1456–1465 
S.Grimme, J.Antony, S.Ehrlich and H.Krieg, J.Chem.Phys., 132, (2010), 154104 
   

Your calculation utilizes the SMD solvation module
Please cite in your paper:
A.V. Marenich, C.J. Cramer, D.G. Truhlar J. Phys. Chem. B, 113, (2009), 6378 

================================================================================

----- Orbital basis set information -----
Your calculation utilizes the basis: def2-TZVP
   F. Weigend and R. Ahlrichs, Phys. Chem. Chem. Phys. 7, 3297 (2005).

----- AuxJ basis set information -----
Your calculation utilizes the auxiliary basis: def2/J
   F. Weigend, Phys. Chem. Chem. Phys. 8, 1057 (2006).

----- AuxC basis set information -----
Your calculation utilizes the auxiliary basis: def2-TZVP/C
  H-La, Hf-Rn : A. Hellweg, C. Hattig, S. Hofener and W. Klopper, Theor. Chem. Acc. 117, 587 (2007).
        Ce-Lu : J. Chmela and M. E. Harding, Mol. Phys. (2018).

================================================================================
                                        WARNINGS
                       Please study these warnings very carefully!
================================================================================

INFO   : Checking CIS options ...
  ===> : (D) CORRECTION FOUND - SETTING MODE=3
  ===> : JK MODE FOUND - ACTIVATING RI-MP2 CODE
  ===> : MP2 AND CIS FOUND - CHECKING
WARNING: CIS(D) and MP2 runs must have the same orbital window
  ===> : adjusting orbital windows

WARNING: No MP2 level density has been requested!
         To caclulate MP2 level properties use
         %mp2 Density relaxed end
         or
         %mp2 Density unrelaxed end
         Otherwise for double-hybrid DFT only the energy is correct!

WARNING: The frozen-core approximation is turned on by default for 
         the MP2 part of double-hybrid DFT.

WARNING: CIS/ROCIS methods need fully converged wavefunctions
  ===> : Setting SCFConvForced true
         You can overwrite this default with %scf ConvForced false 


INFO   : the flag for use of the SHARK integral package has been found!

================================================================================
                                       INPUT FILE
================================================================================
NAME = BF3-Acr_p_M06L_def2TZVP_coords.inp
|  1> %maxcore 3200
|  2> %pal
|  3>  nprocs= 8
|  4> end
|  5> ! RI-B2PLYP D3BJ def2-TZVP def2/J def2-TZVP/C RIJCOSX CPCM TightSCF
|  6> %TDDFT DCORR 4
|  7>    NROOTS   30
|  8> 
|  9>    TDA      FALSE
| 10> END
| 11> 
| 12> %CPCM
| 13>    SMD          TRUE
| 14>    SMDsolvent   "ACETONITRILE"
| 15> END
| 16>    
| 17> 
| 18> * xyz 0 1
| 19> C                  -1.33517900    3.59951500    0.01496600
| 20> C                  -1.99941600    2.40569100   -0.06161400
| 21> C                  -1.27852900    1.19839100   -0.05656400
| 22> C                   0.14681400    1.22248100   -0.00378800
| 23> C                   0.78287200    2.48471500    0.11273800
| 24> C                   0.06482600    3.64387900    0.11890300
| 25> C                   0.87039300    0.01271300   -0.03377000
| 26> C                   0.16140500   -1.20443600   -0.09601700
| 27> C                  -1.26500900   -1.19505800   -0.10071500
| 28> C                  -1.97286100   -2.40970700   -0.12793000
| 29> H                  -3.05211800   -2.40114300   -0.11061500
| 30> C                  -1.29378600   -3.59640200   -0.18090600
| 31> C                   0.10968600   -3.62619400   -0.22761800
| 32> C                   0.81490700   -2.45972300   -0.18912700
| 33> H                  -1.90341100    4.52055100    0.01020300
| 34> H                  -3.07689300    2.38605600   -0.12303900
| 35> H                   1.85800200    2.51440200    0.20994300
| 36> H                   0.56938500    4.59585900    0.21170600
| 37> H                  -1.85221400   -4.52318100   -0.20235400
| 38> H                   0.62740400   -4.57268200   -0.30223200
| 39> H                   1.89343600   -2.47802700   -0.24240000
| 40> N                  -1.93575900   -0.00191000   -0.08975100
| 41> C                   2.34016300    0.01909200   -0.00022100
| 42> C                   3.03378200   -0.63478900    1.02206500
| 43> C                   3.07600300    0.67822300   -0.98770700
| 44> C                   4.41729100   -0.61163300    1.05294000
| 45> C                   4.46058100    0.66574600   -0.95363000
| 46> C                   5.17266500    0.02959800    0.06609100
| 47> H                   5.00464300    1.17230600   -1.74368700
| 48> H                   2.55250900    1.18188800   -1.79213400
| 49> C                  -3.38215200   -0.00910800   -0.11245000
| 50> C                  -4.08300000    0.01602500    1.07835000
| 51> C                  -4.04762200   -0.03955400   -1.33022100
| 52> C                  -5.46937200    0.01138600    1.06517500
| 53> H                  -3.54605200    0.03998200    2.01828600
| 54> C                  -5.42627000   -0.04411500   -1.35017500
| 55> H                  -3.48259400   -0.05934600   -2.25346900
| 56> C                  -6.14715000   -0.01833900   -0.15319800
| 57> H                  -6.01021200    0.03110300    2.00014500
| 58> H                  -5.96618700   -0.06701500   -2.28747400
| 59> O                  -7.48941500   -0.02427900   -0.27426500
| 60> C                  -8.25978000    0.00391500    0.91824300
| 61> H                  -9.30015500   -0.00518900    0.60609500
| 62> H                  -8.06384600   -0.87126300    1.54134300
| 63> H                  -8.06624400    0.90924100    1.49749300
| 64> H                   4.92649100   -1.10906800    1.87219600
| 65> B                   6.78084300   -0.00531600    0.09357000
| 66> F                   7.34166600    1.03029900   -0.69206700
| 67> F                   7.26987200   -1.24050000   -0.41765900
| 68> F                   7.28020500    0.12750000    1.41408500
| 69> H                   2.47622100   -1.13985700    1.80237700
| 70> *
| 71> 
| 72> 
| 73>                          ****END OF INPUT****
================================================================================

                       ****************************
                       * Single Point Calculation *
                       ****************************

---------------------------------
CARTESIAN COORDINATES (ANGSTROEM)
---------------------------------
  C     -1.335179    3.599515    0.014966
  C     -1.999416    2.405691   -0.061614
  C     -1.278529    1.198391   -0.056564
  C      0.146814    1.222481   -0.003788
  C      0.782872    2.484715    0.112738
  C      0.064826    3.643879    0.118903
  C      0.870393    0.012713   -0.033770
  C      0.161405   -1.204436   -0.096017
  C     -1.265009   -1.195058   -0.100715
  C     -1.972861   -2.409707   -0.127930
  H     -3.052118   -2.401143   -0.110615
  C     -1.293786   -3.596402   -0.180906
  C      0.109686   -3.626194   -0.227618
  C      0.814907   -2.459723   -0.189127
  H     -1.903411    4.520551    0.010203
  H     -3.076893    2.386056   -0.123039
  H      1.858002    2.514402    0.209943
  H      0.569385    4.595859    0.211706
  H     -1.852214   -4.523181   -0.202354
  H      0.627404   -4.572682   -0.302232
  H      1.893436   -2.478027   -0.242400
  N     -1.935759   -0.001910   -0.089751
  C      2.340163    0.019092   -0.000221
  C      3.033782   -0.634789    1.022065
  C      3.076003    0.678223   -0.987707
  C      4.417291   -0.611633    1.052940
  C      4.460581    0.665746   -0.953630
  C      5.172665    0.029598    0.066091
  H      5.004643    1.172306   -1.743687
  H      2.552509    1.181888   -1.792134
  C     -3.382152   -0.009108   -0.112450
  C     -4.083000    0.016025    1.078350
  C     -4.047622   -0.039554   -1.330221
  C     -5.469372    0.011386    1.065175
  H     -3.546052    0.039982    2.018286
  C     -5.426270   -0.044115   -1.350175
  H     -3.482594   -0.059346   -2.253469
  C     -6.147150   -0.018339   -0.153198
  H     -6.010212    0.031103    2.000145
  H     -5.966187   -0.067015   -2.287474
  O     -7.489415   -0.024279   -0.274265
  C     -8.259780    0.003915    0.918243
  H     -9.300155   -0.005189    0.606095
  H     -8.063846   -0.871263    1.541343
  H     -8.066244    0.909241    1.497493
  H      4.926491   -1.109068    1.872196
  B      6.780843   -0.005316    0.093570
  F      7.341666    1.030299   -0.692067
  F      7.269872   -1.240500   -0.417659
  F      7.280205    0.127500    1.414085
  H      2.476221   -1.139857    1.802377

----------------------------
CARTESIAN COORDINATES (A.U.)
----------------------------
  NO LB      ZA    FRAG     MASS         X           Y           Z
   0 C     6.0000    0    12.011   -2.523123    6.802098    0.028282
   1 C     6.0000    0    12.011   -3.778349    4.546097   -0.116434
   2 C     6.0000    0    12.011   -2.416070    2.264631   -0.106890
   3 C     6.0000    0    12.011    0.277438    2.310154   -0.007158
   4 C     6.0000    0    12.011    1.479414    4.695431    0.213044
   5 C     6.0000    0    12.011    0.122503    6.885933    0.224694
   6 C     6.0000    0    12.011    1.644804    0.024024   -0.063816
   7 C     6.0000    0    12.011    0.305011   -2.276054   -0.181446
   8 C     6.0000    0    12.011   -2.390521   -2.258332   -0.190324
   9 C     6.0000    0    12.011   -3.728167   -4.553686   -0.241753
  10 H     1.0000    0     1.008   -5.767667   -4.537503   -0.209032
  11 C     6.0000    0    12.011   -2.444901   -6.796215   -0.341863
  12 C     6.0000    0    12.011    0.207277   -6.852514   -0.430136
  13 C     6.0000    0    12.011    1.539951   -4.648203   -0.357398
  14 H     1.0000    0     1.008   -3.596926    8.542603    0.019281
  15 H     1.0000    0     1.008   -5.814485    4.508992   -0.232510
  16 H     1.0000    0     1.008    3.511115    4.751531    0.396735
  17 H     1.0000    0     1.008    1.075982    8.684915    0.400066
  18 H     1.0000    0     1.008   -3.500177   -8.547573   -0.382394
  19 H     1.0000    0     1.008    1.185622   -8.641117   -0.571136
  20 H     1.0000    0     1.008    3.578075   -4.682792   -0.458070
  21 N     7.0000    0    14.007   -3.658054   -0.003609   -0.169605
  22 C     6.0000    0    12.011    4.422267    0.036079   -0.000418
  23 C     6.0000    0    12.011    5.733017   -1.199577    1.931423
  24 C     6.0000    0    12.011    5.812803    1.281656   -1.866496
  25 C     6.0000    0    12.011    8.347470   -1.155819    1.989768
  26 C     6.0000    0    12.011    8.429276    1.258078   -1.802100
  27 C     6.0000    0    12.011    9.774920    0.055932    0.124894
  28 H     1.0000    0     1.008    9.457405    2.215337   -3.295091
  29 H     1.0000    0     1.008    4.823543    2.233445   -3.386642
  30 C     6.0000    0    12.011   -6.391341   -0.017212   -0.212500
  31 C     6.0000    0    12.011   -7.715752    0.030283    2.037786
  32 C     6.0000    0    12.011   -7.648897   -0.074746   -2.513753
  33 C     6.0000    0    12.011  -10.335615    0.021516    2.012889
  34 H     1.0000    0     1.008   -6.701067    0.075555    3.814008
  35 C     6.0000    0    12.011  -10.254164   -0.083365   -2.551461
  36 H     1.0000    0     1.008   -6.581149   -0.112148   -4.258439
  37 C     6.0000    0    12.011  -11.616430   -0.034656   -0.289502
  38 H     1.0000    0     1.008  -11.357655    0.058776    3.779726
  39 H     1.0000    0     1.008  -11.274459   -0.126640   -4.322699
  40 O     8.0000    0    15.999  -14.152943   -0.045881   -0.518286
  41 C     6.0000    0    12.011  -15.608722    0.007398    1.735228
  42 H     1.0000    0     1.008  -17.574746   -0.009806    1.145354
  43 H     1.0000    0     1.008  -15.238461   -1.646448    2.912716
  44 H     1.0000    0     1.008  -15.242992    1.718216    2.829852
  45 H     1.0000    0     1.008    9.309719   -2.095835    3.537938
  46 B     5.0000    0    10.810   12.813936   -0.010046    0.176822
  47 F     9.0000    0    18.998   13.873738    1.946983   -1.307817
  48 F     9.0000    0    18.998   13.738067   -2.344205   -0.789261
  49 F     9.0000    0    18.998   13.757594    0.240940    2.672233
  50 H     1.0000    0     1.008    4.679380   -2.154018    3.405999

--------------------------------
INTERNAL COORDINATES (ANGSTROEM)
--------------------------------
 C      0   0   0     0.000000000000     0.00000000     0.00000000
 C      1   0   0     1.368316860798     0.00000000     0.00000000
 C      2   1   0     1.406156769094   120.00148407     0.00000000
 C      3   2   1     1.426523151556   119.85947348   358.50227796
 C      4   3   2     1.418232265461   117.78693217     3.23050953
 C      5   4   3     1.363557569095   121.38562112   357.33704299
 C      4   3   2     1.409965993699   119.83396463   181.64249768
 C      7   4   3     1.409961120511   118.91848107   359.07322385
 C      8   7   4     1.426452564050   119.82144588   358.76078399
 C      9   8   7     1.406117812749   119.85321751   181.63815918
 H     10   9   8     1.079429860329   119.74654684   178.72612388
 C     10   9   8     1.368281526304   120.00662064   358.49699462
 C     12  10   9     1.404565138750   121.03723432   359.11079111
 C     13  12  10     1.363624878683   119.84669542     1.51760182
 H      1   2   3     1.082228074524   119.16949806   180.01041456
 H      2   1   3     1.079405044170   120.24041925   179.81524930
 H      5   4   3     1.079923444923   118.57818347   176.59356941
 H      6   5   4     1.081414861045   120.20169344   179.81720853
 H     12  10   9     1.082229718095   119.16922644   180.06276183
 H     13  12  10     1.081405895427   119.94919664   182.02531665
 H     14  13  12     1.079999005919   120.03787447   181.07762757
 N      9   8   7     1.368805289915   119.71703539     2.17239735
 C      7   4   3     1.470166684408   120.58675129   179.09545839
 C     23   7   4     1.397761190303   120.71459015   120.94732681
 C     23   7   4     1.396797329951   120.83567936   300.96584747
 C     24  23   7     1.384047188156   120.30024783   180.67011130
 C     25  23   7     1.385053484723   120.33000176   180.67691114
 C     27  25  23     1.396989197811   122.11455852   358.63602354
 H     27  25  23     1.084802542721   118.63536342   178.97308938
 H     25  23   7     1.083894459156   119.30946568   359.40815726
 C     22   9   8     1.446589010830   119.04500586   179.19585889
 C     31  22   9     1.381963902131   119.56819294    92.38880077
 C     31  22   9     1.388071859904   119.55315748   272.31204011
 C     32  31  22     1.386442362066   119.92489211   179.90199655
 H     32  31  22     1.082758872810   119.79647414   359.94519784
 C     33  31  22     1.378799939346   119.48111127   180.10795308
 H     33  31  22     1.082605760908   119.89134801     0.10099587
 C     34  32  31     1.394524779284   119.62867578     0.00000000
 H     34  32  31     1.080308088736   119.49345859   179.99719893
 H     36  33  31     1.081926149185   120.76950438   179.96203739
 O     38  34  32     1.347726913107   124.23826250   180.05168186
 C     41  38  34     1.419976219845   117.69682973     0.11200196
 H     42  41  38     1.086231742008   106.14780307   179.94691436
 H     42  41  38     1.092053237732   111.46452654   298.76218187
 H     42  41  38     1.092063144727   111.45461102    61.13560858
 H     26  24  23     1.085314061809   118.56539299   178.59368842
 B     28  27  25     1.608791646709   122.13280074   179.00196119
 F     47  28  27     1.415714081770   111.75486689    21.17627787
 F     47  28  27     1.423440889935   110.86212834   261.37333319
 F     47  28  27     1.418013526778   111.46268067   142.11394267
 H     24  23   7     1.083907178078   119.29071372   359.24118129

---------------------------
INTERNAL COORDINATES (A.U.)
---------------------------
 C      0   0   0     0.000000000000     0.00000000     0.00000000
 C      1   0   0     2.585744131336     0.00000000     0.00000000
 C      2   1   0     2.657251194947   120.00148407     0.00000000
 C      3   2   1     2.695738080139   119.85947348   358.50227796
 C      4   3   2     2.680070576013   117.78693217     3.23050953
 C      5   4   3     2.576750373425   121.38562112   357.33704299
 C      4   3   2     2.664449586234   119.83396463   181.64249768
 C      7   4   3     2.664440377243   118.91848107   359.07322385
 C      8   7   4     2.695604689084   119.82144588   358.76078399
 C      9   8   7     2.657177578124   119.85321751   181.63815918
 H     10   9   8     2.039826816799   119.74654684   178.72612388
 C     10   9   8     2.585677358819   120.00662064   358.49699462
 C     12  10   9     2.654243449491   121.03723432   359.11079111
 C     13  12  10     2.576877570112   119.84669542     1.51760182
 H      1   2   3     2.045114675292   119.16949806   180.01041456
 H      2   1   3     2.039779921054   120.24041925   179.81524930
 H      5   4   3     2.040759556505   118.57818347   176.59356941
 H      6   5   4     2.043577924528   120.20169344   179.81720853
 H     12  10   9     2.045117781191   119.16922644   180.06276183
 H     13  12  10     2.043560981965   119.94919664   182.02531665
 H     14  13  12     2.040902346094   120.03787447   181.07762757
 N      9   8   7     2.586667128603   119.71703539     2.17239735
 C      7   4   3     2.778212404745   120.58675129   179.09545839
 C     23   7   4     2.641385850297   120.71459015   120.94732681
 C     23   7   4     2.639564418199   120.83567936   300.96584747
 C     24  23   7     2.615470142038   120.30024783   180.67011130
 C     25  23   7     2.617371766959   120.33000176   180.67691114
 C     27  25  23     2.639926995909   122.11455852   358.63602354
 H     27  25  23     2.049979715123   118.63536342   178.97308938
 H     25  23   7     2.048263685880   119.30946568   359.40815726
 C     22   9   8     2.733657058809   119.04500586   179.19585889
 C     31  22   9     2.611533301993   119.56819294    92.38880077
 C     31  22   9     2.623075669421   119.55315748   272.31204011
 C     32  31  22     2.619996364771   119.92489211   179.90199655
 H     32  31  22     2.046117738684   119.79647414   359.94519784
 C     33  31  22     2.605554278831   119.48111127   180.10795308
 H     33  31  22     2.045828399122   119.89134801     0.10099587
 C     34  32  31     2.635269919814   119.62867578     0.00000000
 H     34  32  31     2.041486427971   119.49345859   179.99719893
 H     36  33  31     2.044544119087   120.76950438   179.96203739
 O     38  34  32     2.546834769088   124.23826250   180.05168186
 C     41  38  34     2.683366172188   117.69682973     0.11200196
 H     42  41  38     2.052680510367   106.14780307   179.94691436
 H     42  41  38     2.063681542975   111.46452654   298.76218187
 H     42  41  38     2.063700264484   111.45461102    61.13560858
 H     26  24  23     2.050946346113   118.56539299   178.59368842
 B     28  27  25     3.040175618820   122.13280074   179.00196119
 F     47  28  27     2.675311898482   111.75486689    21.17627787
 F     47  28  27     2.689913449802   110.86212834   261.37333319
 F     47  28  27     2.679657219806   111.46268067   142.11394267
 H     24  23   7     2.048287721159   119.29071372   359.24118129

---------------------
BASIS SET INFORMATION
---------------------
There are 6 groups of distinct atoms

 Group   1 Type C   : 11s6p2d1f contracted to 5s3p2d1f pattern {62111/411/11/1}
 Group   2 Type H   : 5s1p contracted to 3s1p pattern {311/1}
 Group   3 Type N   : 11s6p2d1f contracted to 5s3p2d1f pattern {62111/411/11/1}
 Group   4 Type O   : 11s6p2d1f contracted to 5s3p2d1f pattern {62111/411/11/1}
 Group   5 Type B   : 11s6p2d1f contracted to 5s3p2d1f pattern {62111/411/11/1}
 Group   6 Type F   : 11s6p2d1f contracted to 5s3p2d1f pattern {62111/411/11/1}

Atom   0C    basis set group =>   1
Atom   1C    basis set group =>   1
Atom   2C    basis set group =>   1
Atom   3C    basis set group =>   1
Atom   4C    basis set group =>   1
Atom   5C    basis set group =>   1
Atom   6C    basis set group =>   1
Atom   7C    basis set group =>   1
Atom   8C    basis set group =>   1
Atom   9C    basis set group =>   1
Atom  10H    basis set group =>   2
Atom  11C    basis set group =>   1
Atom  12C    basis set group =>   1
Atom  13C    basis set group =>   1
Atom  14H    basis set group =>   2
Atom  15H    basis set group =>   2
Atom  16H    basis set group =>   2
Atom  17H    basis set group =>   2
Atom  18H    basis set group =>   2
Atom  19H    basis set group =>   2
Atom  20H    basis set group =>   2
Atom  21N    basis set group =>   3
Atom  22C    basis set group =>   1
Atom  23C    basis set group =>   1
Atom  24C    basis set group =>   1
Atom  25C    basis set group =>   1
Atom  26C    basis set group =>   1
Atom  27C    basis set group =>   1
Atom  28H    basis set group =>   2
Atom  29H    basis set group =>   2
Atom  30C    basis set group =>   1
Atom  31C    basis set group =>   1
Atom  32C    basis set group =>   1
Atom  33C    basis set group =>   1
Atom  34H    basis set group =>   2
Atom  35C    basis set group =>   1
Atom  36H    basis set group =>   2
Atom  37C    basis set group =>   1
Atom  38H    basis set group =>   2
Atom  39H    basis set group =>   2
Atom  40O    basis set group =>   4
Atom  41C    basis set group =>   1
Atom  42H    basis set group =>   2
Atom  43H    basis set group =>   2
Atom  44H    basis set group =>   2
Atom  45H    basis set group =>   2
Atom  46B    basis set group =>   5
Atom  47F    basis set group =>   6
Atom  48F    basis set group =>   6
Atom  49F    basis set group =>   6
Atom  50H    basis set group =>   2
---------------------------------
AUXILIARY/J BASIS SET INFORMATION
---------------------------------
There are 6 groups of distinct atoms

 Group   1 Type C   : 12s5p4d2f1g contracted to 6s4p3d1f1g pattern {711111/2111/211/2/1}
 Group   2 Type H   : 5s2p1d contracted to 3s1p1d pattern {311/2/1}
 Group   3 Type N   : 12s5p4d2f1g contracted to 6s4p3d1f1g pattern {711111/2111/211/2/1}
 Group   4 Type O   : 12s5p4d2f1g contracted to 6s4p3d1f1g pattern {711111/2111/211/2/1}
 Group   5 Type B   : 12s5p4d2f1g contracted to 6s4p3d1f1g pattern {711111/2111/211/2/1}
 Group   6 Type F   : 12s5p4d2f1g contracted to 6s4p3d1f1g pattern {711111/2111/211/2/1}

Atom   0C    basis set group =>   1
Atom   1C    basis set group =>   1
Atom   2C    basis set group =>   1
Atom   3C    basis set group =>   1
Atom   4C    basis set group =>   1
Atom   5C    basis set group =>   1
Atom   6C    basis set group =>   1
Atom   7C    basis set group =>   1
Atom   8C    basis set group =>   1
Atom   9C    basis set group =>   1
Atom  10H    basis set group =>   2
Atom  11C    basis set group =>   1
Atom  12C    basis set group =>   1
Atom  13C    basis set group =>   1
Atom  14H    basis set group =>   2
Atom  15H    basis set group =>   2
Atom  16H    basis set group =>   2
Atom  17H    basis set group =>   2
Atom  18H    basis set group =>   2
Atom  19H    basis set group =>   2
Atom  20H    basis set group =>   2
Atom  21N    basis set group =>   3
Atom  22C    basis set group =>   1
Atom  23C    basis set group =>   1
Atom  24C    basis set group =>   1
Atom  25C    basis set group =>   1
Atom  26C    basis set group =>   1
Atom  27C    basis set group =>   1
Atom  28H    basis set group =>   2
Atom  29H    basis set group =>   2
Atom  30C    basis set group =>   1
Atom  31C    basis set group =>   1
Atom  32C    basis set group =>   1
Atom  33C    basis set group =>   1
Atom  34H    basis set group =>   2
Atom  35C    basis set group =>   1
Atom  36H    basis set group =>   2
Atom  37C    basis set group =>   1
Atom  38H    basis set group =>   2
Atom  39H    basis set group =>   2
Atom  40O    basis set group =>   4
Atom  41C    basis set group =>   1
Atom  42H    basis set group =>   2
Atom  43H    basis set group =>   2
Atom  44H    basis set group =>   2
Atom  45H    basis set group =>   2
Atom  46B    basis set group =>   5
Atom  47F    basis set group =>   6
Atom  48F    basis set group =>   6
Atom  49F    basis set group =>   6
Atom  50H    basis set group =>   2
---------------------------------
AUXILIARY/C BASIS SET INFORMATION
---------------------------------
There are 6 groups of distinct atoms

 Group   1 Type C   : 8s6p5d3f1g contracted to 8s6p4d3f1g pattern {11111111/111111/2111/111/1}
 Group   2 Type H   : 4s3p2d contracted to 4s2p1d pattern {1111/21/2}
 Group   3 Type N   : 8s6p5d3f1g contracted to 8s6p4d3f1g pattern {11111111/111111/2111/111/1}
 Group   4 Type O   : 8s6p5d3f1g contracted to 8s6p4d3f1g pattern {11111111/111111/2111/111/1}
 Group   5 Type B   : 8s6p5d3f1g contracted to 8s6p4d3f1g pattern {11111111/111111/2111/111/1}
 Group   6 Type F   : 8s6p5d3f1g contracted to 8s6p4d3f1g pattern {11111111/111111/2111/111/1}

Atom   0C    basis set group =>   1
Atom   1C    basis set group =>   1
Atom   2C    basis set group =>   1
Atom   3C    basis set group =>   1
Atom   4C    basis set group =>   1
Atom   5C    basis set group =>   1
Atom   6C    basis set group =>   1
Atom   7C    basis set group =>   1
Atom   8C    basis set group =>   1
Atom   9C    basis set group =>   1
Atom  10H    basis set group =>   2
Atom  11C    basis set group =>   1
Atom  12C    basis set group =>   1
Atom  13C    basis set group =>   1
Atom  14H    basis set group =>   2
Atom  15H    basis set group =>   2
Atom  16H    basis set group =>   2
Atom  17H    basis set group =>   2
Atom  18H    basis set group =>   2
Atom  19H    basis set group =>   2
Atom  20H    basis set group =>   2
Atom  21N    basis set group =>   3
Atom  22C    basis set group =>   1
Atom  23C    basis set group =>   1
Atom  24C    basis set group =>   1
Atom  25C    basis set group =>   1
Atom  26C    basis set group =>   1
Atom  27C    basis set group =>   1
Atom  28H    basis set group =>   2
Atom  29H    basis set group =>   2
Atom  30C    basis set group =>   1
Atom  31C    basis set group =>   1
Atom  32C    basis set group =>   1
Atom  33C    basis set group =>   1
Atom  34H    basis set group =>   2
Atom  35C    basis set group =>   1
Atom  36H    basis set group =>   2
Atom  37C    basis set group =>   1
Atom  38H    basis set group =>   2
Atom  39H    basis set group =>   2
Atom  40O    basis set group =>   4
Atom  41C    basis set group =>   1
Atom  42H    basis set group =>   2
Atom  43H    basis set group =>   2
Atom  44H    basis set group =>   2
Atom  45H    basis set group =>   2
Atom  46B    basis set group =>   5
Atom  47F    basis set group =>   6
Atom  48F    basis set group =>   6
Atom  49F    basis set group =>   6
Atom  50H    basis set group =>   2


           ************************************************************
           *        Program running with 8 parallel MPI-processes     *
           *              working on a common directory               *
           ************************************************************
------------------------------------------------------------------------------
                           ORCA GTO INTEGRAL CALCULATION
                           -- RI-GTO INTEGRALS CHOSEN --
------------------------------------------------------------------------------
------------------------------------------------------------------------------
                   ___                                                        
                  /   \      - P O W E R E D   B Y -                         
                 /     \                                                     
                 |  |  |   _    _      __       _____    __    __             
                 |  |  |  | |  | |    /  \     |  _  \  |  |  /  |          
                  \  \/   | |  | |   /    \    | | | |  |  | /  /          
                 / \  \   | |__| |  /  /\  \   | |_| |  |  |/  /          
                |  |  |   |  __  | /  /__\  \  |    /   |      \           
                |  |  |   | |  | | |   __   |  |    \   |  |\   \          
                \     /   | |  | | |  |  |  |  | |\  \  |  | \   \       
                 \___/    |_|  |_| |__|  |__|  |_| \__\ |__|  \__/        
                                                                              
                      - O R C A' S   B I G   F R I E N D -                    
                                      &                                       
                       - I N T E G R A L  F E E D E R -                       
                                                                              
 v1 FN, 2020, v2 2021                                                         
------------------------------------------------------------------------------


Reading SHARK input file BF3-Acr_p_M06L_def2TZVP_coords.SHARKINP.tmp ... ok
----------------------
SHARK INTEGRAL PACKAGE
----------------------

Number of atoms                             ...     51
Number of basis functions                   ...   1106
Number of shells                            ...    428
Maximum angular momentum                    ...      3
Integral batch strategy                     ... SHARK/LIBINT Hybrid
RI-J (if used) integral strategy            ... SPLIT-RIJ (Revised 2003 algorithm where possible)
Printlevel                                  ...      1
Contraction scheme used                     ... SEGMENTED contraction
Coulomb Range Separation                    ... NOT USED
Exchange Range Separation                   ... NOT USED
Finite Nucleus Model                        ... NOT USED
Auxiliary Coulomb fitting basis             ... AVAILABLE
   # of basis functions in Aux-J            ...   1777
   # of shells in Aux-J                     ...    575
   Maximum angular momentum in Aux-J        ...      4
Auxiliary J/K fitting basis                 ... NOT available
Auxiliary Correlation fitting basis         ... AVAILABLE
   # of basis functions in Aux-C            ...   2717
   # of shells in Aux-C                     ...    837
   Maximum angular momentum in Aux-C        ...      4
Auxiliary 'external' fitting basis          ... NOT available
Integral threshold                          ...     2.500000e-11
Primitive cut-off                           ...     2.500000e-12
Primitive pair pre-selection threshold      ...     2.500000e-12

Calculating pre-screening integrals         ... done (  0.1 sec) Dimension = 428
Organizing shell pair data                  ... done (  0.4 sec)
Shell pair information
Total number of shell pairs                 ...     91806
Shell pairs after pre-screening             ...     54360
Total number of primitive shell pairs       ...    285396
Primitive shell pairs kept                  ...    109136
          la=0 lb=0:  13402 shell pairs
          la=1 lb=0:  15685 shell pairs
          la=1 lb=1:   4579 shell pairs
          la=2 lb=0:   7775 shell pairs
          la=2 lb=1:   4608 shell pairs
          la=2 lb=2:   1170 shell pairs
          la=3 lb=0:   3618 shell pairs
          la=3 lb=1:   2194 shell pairs
          la=3 lb=2:   1065 shell pairs
          la=3 lb=3:    264 shell pairs

Calculating one electron integrals          ... done (  0.1 sec)
Calculating RI/J V-Matrix + Cholesky decomp.... done (  0.2 sec)
Calculating RI/C V-Matrix + Cholesky decomp.... done (  0.3 sec)
Calculating Nuclear repulsion               ... done (  0.0 sec) ENN=   2939.038673459841 Eh

SHARK setup successfully completed in   1.8 seconds

Maximum memory used throughout the entire GTOINT-calculation: 93.2 MB


           ************************************************************
           *        Program running with 8 parallel MPI-processes     *
           *              working on a common directory               *
           ************************************************************
-------------------------------------------------------------------------------
                                 ORCA SCF
-------------------------------------------------------------------------------

------------
SCF SETTINGS
------------
Hamiltonian:
 Density Functional     Method          .... DFT(GTOs)
 Exchange Functional    Exchange        .... B88
   X-Alpha parameter    XAlpha          ....  0.666667
   Becke's b parameter  XBeta           ....  0.004200
 Correlation Functional Correlation     .... LYP
 LDA part of GGA corr.  LDAOpt          .... VWN-3
 Gradients option       PostSCFGGA      .... off
 Hybrid DFT is turned on
   Fraction HF Exchange ScalHFX         ....  0.530000
   Scaling of DF-GGA-X  ScalDFX         ....  0.470000
   Scaling of DF-GGA-C  ScalDFC         ....  0.730000
   Scaling of DF-LDA-C  ScalLDAC        ....  0.730000
   Perturbative correction              ....  0.270000
   Density functional embedding theory  .... OFF
   NL short-range parameter             ....  7.800000
 RI-approximation to the Coulomb term is turned on
   Number of AuxJ basis functions       .... 1777
   RIJ-COSX (HFX calculated with COS-X)).... on


General Settings:
 Integral files         IntName         .... BF3-Acr_p_M06L_def2TZVP_coords
 Hartree-Fock type      HFTyp           .... RHF
 Total Charge           Charge          ....    0
 Multiplicity           Mult            ....    1
 Number of Electrons    NEL             ....  222
 Basis Dimension        Dim             .... 1106
 Nuclear Repulsion      ENuc            ....   2939.0386734598 Eh

Convergence Acceleration:
 DIIS                   CNVDIIS         .... on
   Start iteration      DIISMaxIt       ....    12
   Startup error        DIISStart       ....  0.200000
   # of expansion vecs  DIISMaxEq       ....     5
   Bias factor          DIISBfac        ....   1.050
   Max. coefficient     DIISMaxC        ....  10.000
 Trust-Rad. Augm. Hess. CNVTRAH         .... auto
   Auto Start mean grad. ratio tolernc. ....  1.125000
   Auto Start start iteration           ....    20
   Auto Start num. interpolation iter.  ....    10
   Max. Number of Micro iterations      ....    16
   Max. Number of Macro iterations      .... Maxiter - #DIIS iter
   Number of Davidson start vectors     ....     2
   Converg. threshold I  (grad. norm)   ....   1.000e-05
   Converg. threshold II (energy diff.) ....   1.000e-08
   Grad. Scal. Fac. for Micro threshold ....   0.100
   Minimum threshold for Micro iter.    ....   0.010
   NR start threshold (gradient norm)   ....   0.001
   Initial trust radius                 ....   0.400
   Minimum AH scaling param. (alpha)    ....   1.000
   Maximum AH scaling param. (alpha)    .... 1000.000
   Orbital update algorithm             .... Taylor
   White noise on init. David. guess    .... on
   Maximum white noise                  ....   0.010
   Quad. conv. algorithm                .... NR
 SOSCF                  CNVSOSCF        .... on
   Start iteration      SOSCFMaxIt      ....   150
   Startup grad/error   SOSCFStart      ....  0.003300
 Level Shifting         CNVShift        .... on
   Level shift para.    LevelShift      ....    0.2500
   Turn off err/grad.   ShiftErr        ....    0.0010
 Zerner damping         CNVZerner       .... off
 Static damping         CNVDamp         .... on
   Fraction old density DampFac         ....    0.7000
   Max. Damping (<1)    DampMax         ....    0.9800
   Min. Damping (>=0)   DampMin         ....    0.0000
   Turn off err/grad.   DampErr         ....    0.1000
 Fernandez-Rico         CNVRico         .... off

SCF Procedure:
 Maximum # iterations   MaxIter         ....   125
 SCF integral mode      SCFMode         .... Direct
   Integral package                     .... SHARK and LIBINT hybrid scheme
 Reset frequency        DirectResetFreq ....    20
 Integral Threshold     Thresh          ....  2.500e-11 Eh
 Primitive CutOff       TCut            ....  2.500e-12 Eh

Convergence Tolerance:
 Convergence Check Mode ConvCheckMode   .... Total+1el-Energy
 Convergence forced     ConvForced      .... 1
 Energy Change          TolE            ....  1.000e-08 Eh
 1-El. energy change                    ....  1.000e-05 Eh
 Orbital Gradient       TolG            ....  1.000e-05
 Orbital Rotation angle TolX            ....  1.000e-05
 DIIS Error             TolErr          ....  5.000e-07


Diagonalization of the overlap matrix:
Smallest eigenvalue                        ... 4.809e-06
Time for diagonalization                   ...    0.231 sec
Threshold for overlap eigenvalues          ... 1.000e-08
Number of eigenvalues below threshold      ... 0
Time for construction of square roots      ...    0.102 sec
Total time needed                          ...    0.338 sec

Time for model grid setup =    0.374 sec

------------------------------
INITIAL GUESS: MODEL POTENTIAL
------------------------------
Loading Hartree-Fock densities                     ... done
Calculating cut-offs                               ... done
Initializing the effective Hamiltonian             ... done
Setting up the integral package (SHARK)            ... done
Starting the Coulomb interaction                   ... done (   0.9 sec)
Reading the grid                                   ... done
Mapping shells                                     ... done
Starting the XC term evaluation                    ... done (   0.3 sec)
  promolecular density results
     # of electrons  =    221.984928547
     EX              =   -188.248360394
     EC              =     -2.578536585
     EX+EC           =   -190.826896979
Transforming the Hamiltonian                       ... done (   0.1 sec)
Diagonalizing the Hamiltonian                      ... done (   0.1 sec)
Back transforming the eigenvectors                 ... done (   0.0 sec)
Now organizing SCF variables                       ... done
                      ------------------
                      INITIAL GUESS DONE (   1.9 sec)
                      ------------------
-------------------
DFT GRID GENERATION
-------------------

General Integration Accuracy     IntAcc      ... 4.388
Radial Grid Type                 RadialGrid  ... OptM3 with GC (2021)
Angular Grid (max. ang.)         AngularGrid ... 4 (Lebedev-302)
Angular grid pruning method      GridPruning ... 4 (adaptive)
Weight generation scheme         WeightScheme... Becke
Basis function cutoff            BFCut       ... 1.0000e-11
Integration weight cutoff        WCut        ... 1.0000e-14
Angular grids for H and He will be reduced by one unit
Partially contracted basis set               ... off
Rotationally invariant grid construction     ... off

Total number of grid points                  ...   250742
Total number of batches                      ...     3947
Average number of points per batch           ...       63
Average number of grid points per atom       ...     4917
Time for grid setup =    1.525 sec

--------------------
COSX GRID GENERATION
--------------------

GRIDX 1
-------
General Integration Accuracy     IntAcc      ... 3.816
Radial Grid Type                 RadialGrid  ... OptM3 with GC (2021)
Angular Grid (max. ang.)         AngularGrid ... 1 (Lebedev-50)
Angular grid pruning method      GridPruning ... 4 (adaptive)
Weight generation scheme         WeightScheme... Becke
Basis function cutoff            BFCut       ... 1.0000e-11
Integration weight cutoff        WCut        ... 1.0000e-14
Angular grids for H and He will be reduced by one unit
Partially contracted basis set               ... on
Rotationally invariant grid construction     ... off

Total number of grid points                  ...    31808
Total number of batches                      ...      520
Average number of points per batch           ...       61
Average number of grid points per atom       ...      624
UseSFitting                                  ... on

GRIDX 2
-------
General Integration Accuracy     IntAcc      ... 4.020
Radial Grid Type                 RadialGrid  ... OptM3 with GC (2021)
Angular Grid (max. ang.)         AngularGrid ... 2 (Lebedev-110)
Angular grid pruning method      GridPruning ... 4 (adaptive)
Weight generation scheme         WeightScheme... Becke
Basis function cutoff            BFCut       ... 1.0000e-11
Integration weight cutoff        WCut        ... 1.0000e-14
Angular grids for H and He will be reduced by one unit
Partially contracted basis set               ... on
Rotationally invariant grid construction     ... off

Total number of grid points                  ...    69561
Total number of batches                      ...     1111
Average number of points per batch           ...       62
Average number of grid points per atom       ...     1364
UseSFitting                                  ... on

GRIDX 3
-------
General Integration Accuracy     IntAcc      ... 4.338
Radial Grid Type                 RadialGrid  ... OptM3 with GC (2021)
Angular Grid (max. ang.)         AngularGrid ... 3 (Lebedev-194)
Angular grid pruning method      GridPruning ... 4 (adaptive)
Weight generation scheme         WeightScheme... Becke
Basis function cutoff            BFCut       ... 1.0000e-11
Integration weight cutoff        WCut        ... 1.0000e-14
Angular grids for H and He will be reduced by one unit
Partially contracted basis set               ... on
Rotationally invariant grid construction     ... off

Total number of grid points                  ...   152435
Total number of batches                      ...     2405
Average number of points per batch           ...       63
Average number of grid points per atom       ...     2989
UseSFitting                                  ... on

Time for X-Grid setup             =    2.173 sec


--------------------
CPCM SOLVATION MODEL
--------------------
CPCM parameters:
  Epsilon                                         ...      35.6880
  Refrac                                          ...       1.3442
  Rsolv                                           ...       1.3000
  Surface type                                    ... GAUSSIAN VDW
  Epsilon function type                           ...         CPCM
Solvent:                                     ... ACETONITRILE
SMD-CDS solvent descriptors:
  Soln                                       ...    1.3442
  Soln25                                     ...    1.3416
  Sola                                       ...    0.0700
  Solb                                       ...    0.3200
  Solg                                       ...   41.2500
  Solc                                       ...    0.0000
  Solh                                       ...    0.0000
Radii:
 Radius for C  used is    3.4960 Bohr (=   1.8500 Ang.)
 Radius for H  used is    2.2677 Bohr (=   1.2000 Ang.)
 Radius for N  used is    3.5716 Bohr (=   1.8900 Ang.)
 Radius for O  used is    4.0969 Bohr (=   2.1680 Ang.)
 Radius for B  used is    3.6283 Bohr (=   1.9200 Ang.)
 Radius for F  used is    3.2692 Bohr (=   1.7300 Ang.)
Calculating surface                               ...        done! (  0.0s)
GEPOL surface points                              ...         2802
GEPOL Volume                                      ...    2875.3967
GEPOL Surface-area                                ...    1534.0928
Calculating surface distance matrix               ...        done! (  0.1s)
Performing Cholesky decomposition & store         ...        done! (  0.3s)
Overall time for CPCM initialization              ...                 0.3s
--------------
SCF ITERATIONS
--------------
ITER       Energy         Delta-E        Max-DP      RMS-DP      [F,P]     Damp
               ***  Starting incremental Fock matrix formation  ***
  0  -1453.7172556830   0.000000000000 0.06708175  0.00057451  0.2066108 0.7000
  1  -1453.9981616252  -0.280905942224 0.07646873  0.00049418  0.1060203 0.7000
                               ***Turning on DIIS***
  2  -1454.1484795775  -0.150317952282 0.15225490  0.00107795  0.0517394 0.0000
  3  -1454.4072330506  -0.258753473127 0.06050740  0.00032629  0.0453143 0.0000
  4  -1454.4377233343  -0.030490283655 0.01465245  0.00010793  0.0091220 0.0000
  5  -1454.4387494231  -0.001026088800 0.00614611  0.00004444  0.0042004 0.0000
                      *** Initiating the SOSCF procedure ***
                           *** Shutting down DIIS ***
                      *** Re-Reading the Fockian *** 
                      *** Removing any level shift *** 
ITER      Energy       Delta-E        Grad      Rot      Max-DP    RMS-DP
  6  -1454.43891852  -0.0001690940  0.001073  0.001073  0.001826  0.000019
               *** Restarting incremental Fock matrix formation ***
  7  -1454.43871915   0.0001993656  0.000732  0.003718  0.020523  0.000197
  8  -1454.43874086  -0.0000217111  0.000337  0.003947  0.009040  0.000091
  9  -1454.43874605  -0.0000051907  0.000181  0.000461  0.008196  0.000081
 10  -1454.43874803  -0.0000019720  0.000030  0.000125  0.000901  0.000009
 11  -1454.43874811  -0.0000000850  0.000020  0.000052  0.000502  0.000005
 12  -1454.43874814  -0.0000000327  0.000008  0.000061  0.000444  0.000003
 13  -1454.43874813   0.0000000080  0.000004  0.000008  0.000115  0.000001
                  ***Gradient check signals convergence***
              ***Rediagonalizing the Fockian in SOSCF/NRSCF***

               *****************************************************
               *                     SUCCESS                       *
               *           SCF CONVERGED AFTER  14 CYCLES          *
               *****************************************************

Old exchange energy                            =   -101.277134382 Eh
New exchange energy                            =   -101.277077836 Eh
Exchange energy change after final integration =      0.000056546 Eh
Total energy after final integration           =  -1454.438691606 Eh
Final COS-X integration done in                =    42.547 sec

SMD CDS free energy correction energy :                -4.54455     Kcal/mol
Total Energy after SMD CDS correction =             -1454.445933802 Eh

----------------
TOTAL SCF ENERGY
----------------

Total Energy       :        -1454.44593380 Eh          -39577.48594 eV

Components:
Nuclear Repulsion  :         2939.03867346 Eh           79975.30817 eV
Electronic Energy  :        -4393.48460726 Eh         -119552.79411 eV
One Electron Energy:        -7827.67340677 Eh         -213001.82220 eV
Two Electron Energy:         3434.18879951 Eh           93449.02809 eV
Max COSX asymmetry :            0.00000829 Eh               0.00023 eV
CPCM Dielectric    :           -0.09579846 Eh              -2.60681 eV
SMD CDS (Gcds)     :           -0.00724220 Eh              -0.19707 eV

Virial components:
Potential Energy   :        -2904.47322149 Eh          -79034.73440 eV
Kinetic Energy     :         1450.02728769 Eh           39457.24847 eV
Virial Ratio       :            2.00304728


DFT components:
N(Alpha)           :      111.000209964998 electrons
N(Beta)            :      111.000209964998 electrons
N(Total)           :      222.000419929996 electrons
E(X)               :      -90.012369013842 Eh       
E(C)               :       -5.611445174299 Eh       
E(XC)              :      -95.623814188141 Eh       
DFET-embed. en.    :        0.000000000000 Eh       
CPCM Solvation Model Properties:
Surface-charge          :           -0.05917599
Charge-correction       :           -0.00047375 Eh              -0.01289 eV
Free-energy (cav+disp)  :           -0.00724220 Eh              -0.19707 eV

---------------
SCF CONVERGENCE
---------------

  Last Energy change         ...   -1.7332e-08  Tolerance :   1.0000e-08
  Last MAX-Density change    ...    3.2196e-15  Tolerance :   1.0000e-07
  Last RMS-Density change    ...    1.3075e-17  Tolerance :   5.0000e-09
  Last Orbital Gradient      ...    8.8353e-07  Tolerance :   1.0000e-05
  Last Orbital Rotation      ...    3.5473e-06  Tolerance :   1.0000e-05

             **** THE GBW FILE WAS UPDATED (BF3-Acr_p_M06L_def2TZVP_coords.gbw) ****
             **** DENSITY BF3-Acr_p_M06L_def2TZVP_coords.scfp WAS UPDATED ****
             **** ENERGY FILE WAS UPDATED (BF3-Acr_p_M06L_def2TZVP_coords.en.tmp) ****
             **** THE GBW FILE WAS UPDATED (BF3-Acr_p_M06L_def2TZVP_coords.gbw) ****
             **** DENSITY BF3-Acr_p_M06L_def2TZVP_coords.scfp WAS UPDATED ****
----------------
ORBITAL ENERGIES
----------------

  NO   OCC          E(Eh)            E(eV) 
   0   2.0000     -25.292132      -688.2339 
   1   2.0000     -25.291501      -688.2167 
   2   2.0000     -25.290342      -688.1852 
   3   2.0000     -19.759078      -537.6719 
   4   2.0000     -14.936122      -406.4325 
   5   2.0000     -10.705276      -291.3054 
   6   2.0000     -10.705238      -291.3043 
   7   2.0000     -10.690635      -290.9070 
   8   2.0000     -10.690219      -290.8957 
   9   2.0000     -10.664261      -290.1893 
  10   2.0000     -10.658368      -290.0289 
  11   2.0000     -10.658337      -290.0281 
  12   2.0000     -10.656096      -289.9671 
  13   2.0000     -10.642394      -289.5943 
  14   2.0000     -10.642390      -289.5942 
  15   2.0000     -10.637988      -289.4744 
  16   2.0000     -10.637961      -289.4736 
  17   2.0000     -10.634129      -289.3694 
  18   2.0000     -10.633174      -289.3434 
  19   2.0000     -10.632386      -289.3219 
  20   2.0000     -10.632190      -289.3166 
  21   2.0000     -10.632183      -289.3164 
  22   2.0000     -10.627832      -289.1980 
  23   2.0000     -10.627814      -289.1975 
  24   2.0000     -10.622546      -289.0542 
  25   2.0000     -10.621361      -289.0219 
  26   2.0000     -10.620074      -288.9869 
  27   2.0000     -10.620024      -288.9856 
  28   2.0000     -10.609431      -288.6973 
  29   2.0000     -10.609043      -288.6867 
  30   2.0000     -10.589193      -288.1466 
  31   2.0000      -7.149937      -194.5597 
  32   2.0000      -1.331215       -36.2242 
  33   2.0000      -1.287483       -35.0342 
  34   2.0000      -1.285148       -34.9706 
  35   2.0000      -1.219280       -33.1783 
  36   2.0000      -1.163699       -31.6659 
  37   2.0000      -1.025714       -27.9111 
  38   2.0000      -1.011383       -27.5211 
  39   2.0000      -0.992368       -27.0037 
  40   2.0000      -0.979920       -26.6650 
  41   2.0000      -0.948018       -25.7969 
  42   2.0000      -0.903644       -24.5894 
  43   2.0000      -0.888860       -24.1871 
  44   2.0000      -0.886251       -24.1161 
  45   2.0000      -0.878985       -23.9184 
  46   2.0000      -0.865601       -23.5542 
  47   2.0000      -0.858007       -23.3476 
  48   2.0000      -0.852069       -23.1860 
  49   2.0000      -0.806296       -21.9404 
  50   2.0000      -0.785289       -21.3688 
  51   2.0000      -0.761397       -20.7187 
  52   2.0000      -0.747165       -20.3314 
  53   2.0000      -0.723317       -19.6825 
  54   2.0000      -0.710526       -19.3344 
  55   2.0000      -0.699019       -19.0213 
  56   2.0000      -0.698066       -18.9953 
  57   2.0000      -0.674201       -18.3459 
  58   2.0000      -0.655903       -17.8480 
  59   2.0000      -0.654247       -17.8030 
  60   2.0000      -0.634919       -17.2770 
  61   2.0000      -0.627899       -17.0860 
  62   2.0000      -0.611797       -16.6478 
  63   2.0000      -0.598568       -16.2879 
  64   2.0000      -0.587239       -15.9796 
  65   2.0000      -0.577837       -15.7237 
  66   2.0000      -0.563727       -15.3398 
  67   2.0000      -0.562048       -15.2941 
  68   2.0000      -0.559513       -15.2251 
  69   2.0000      -0.557844       -15.1797 
  70   2.0000      -0.555807       -15.1243 
  71   2.0000      -0.547999       -14.9118 
  72   2.0000      -0.531655       -14.4671 
  73   2.0000      -0.529227       -14.4010 
  74   2.0000      -0.527850       -14.3635 
  75   2.0000      -0.521009       -14.1774 
  76   2.0000      -0.520588       -14.1659 
  77   2.0000      -0.520148       -14.1539 
  78   2.0000      -0.511950       -13.9309 
  79   2.0000      -0.511539       -13.9197 
  80   2.0000      -0.506574       -13.7846 
  81   2.0000      -0.486735       -13.2447 
  82   2.0000      -0.483795       -13.1647 
  83   2.0000      -0.481999       -13.1158 
  84   2.0000      -0.479689       -13.0530 
  85   2.0000      -0.475095       -12.9280 
  86   2.0000      -0.463772       -12.6199 
  87   2.0000      -0.461023       -12.5451 
  88   2.0000      -0.453010       -12.3270 
  89   2.0000      -0.450916       -12.2700 
  90   2.0000      -0.450014       -12.2455 
  91   2.0000      -0.447136       -12.1672 
  92   2.0000      -0.440136       -11.9767 
  93   2.0000      -0.437444       -11.9035 
  94   2.0000      -0.433602       -11.7989 
  95   2.0000      -0.431846       -11.7511 
  96   2.0000      -0.420217       -11.4347 
  97   2.0000      -0.414404       -11.2765 
  98   2.0000      -0.411033       -11.1848 
  99   2.0000      -0.399016       -10.8578 
 100   2.0000      -0.397638       -10.8203 
 101   2.0000      -0.392689       -10.6856 
 102   2.0000      -0.369898       -10.0654 
 103   2.0000      -0.353930        -9.6309 
 104   2.0000      -0.324953        -8.8424 
 105   2.0000      -0.306585        -8.3426 
 106   2.0000      -0.304214        -8.2781 
 107   2.0000      -0.292027        -7.9465 
 108   2.0000      -0.289764        -7.8849 
 109   2.0000      -0.276632        -7.5275 
 110   2.0000      -0.267290        -7.2733 
 111   0.0000      -0.070174        -1.9095 
 112   0.0000       0.004163         0.1133 
 113   0.0000       0.022388         0.6092 
 114   0.0000       0.028920         0.7870 
 115   0.0000       0.039591         1.0773 
 116   0.0000       0.042594         1.1590 
 117   0.0000       0.051628         1.4049 
 118   0.0000       0.060366         1.6427 
 119   0.0000       0.086158         2.3445 
 120   0.0000       0.092737         2.5235 
 121   0.0000       0.095275         2.5926 
 122   0.0000       0.098747         2.6870 
 123   0.0000       0.105910         2.8820 
 124   0.0000       0.108612         2.9555 
 125   0.0000       0.116679         3.1750 
 126   0.0000       0.119575         3.2538 
 127   0.0000       0.123066         3.3488 
 128   0.0000       0.126170         3.4333 
 129   0.0000       0.132346         3.6013 
 130   0.0000       0.136400         3.7116 
 131   0.0000       0.137141         3.7318 
 132   0.0000       0.142314         3.8725 
 133   0.0000       0.145008         3.9459 
 134   0.0000       0.148770         4.0482 
 135   0.0000       0.154393         4.2013 
 136   0.0000       0.158743         4.3196 
 137   0.0000       0.165471         4.5027 
 138   0.0000       0.166637         4.5344 
 139   0.0000       0.167933         4.5697 
 140   0.0000       0.174814         4.7569 
 141   0.0000       0.177078         4.8185 
 142   0.0000       0.183669         4.9979 
 143   0.0000       0.189032         5.1438 
 144   0.0000       0.195495         5.3197 
 145   0.0000       0.201447         5.4817 
 146   0.0000       0.204645         5.5687 
 147   0.0000       0.208192         5.6652 
 148   0.0000       0.209628         5.7043 
 149   0.0000       0.211221         5.7476 
 150   0.0000       0.214067         5.8251 
 151   0.0000       0.220558         6.0017 
 152   0.0000       0.230327         6.2675 
 153   0.0000       0.232602         6.3294 
 154   0.0000       0.241414         6.5692 
 155   0.0000       0.248149         6.7525 
 156   0.0000       0.251433         6.8418 
 157   0.0000       0.253672         6.9028 
 158   0.0000       0.254795         6.9333 
 159   0.0000       0.262155         7.1336 
 160   0.0000       0.264118         7.1870 
 161   0.0000       0.267793         7.2870 
 162   0.0000       0.272811         7.4236 
 163   0.0000       0.275884         7.5072 
 164   0.0000       0.277606         7.5540 
 165   0.0000       0.282053         7.6751 
 166   0.0000       0.284073         7.7300 
 167   0.0000       0.287178         7.8145 
 168   0.0000       0.289005         7.8642 
 169   0.0000       0.294053         8.0016 
 170   0.0000       0.295176         8.0321 
 171   0.0000       0.297703         8.1009 
 172   0.0000       0.300482         8.1765 
 173   0.0000       0.306363         8.3365 
 174   0.0000       0.307184         8.3589 
 175   0.0000       0.313641         8.5346 
 176   0.0000       0.317629         8.6431 
 177   0.0000       0.321249         8.7416 
 178   0.0000       0.324291         8.8244 
 179   0.0000       0.326314         8.8795 
 180   0.0000       0.335764         9.1366 
 181   0.0000       0.337305         9.1785 
 182   0.0000       0.344294         9.3687 
 183   0.0000       0.346129         9.4186 
 184   0.0000       0.349224         9.5029 
 185   0.0000       0.351519         9.5653 
 186   0.0000       0.354471         9.6456 
 187   0.0000       0.357112         9.7175 
 188   0.0000       0.359560         9.7841 
 189   0.0000       0.364635         9.9222 
 190   0.0000       0.371428        10.1071 
 191   0.0000       0.374297        10.1851 
 192   0.0000       0.377395        10.2694 
 193   0.0000       0.384220        10.4552 
 194   0.0000       0.384814        10.4713 
 195   0.0000       0.386824        10.5260 
 196   0.0000       0.389874        10.6090 
 197   0.0000       0.395575        10.7641 
 198   0.0000       0.402548        10.9539 
 199   0.0000       0.404162        10.9978 
 200   0.0000       0.408924        11.1274 
 201   0.0000       0.411816        11.2061 
 202   0.0000       0.416419        11.3313 
 203   0.0000       0.422459        11.4957 
 204   0.0000       0.424759        11.5583 
 205   0.0000       0.428644        11.6640 
 206   0.0000       0.429913        11.6985 
 207   0.0000       0.431415        11.7394 
 208   0.0000       0.433578        11.7983 
 209   0.0000       0.434365        11.8197 
 210   0.0000       0.437543        11.9061 
 211   0.0000       0.449632        12.2351 
 212   0.0000       0.450764        12.2659 
 213   0.0000       0.453647        12.3444 
 214   0.0000       0.456537        12.4230 
 215   0.0000       0.458925        12.4880 
 216   0.0000       0.464302        12.6343 
 217   0.0000       0.464554        12.6412 
 218   0.0000       0.470320        12.7981 
 219   0.0000       0.471803        12.8384 
 220   0.0000       0.475640        12.9428 
 221   0.0000       0.476777        12.9738 
 222   0.0000       0.480144        13.0654 
 223   0.0000       0.483926        13.1683 
 224   0.0000       0.484680        13.1888 
 225   0.0000       0.487783        13.2732 
 226   0.0000       0.490301        13.3418 
 227   0.0000       0.491257        13.3678 
 228   0.0000       0.492644        13.4055 
 229   0.0000       0.497337        13.5332 
 230   0.0000       0.502022        13.6607 
 231   0.0000       0.505752        13.7622 
 232   0.0000       0.508619        13.8402 
 233   0.0000       0.511261        13.9121 
 234   0.0000       0.515260        14.0209 
 235   0.0000       0.518012        14.0958 
 236   0.0000       0.519524        14.1370 
 237   0.0000       0.521908        14.2018 
 238   0.0000       0.523280        14.2392 
 239   0.0000       0.531188        14.4544 
 240   0.0000       0.535643        14.5756 
 241   0.0000       0.539933        14.6923 
 242   0.0000       0.541717        14.7409 
 243   0.0000       0.546215        14.8633 
 244   0.0000       0.550045        14.9675 
 245   0.0000       0.554974        15.1016 
 246   0.0000       0.555248        15.1091 
 247   0.0000       0.557033        15.1576 
 248   0.0000       0.562427        15.3044 
 249   0.0000       0.566848        15.4247 
 250   0.0000       0.570014        15.5109 
 251   0.0000       0.570372        15.5206 
 252   0.0000       0.572830        15.5875 
 253   0.0000       0.575869        15.6702 
 254   0.0000       0.576754        15.6943 
 255   0.0000       0.583244        15.8709 
 256   0.0000       0.585673        15.9370 
 257   0.0000       0.608862        16.5680 
 258   0.0000       0.613052        16.6820 
 259   0.0000       0.614212        16.7135 
 260   0.0000       0.620535        16.8856 
 261   0.0000       0.621998        16.9254 
 262   0.0000       0.630087        17.1455 
 263   0.0000       0.631271        17.1778 
 264   0.0000       0.641349        17.4520 
 265   0.0000       0.645073        17.5533 
 266   0.0000       0.652769        17.7627 
 267   0.0000       0.656741        17.8708 
 268   0.0000       0.665151        18.0997 
 269   0.0000       0.669327        18.2133 
 270   0.0000       0.671259        18.2659 
 271   0.0000       0.674699        18.3595 
 272   0.0000       0.680506        18.5175 
 273   0.0000       0.686006        18.6672 
 274   0.0000       0.688921        18.7465 
 275   0.0000       0.694327        18.8936 
 276   0.0000       0.696225        18.9452 
 277   0.0000       0.702258        19.1094 
 278   0.0000       0.706809        19.2332 
 279   0.0000       0.712536        19.3891 
 280   0.0000       0.716515        19.4974 
 281   0.0000       0.718447        19.5499 
 282   0.0000       0.723843        19.6968 
 283   0.0000       0.728221        19.8159 
 284   0.0000       0.731295        19.8995 
 285   0.0000       0.732863        19.9422 
 286   0.0000       0.734687        19.9918 
 287   0.0000       0.740224        20.1425 
 288   0.0000       0.744468        20.2580 
 289   0.0000       0.745429        20.2842 
 290   0.0000       0.748120        20.3574 
 291   0.0000       0.750154        20.4127 
 292   0.0000       0.754801        20.5392 
 293   0.0000       0.767390        20.8818 
 294   0.0000       0.768559        20.9136 
 295   0.0000       0.771569        20.9955 
 296   0.0000       0.775826        21.1113 
 297   0.0000       0.778564        21.1858 
 298   0.0000       0.781723        21.2718 
 299   0.0000       0.784638        21.3511 
 300   0.0000       0.787253        21.4223 
 301   0.0000       0.789041        21.4709 
 302   0.0000       0.790638        21.5143 
 303   0.0000       0.793146        21.5826 
 304   0.0000       0.801525        21.8106 
 305   0.0000       0.805578        21.9209 
 306   0.0000       0.808061        21.9885 
 307   0.0000       0.811014        22.0688 
 308   0.0000       0.814136        22.1538 
 309   0.0000       0.817451        22.2440 
 310   0.0000       0.820442        22.3254 
 311   0.0000       0.821549        22.3555 
 312   0.0000       0.825053        22.4508 
 313   0.0000       0.828321        22.5398 
 314   0.0000       0.830359        22.5952 
 315   0.0000       0.832572        22.6554 
 316   0.0000       0.837648        22.7936 
 317   0.0000       0.842563        22.9273 
 318   0.0000       0.843943        22.9648 
 319   0.0000       0.848870        23.0989 
 320   0.0000       0.853635        23.2286 
 321   0.0000       0.859583        23.3904 
 322   0.0000       0.859987        23.4014 
 323   0.0000       0.871232        23.7074 
 324   0.0000       0.876235        23.8436 
 325   0.0000       0.878587        23.9076 
 326   0.0000       0.885601        24.0984 
 327   0.0000       0.887527        24.1508 
 328   0.0000       0.891629        24.2625 
 329   0.0000       0.901073        24.5195 
 330   0.0000       0.903140        24.5757 
 331   0.0000       0.904403        24.6101 
 332   0.0000       0.907331        24.6897 
 333   0.0000       0.916477        24.9386 
 334   0.0000       0.921910        25.0865 
 335   0.0000       0.928169        25.2568 
 336   0.0000       0.931890        25.3580 
 337   0.0000       0.935291        25.4506 
 338   0.0000       0.938902        25.5488 
 339   0.0000       0.941270        25.6133 
 340   0.0000       0.944862        25.7110 
 341   0.0000       0.950120        25.8541 
 342   0.0000       0.958106        26.0714 
 343   0.0000       0.966559        26.3014 
 344   0.0000       0.968264        26.3478 
 345   0.0000       0.973203        26.4822 
 346   0.0000       0.977143        26.5894 
 347   0.0000       0.981438        26.7063 
 348   0.0000       0.985014        26.8036 
 349   0.0000       0.987863        26.8811 
 350   0.0000       0.996547        27.1174 
 351   0.0000       1.003242        27.2996 
 352   0.0000       1.007613        27.4185 
 353   0.0000       1.017753        27.6945 
 354   0.0000       1.023535        27.8518 
 355   0.0000       1.027866        27.9697 
 356   0.0000       1.034756        28.1571 
 357   0.0000       1.041419        28.3384 
 358   0.0000       1.045894        28.4602 
 359   0.0000       1.051304        28.6074 
 360   0.0000       1.056742        28.7554 
 361   0.0000       1.063427        28.9373 
 362   0.0000       1.065350        28.9897 
 363   0.0000       1.078569        29.3494 
 364   0.0000       1.080040        29.3894 
 365   0.0000       1.084690        29.5159 
 366   0.0000       1.091357        29.6973 
 367   0.0000       1.110359        30.2144 
 368   0.0000       1.112945        30.2848 
 369   0.0000       1.124899        30.6100 
 370   0.0000       1.127973        30.6937 
 371   0.0000       1.132914        30.8282 
 372   0.0000       1.139600        31.0101 
 373   0.0000       1.144694        31.1487 
 374   0.0000       1.154940        31.4275 
 375   0.0000       1.157673        31.5019 
 376   0.0000       1.159998        31.5652 
 377   0.0000       1.162985        31.6464 
 378   0.0000       1.166795        31.7501 
 379   0.0000       1.171532        31.8790 
 380   0.0000       1.179312        32.0907 
 381   0.0000       1.180236        32.1159 
 382   0.0000       1.197595        32.5882 
 383   0.0000       1.199442        32.6385 
 384   0.0000       1.202775        32.7292 
 385   0.0000       1.206301        32.8251 
 386   0.0000       1.219213        33.1765 
 387   0.0000       1.223004        33.2796 
 388   0.0000       1.232164        33.5289 
 389   0.0000       1.236518        33.6474 
 390   0.0000       1.242134        33.8002 
 391   0.0000       1.245499        33.8917 
 392   0.0000       1.263705        34.3872 
 393   0.0000       1.268614        34.5207 
 394   0.0000       1.275233        34.7008 
 395   0.0000       1.279312        34.8118 
 396   0.0000       1.291431        35.1416 
 397   0.0000       1.295358        35.2485 
 398   0.0000       1.301361        35.4118 
 399   0.0000       1.306568        35.5535 
 400   0.0000       1.310669        35.6651 
 401   0.0000       1.324122        36.0312 
 402   0.0000       1.325214        36.0609 
 403   0.0000       1.329152        36.1681 
 404   0.0000       1.334003        36.3001 
 405   0.0000       1.338469        36.4216 
 406   0.0000       1.341366        36.5004 
 407   0.0000       1.342986        36.5445 
 408   0.0000       1.346941        36.6521 
 409   0.0000       1.356194        36.9039 
 410   0.0000       1.363816        37.1113 
 411   0.0000       1.366831        37.1934 
 412   0.0000       1.375336        37.4248 
 413   0.0000       1.376847        37.4659 
 414   0.0000       1.381649        37.5966 
 415   0.0000       1.384436        37.6724 
 416   0.0000       1.386663        37.7330 
 417   0.0000       1.396452        37.9994 
 418   0.0000       1.401174        38.1279 
 419   0.0000       1.405101        38.2347 
 420   0.0000       1.406408        38.2703 
 421   0.0000       1.410132        38.3716 
 422   0.0000       1.423275        38.7293 
 423   0.0000       1.435048        39.0497 
 424   0.0000       1.437461        39.1153 
 425   0.0000       1.444625        39.3103 
 426   0.0000       1.451703        39.5029 
 427   0.0000       1.458383        39.6846 
 428   0.0000       1.464939        39.8630 
 429   0.0000       1.472765        40.0760 
 430   0.0000       1.482903        40.3518 
 431   0.0000       1.490849        40.5681 
 432   0.0000       1.500508        40.8309 
 433   0.0000       1.502811        40.8936 
 434   0.0000       1.510153        41.0934 
 435   0.0000       1.516866        41.2760 
 436   0.0000       1.526844        41.5475 
 437   0.0000       1.533750        41.7355 
 438   0.0000       1.538901        41.8756 
 439   0.0000       1.546888        42.0930 
 440   0.0000       1.548889        42.1474 
 441   0.0000       1.555665        42.3318 
 442   0.0000       1.560514        42.4638 
 443   0.0000       1.575240        42.8645 
 444   0.0000       1.576642        42.9026 
 445   0.0000       1.583241        43.0822 
 446   0.0000       1.591073        43.2953 
 447   0.0000       1.592870        43.3442 
 448   0.0000       1.601082        43.5677 
 449   0.0000       1.608878        43.7798 
 450   0.0000       1.610083        43.8126 
 451   0.0000       1.614421        43.9306 
 452   0.0000       1.619600        44.0715 
 453   0.0000       1.624284        44.1990 
 454   0.0000       1.630927        44.3798 
 455   0.0000       1.632748        44.4293 
 456   0.0000       1.637912        44.5698 
 457   0.0000       1.645160        44.7671 
 458   0.0000       1.651759        44.9467 
 459   0.0000       1.652382        44.9636 
 460   0.0000       1.656967        45.0884 
 461   0.0000       1.663403        45.2635 
 462   0.0000       1.669379        45.4261 
 463   0.0000       1.672137        45.5012 
 464   0.0000       1.674740        45.5720 
 465   0.0000       1.680594        45.7313 
 466   0.0000       1.687396        45.9164 
 467   0.0000       1.690856        46.0105 
 468   0.0000       1.694527        46.1104 
 469   0.0000       1.698718        46.2245 
 470   0.0000       1.705416        46.4067 
 471   0.0000       1.709772        46.5253 
 472   0.0000       1.711452        46.5710 
 473   0.0000       1.717514        46.7359 
 474   0.0000       1.719618        46.7932 
 475   0.0000       1.725885        46.9637 
 476   0.0000       1.732672        47.1484 
 477   0.0000       1.740466        47.3605 
 478   0.0000       1.750885        47.6440 
 479   0.0000       1.754507        47.7426 
 480   0.0000       1.760041        47.8931 
 481   0.0000       1.767490        48.0958 
 482   0.0000       1.770579        48.1799 
 483   0.0000       1.773656        48.2636 
 484   0.0000       1.776019        48.3279 
 485   0.0000       1.783088        48.5203 
 486   0.0000       1.790158        48.7127 
 487   0.0000       1.799127        48.9567 
 488   0.0000       1.802215        49.0408 
 489   0.0000       1.813600        49.3506 
 490   0.0000       1.815714        49.4081 
 491   0.0000       1.821426        49.5635 
 492   0.0000       1.823294        49.6143 
 493   0.0000       1.827488        49.7285 
 494   0.0000       1.843206        50.1562 
 495   0.0000       1.846817        50.2545 
 496   0.0000       1.848364        50.2966 
 497   0.0000       1.854448        50.4621 
 498   0.0000       1.859744        50.6062 
 499   0.0000       1.861881        50.6644 
 500   0.0000       1.867195        50.8090 
 501   0.0000       1.873383        50.9773 
 502   0.0000       1.873534        50.9815 
 503   0.0000       1.885635        51.3107 
 504   0.0000       1.886937        51.3462 
 505   0.0000       1.893763        51.5319 
 506   0.0000       1.897703        51.6391 
 507   0.0000       1.901428        51.7405 
 508   0.0000       1.907194        51.8974 
 509   0.0000       1.919504        52.2324 
 510   0.0000       1.925149        52.3860 
 511   0.0000       1.931960        52.5713 
 512   0.0000       1.943568        52.8872 
 513   0.0000       1.953585        53.1598 
 514   0.0000       1.960688        53.3530 
 515   0.0000       1.970251        53.6133 
[...]
   107a -> 117a  :     0.072244 
   108a -> 114a  :     0.216507 
   110a -> 114a  :     0.018061 
   110a -> 118a  :     0.081899 

STATE 17:  E=   0.187228 au      5.095 eV    41091.8 cm**-1 <S**2> =   0.000000
   102a -> 111a  :     0.010248 
   105a -> 115a  :     0.012184 
   109a -> 112a  :     0.689973 
   109a -> 113a  :     0.185421 
   109a -> 115a  :     0.020183 
   109a -> 116a  :     0.022474 

STATE 18:  E=   0.208089 au      5.662 eV    45670.2 cm**-1 <S**2> =   0.000000
    98a -> 111a  :     0.038974 
   100a -> 111a  :     0.024447 
   102a -> 111a  :     0.138830 
   102a -> 114a  :     0.010856 
   104a -> 112a  :     0.168807 
   105a -> 112a  :     0.048405 
   106a -> 112a  :     0.209789 
   106a -> 113a  :     0.044828 
   106a -> 115a  :     0.012485 
   106a -> 117a  :     0.024895 
   107a -> 112a  :     0.032007 
   107a -> 113a  :     0.047662 
   107a -> 115a  :     0.014327 
   107a -> 116a  :     0.015582 
   107a -> 117a  :     0.010560 
   108a -> 118a  :     0.016540 
   109a -> 112a  :     0.018496 
   110a -> 118a  :     0.013023 
   110a -> 122a  :     0.023723 

STATE 19:  E=   0.195829 au      5.329 eV    42979.4 cm**-1 <S**2> =   0.000000
   106a -> 114a  :     0.011910 
   107a -> 114a  :     0.010512 
   108a -> 112a  :     0.793261 
   108a -> 113a  :     0.018338 
   108a -> 115a  :     0.012956 
   108a -> 116a  :     0.012181 
   110a -> 112a  :     0.061928 
   110a -> 113a  :     0.021263 

STATE 20:  E=   0.212989 au      5.796 eV    46745.6 cm**-1 <S**2> =   0.000000
   102a -> 111a  :     0.033676 
   105a -> 112a  :     0.014127 
   106a -> 112a  :     0.226612 
   106a -> 113a  :     0.010918 
   107a -> 112a  :     0.112095 
   108a -> 114a  :     0.191182 
   110a -> 114a  :     0.238068 
   110a -> 115a  :     0.021660 
   110a -> 118a  :     0.089005 

STATE 21:  E=   0.212081 au      5.771 eV    46546.4 cm**-1 <S**2> =   0.000000
   107a -> 114a  :     0.012060 
   108a -> 112a  :     0.012216 
   108a -> 115a  :     0.031513 
   108a -> 116a  :     0.011040 
   110a -> 113a  :     0.017876 
   110a -> 115a  :     0.749474 
   110a -> 116a  :     0.045506 
   110a -> 117a  :     0.012486 
   110a -> 118a  :     0.010264 

STATE 22:  E=   0.208876 au      5.684 eV    45843.0 cm**-1 <S**2> =   0.000000
    97a -> 111a  :     0.176525 
   103a -> 111a  :     0.017888 
   103a -> 114a  :     0.012866 
   104a -> 112a  :     0.016486 
   105a -> 112a  :     0.061129 
   106a -> 112a  :     0.047987 
   106a -> 113a  :     0.032771 
   107a -> 112a  :     0.344134 
   107a -> 114a  :     0.017720 
   108a -> 112a  :     0.010441 
   108a -> 113a  :     0.014987 
   110a -> 114a  :     0.018061 
   110a -> 116a  :     0.127509 

STATE 23:  E=   0.206822 au      5.628 eV    45392.1 cm**-1 <S**2> =   0.000000
    97a -> 111a  :     0.431000 
   103a -> 111a  :     0.057291 
   103a -> 114a  :     0.033893 
   104a -> 112a  :     0.012488 
   105a -> 112a  :     0.027383 
   106a -> 112a  :     0.036257 
   106a -> 113a  :     0.021854 
   107a -> 112a  :     0.226685 
   110a -> 116a  :     0.037867 

STATE 24:  E=   0.214736 au      5.843 eV    47129.0 cm**-1 <S**2> =   0.000000
    97a -> 111a  :     0.127016 
   103a -> 111a  :     0.032816 
   103a -> 114a  :     0.013770 
   105a -> 113a  :     0.014488 
   106a -> 112a  :     0.012289 
   107a -> 112a  :     0.046240 
   107a -> 114a  :     0.074924 
   108a -> 112a  :     0.011118 
   108a -> 113a  :     0.026384 
   110a -> 113a  :     0.010640 
   110a -> 115a  :     0.010292 
   110a -> 116a  :     0.490147 
   110a -> 117a  :     0.011607 

STATE 25:  E=   0.226643 au      6.167 eV    49742.4 cm**-1 <S**2> =   0.000000
    98a -> 111a  :     0.023988 
   105a -> 112a  :     0.259266 
   105a -> 113a  :     0.186491 
   105a -> 115a  :     0.031712 
   105a -> 116a  :     0.015766 
   106a -> 112a  :     0.010866 
   106a -> 117a  :     0.010492 
   107a -> 112a  :     0.020623 
   107a -> 113a  :     0.056928 
   107a -> 115a  :     0.014835 
   107a -> 116a  :     0.016310 
   108a -> 114a  :     0.021122 
   109a -> 115a  :     0.091375 
   109a -> 116a  :     0.080004 
   110a -> 114a  :     0.010156 
   110a -> 116a  :     0.028725 

STATE 26:  E=   0.227811 au      6.199 eV    49998.7 cm**-1 <S**2> =   0.000000
   106a -> 114a  :     0.030265 
   106a -> 118a  :     0.038047 
   107a -> 114a  :     0.306371 
   108a -> 113a  :     0.058712 
   108a -> 115a  :     0.046310 
   108a -> 116a  :     0.073864 
   108a -> 117a  :     0.010909 
   110a -> 113a  :     0.032019 
   110a -> 116a  :     0.022550 
   110a -> 117a  :     0.282735 

STATE 27:  E=   0.219703 au      5.978 eV    48219.3 cm**-1 <S**2> =   0.000000
    93a -> 111a  :     0.039410 
    95a -> 111a  :     0.226629 
    96a -> 111a  :     0.046798 
    99a -> 111a  :     0.109610 
   100a -> 111a  :     0.106343 
   101a -> 111a  :     0.048169 
   105a -> 112a  :     0.019933 
   107a -> 112a  :     0.025251 
   107a -> 113a  :     0.050180 
   107a -> 115a  :     0.043329 
   107a -> 116a  :     0.044560 
   107a -> 117a  :     0.033452 
   108a -> 114a  :     0.051643 
   109a -> 114a  :     0.012365 
   110a -> 118a  :     0.010172 

STATE 28:  E=   0.221847 au      6.037 eV    48689.7 cm**-1 <S**2> =   0.000000
    95a -> 111a  :     0.019741 
   104a -> 115a  :     0.012804 
   104a -> 116a  :     0.015167 
   105a -> 112a  :     0.012297 
   105a -> 114a  :     0.011055 
   105a -> 115a  :     0.177410 
   105a -> 116a  :     0.167784 
   106a -> 115a  :     0.021219 
   106a -> 116a  :     0.017366 
   109a -> 112a  :     0.012783 
   109a -> 113a  :     0.322574 
   109a -> 115a  :     0.033795 
   109a -> 116a  :     0.019537 
   109a -> 117a  :     0.065888 

STATE 29:  E=   0.226642 au      6.167 eV    49742.1 cm**-1 <S**2> =   0.000000
    93a -> 111a  :     0.013092 
    95a -> 111a  :     0.191792 
    98a -> 111a  :     0.067607 
    99a -> 111a  :     0.046004 
   101a -> 111a  :     0.031968 
   104a -> 112a  :     0.017397 
   104a -> 113a  :     0.023143 
   105a -> 112a  :     0.010931 
   105a -> 116a  :     0.014643 
   106a -> 113a  :     0.025600 
   106a -> 116a  :     0.010776 
   107a -> 113a  :     0.083568 
   107a -> 115a  :     0.044029 
   107a -> 116a  :     0.052044 
   107a -> 117a  :     0.025665 
   108a -> 114a  :     0.020452 
   109a -> 113a  :     0.015128 
   110a -> 114a  :     0.065835 
   110a -> 118a  :     0.107735 

STATE 30:  E=   0.226904 au      6.174 eV    49799.6 cm**-1 <S**2> =   0.000000
   102a -> 113a  :     0.019204 
   104a -> 114a  :     0.016331 
   105a -> 114a  :     0.045034 
   105a -> 118a  :     0.013375 
   106a -> 114a  :     0.284896 
   106a -> 118a  :     0.046869 
   107a -> 118a  :     0.019245 
   108a -> 112a  :     0.022583 
   108a -> 113a  :     0.269415 
   108a -> 115a  :     0.028274 
   108a -> 116a  :     0.015698 
   108a -> 117a  :     0.049172 
   110a -> 113a  :     0.020353 
   110a -> 115a  :     0.013358 
   110a -> 116a  :     0.034569 


-------------------------
TD-DFT-EXCITATION SPECTRA
-------------------------

Center of mass = (  0.2696, -0.0009, -0.0102)
Calculating the Dipole integrals                  ... done
Transforming integrals                            ... done
Calculating the Linear Momentum integrals         ... done
Transforming integrals                            ... done
Calculating angular momentum integrals            ... done
Transforming integrals                            ... done

-----------------------------------------------------------------------------
         ABSORPTION SPECTRUM VIA TRANSITION ELECTRIC DIPOLE MOMENTS
-----------------------------------------------------------------------------
State   Energy    Wavelength  fosc         T2        TX        TY        TZ  
        (cm-1)      (nm)                 (au**2)    (au)      (au)      (au) 
-----------------------------------------------------------------------------
   1   22969.7    435.4   0.284931946   4.08377   2.02062   0.00939   0.02763
   2   26827.3    372.8   0.059602971   0.73142   0.85466   0.02555   0.01794
   3   24732.0    404.3   0.004374020   0.05822   0.19277  -0.14502  -0.00583
   4   29235.1    342.1   0.285712778   3.21737  -0.01403   1.79360   0.01271
   5   28526.3    350.6   0.019065151   0.22002  -0.02302  -0.43861  -0.16466
   6   31568.9    316.8   0.035525214   0.37047   0.00728  -0.58790  -0.15746
   7   33571.4    297.9   0.026999370   0.26476   0.00432   0.51098   0.06034
   8   38580.2    259.2   0.307093585   2.62048  -0.06176   1.52313   0.54473
   9   38703.3    258.4   0.897907404   7.63763  -0.01477  -2.75975   0.14549
  10   41284.1    242.2   0.004890209   0.03900  -0.03752   0.18344   0.06276
  11   44574.6    224.3   0.182997124   1.35155  -1.15935  -0.03611   0.07849
  12   44714.1    223.6   0.052993265   0.39017  -0.36864   0.50192   0.04845
  13   44049.0    227.0   0.059205055   0.44248  -0.21808  -0.58342   0.23356
  14   42630.7    234.6   0.027668498   0.21367   0.46147   0.01742  -0.02032
  15   37954.6    263.5   0.001864516   0.01617  -0.03768   0.11820   0.02794
  16   47284.7    211.5   0.038070223   0.26506   0.50879  -0.00907   0.07813
  17   41091.8    243.4   0.000381838   0.00306  -0.01448   0.03216  -0.04260
  18   45670.2    219.0   0.008496713   0.06125   0.24234   0.01756   0.04702
  19   42979.4    232.7   0.044813520   0.34326  -0.03990   0.56690   0.14245
  20   46745.6    213.9   0.583817580   4.11161   2.02645   0.07146  -0.00346
  21   46546.4    214.8   0.080560262   0.56978  -0.65499   0.32035  -0.19532
  22   45843.0    218.1   0.036540130   0.26241  -0.37064  -0.29956   0.18787
  23   45392.1    220.3   0.002950980   0.02140   0.03529  -0.14135   0.01332
  24   47129.0    212.2   0.154448959   1.07888  -0.71795  -0.55781   0.50227
  25   49742.4    201.0   1.501486906   9.93734   3.14376  -0.10491   0.20766
  26   49998.7    200.0   0.167428711   1.10242  -0.04813  -0.39839   0.97025
  27   48219.3    207.4   0.064747783   0.44206   0.65715  -0.00752  -0.10075
  28   48689.7    205.4   0.205292807   1.38807  -0.41578   0.19491   1.08499
  29   49742.1    201.0   0.163196051   1.08009  -1.00537  -0.00660  -0.26323
  30   49799.6    200.8   0.123944767   0.81937   0.07813   0.84647  -0.31105

-----------------------------------------------------------------------------
         ABSORPTION SPECTRUM VIA TRANSITION VELOCITY DIPOLE MOMENTS
-----------------------------------------------------------------------------
State   Energy    Wavelength   fosc        P2         PX        PY        PZ  
        (cm-1)      (nm)                 (au**2)     (au)      (au)      (au) 
-----------------------------------------------------------------------------
   1   22969.7    435.4   0.375946462   0.05902  -0.24291  -0.00113  -0.00334
   2   26827.3    372.8   0.079080470   0.01450  -0.12033  -0.00362  -0.00251
   3   24732.0    404.3   0.007186946   0.00121  -0.02781   0.02099   0.00086
   4   29235.1    342.1   0.346063305   0.06915   0.00206  -0.26294  -0.00183
   5   28526.3    350.6   0.025239055   0.00492   0.00352   0.06537   0.02520
   6   31568.9    316.8   0.045839912   0.00989  -0.00119   0.09603   0.02584
   7   33571.4    297.9   0.039421541   0.00905  -0.00082  -0.09445  -0.01112
   8   38580.2    259.2   0.376343793   0.09923   0.01364  -0.29590  -0.10718
   9   38703.3    258.4   1.098731100   0.29063   0.00378   0.53832  -0.02884
  10   41284.1    242.2   0.005468478   0.00154   0.00770  -0.03632  -0.01284
  11   44574.6    224.3   0.200612180   0.06112   0.24652   0.00771  -0.01682
  12   44714.1    223.6   0.059693818   0.01824   0.07944  -0.10869  -0.01083
  13   44049.0    227.0   0.068812379   0.02072   0.04692   0.12639  -0.05039
  14   42630.7    234.6   0.033954792   0.00989  -0.09928  -0.00378   0.00466
  15   37954.6    263.5   0.002893117   0.00075   0.00806  -0.02564  -0.00530
  16   47284.7    211.5   0.041747003   0.01349  -0.11482   0.00203  -0.01745
  17   41091.8    243.4   0.000448665   0.00013   0.00381  -0.00706   0.00785
  18   45670.2    219.0   0.009812484   0.00306  -0.05422  -0.00400  -0.01035
  19   42979.4    232.7   0.061157042   0.01796   0.00913  -0.12984  -0.03198
  20   46745.6    213.9   0.707778318   0.22612  -0.47523  -0.01676   0.00088
  21   46546.4    214.8   0.101258904   0.03221   0.15571  -0.07600   0.04682
  22   45843.0    218.1   0.049104549   0.01539   0.08971   0.07238  -0.04581
  23   45392.1    220.3   0.004106706   0.00127  -0.00869   0.03443  -0.00362
  24   47129.0    212.2   0.196303285   0.06323   0.17391   0.13451  -0.12204
  25   49742.4    201.0   1.730978078   0.58847  -0.76504   0.02547  -0.05040
  26   49998.7    200.0   0.195749952   0.06689   0.01178   0.09833  -0.23892
  27   48219.3    207.4   0.082483170   0.02718  -0.16297   0.00186   0.02488
  28   48689.7    205.4   0.258185685   0.08592   0.10416  -0.04870  -0.26962
  29   49742.1    201.0   0.197306485   0.06708   0.25054   0.00156   0.06560
  30   49799.6    200.8   0.153700082   0.05231  -0.01980  -0.21417   0.07779

-------------------------------------------------------------------
                             CD SPECTRUM
-------------------------------------------------------------------
State  Energy     Wavelength     R         MX        MY        MZ   
       (cm-1)       (nm)     (1e40*cgs)   (au)      (au)      (au)  
-------------------------------------------------------------------
   1   22969.7    435.4     44.87048   0.04723  -0.02050  -0.00223
   2   26827.3    372.8     10.70453   0.02657  -0.00107   0.00160
   3   24732.0    404.3      3.47216   0.03361  -0.00436  -0.04348
   4   29235.1    342.1     40.91472   0.01174   0.04788   0.08469
   5   28526.3    350.6    -14.30451  -0.00188   0.15562  -0.22999
   6   31568.9    316.8    -58.48357  -0.01442   0.06783   0.53391
   7   33571.4    297.9     -3.97628   0.00884   0.00162  -0.15417
   8   38580.2    259.2    132.92220   0.01743   0.29795  -0.31355
   9   38703.3    258.4    -204.87881  -0.03480   0.18440   0.50735
  10   41284.1    242.2     -8.42426   0.00235  -0.03908  -0.16910
  11   44574.6    224.3     34.13345  -0.06886   0.11398  -0.04221
  12   44714.1    223.6     73.94804   0.00495   0.25438   0.63982
  13   44049.0    227.0    -112.58272   0.01715   0.08958  -0.78269
  14   42630.7    234.6     -6.51848  -0.02783  -0.04336   0.01119
  15   37954.6    263.5      2.48439   0.00844   0.05479  -0.03180
  16   47284.7    211.5      5.20750   0.02338   0.03940  -0.00631
  17   41091.8    243.4     -0.79498  -0.00166  -0.06201  -0.00667
  18   45670.2    219.0     -0.29241  -0.00613   0.02323   0.00971
  19   42979.4    232.7    -25.33347   0.01166  -0.14161   0.18961
  20   46745.6    213.9    -38.85259  -0.03994  -0.01832   0.04590
  21   46546.4    214.8     52.57092  -0.17191   0.17410   0.29112
  22   45843.0    218.1     18.94444  -0.08188  -0.20572  -0.27568
  23   45392.1    220.3      3.46891   0.00921  -0.06584  -0.17070
  24   47129.0    212.2     69.76024  -0.06278  -0.53742  -0.39199
  25   49742.4    201.0     -8.49227  -0.00695  -0.23440  -0.09988
  26   49998.7    200.0    -108.32152   0.06065  -1.05441  -0.66674
  27   48219.3    207.4     26.87161   0.09220  -0.08684   0.04212
  28   48689.7    205.4     -6.19080   0.01427   1.20281  -0.22271
  29   49742.1    201.0    -10.60672   0.01966  -0.24181   0.01645
  30   49799.6    200.8     87.00994   0.01644  -0.11534  -0.90311

Total run time:     6445.080 sec

           *** ORCA-CIS/TD-DFT FINISHED WITHOUT ERROR ***

Maximum memory used throughout the entire CIS-calculation: 4105.2 MB

-----------------------
CIS/TD-DFT TOTAL ENERGY
-----------------------

    E(SCF)  =  -1454.445933802 Eh
    DE(CIS) =      0.104657812 Eh (Root  1)
    ----------------------------- ---------
    E(tot)  =  -1454.341275990 Eh



-------------------------------------------------------------------------------
                          DFT DISPERSION CORRECTION                            
                                                                               
                              DFTD3 V3.1  Rev 1                                
                          USING Becke-Johnson damping                          
-------------------------------------------------------------------------------
The B2PLYP functional is recognized
Active option DFTDOPT                   ...         4   

molecular C6(AA) [au] = 33255.287139 


            DFT-D V3
 parameters
 s6 scaling factor         :     0.6400 
 a1 scaling factor         :     0.3065 
 s8 scaling factor         :     0.9147 
 a2 scaling factor         :     5.0570 
 ad hoc parameters k1-k3   :    16.0000     1.3333    -4.0000 

 Edisp/kcal,au: -38.347813681039  -0.061111124494 
 E6   /kcal   : -21.454601221 
 E8   /kcal   : -16.893212460 
 % E8         :  44.052609102 

-------------------------   ----------------
Dispersion correction           -0.061111124
-------------------------   ----------------


-------------------------   --------------------
FINAL SINGLE POINT ENERGY     -1454.402387114140
-------------------------   --------------------


                            ***************************************
                            *     ORCA property calculations      *
                            ***************************************


  WARNING: The energy has been calculated at the MP2 level but the densities
           used in the property calculations are still SCF densities
           MP2 response densities have not been calculated 
           use %mp2 Density relaxed end
           or  %mp2 Density unrelaxed end

                                    ---------------------
                                    Active property flags
                                    ---------------------
   (+) Dipole Moment


------------------------------------------------------------------------------
                       ORCA ELECTRIC PROPERTIES CALCULATION
------------------------------------------------------------------------------

Dipole Moment Calculation                       ... on
Quadrupole Moment Calculation                   ... off
Polarizability Calculation                      ... off
GBWName                                         ... BF3-Acr_p_M06L_def2TZVP_coords.gbw
Electron density                                ... BF3-Acr_p_M06L_def2TZVP_coords.scfp
The origin for moment calculation is the CENTER OF MASS  = ( 0.269627, -0.000920 -0.010201)

-------------
DIPOLE MOMENT
-------------
                                X             Y             Z
Electronic contribution:     44.74016      -0.12116      -1.85393
Nuclear contribution   :    -59.85722       0.20415       2.26466
                        -----------------------------------------
Total Dipole Moment    :    -15.11706       0.08299       0.41073
                        -----------------------------------------
Magnitude (a.u.)       :     15.12286
Magnitude (Debye)      :     38.43926



--------------------
Rotational spectrum 
--------------------
 
Rotational constants in cm-1:     0.012130     0.001892     0.001710 
Rotational constants in MHz :   363.659825    56.710211    51.257227 

 Dipole components along the rotational axes: 
x,y,z [a.u.] :   -15.115553    -0.083426     0.462703 
x,y,z [Debye]:   -38.420684    -0.212052     1.176097 

 

Timings for individual modules:

Sum of individual times         ...     7234.140 sec (= 120.569 min)
GTO integral calculation        ...        2.650 sec (=   0.044 min)   0.0 %
SCF iterations                  ...      324.820 sec (=   5.414 min)   4.5 %
MP2 module                      ...      458.846 sec (=   7.647 min)   6.3 %
CIS module                      ...     6447.824 sec (= 107.464 min)  89.1 %
                             ****ORCA TERMINATED NORMALLY****
TOTAL RUN TIME: 0 days 2 hours 0 minutes 36 seconds 909 msec
