
                                 *****************
                                 * O   R   C   A *
                                 *****************

                                            #,                                       
                                            ###                                      
                                            ####                                     
                                            #####                                    
                                            ######                                   
                                           ########,                                 
                                     ,,################,,,,,                         
                               ,,#################################,,                 
                          ,,##########################################,,             
                       ,#########################################, ''#####,          
                    ,#############################################,,   '####,        
                  ,##################################################,,,,####,       
                ,###########''''           ''''###############################       
              ,#####''   ,,,,##########,,,,          '''####'''          '####       
            ,##' ,,,,###########################,,,                        '##       
           ' ,,###''''                  '''############,,,                           
         ,,##''                                '''############,,,,        ,,,,,,###''
      ,#''                                            '''#######################'''  
     '                                                          ''''####''''         
             ,#######,   #######,   ,#######,      ##                                
            ,#'     '#,  ##    ##  ,#'     '#,    #''#        ######   ,####,        
            ##       ##  ##   ,#'  ##            #'  '#       #        #'  '#        
            ##       ##  #######   ##           ,######,      #####,   #    #        
            '#,     ,#'  ##    ##  '#,     ,#' ,#      #,         ##   #,  ,#        
             '#######'   ##     ##  '#######'  #'      '#     #####' # '####'        



                  #######################################################
                  #                        -***-                        #
                  #          Department of theory and spectroscopy      #
                  #    Directorship and core code : Frank Neese         #
                  #        Max Planck Institute fuer Kohlenforschung    #
                  #                Kaiser Wilhelm Platz 1               #
                  #                 D-45470 Muelheim/Ruhr               #
                  #                      Germany                        #
                  #                                                     #
                  #                  All rights reserved                #
                  #                        -***-                        #
                  #######################################################


                         Program Version 5.0.2 -  RELEASE  -


 With contributions from (in alphabetic order):
   Daniel Aravena         : Magnetic Suceptibility
   Michael Atanasov       : Ab Initio Ligand Field Theory (pilot matlab implementation)
   Alexander A. Auer      : GIAO ZORA, VPT2 properties, NMR spectrum
   Ute Becker             : Parallelization
   Giovanni Bistoni       : ED, misc. LED, open-shell LED, HFLD
   Martin Brehm           : Molecular dynamics
   Dmytro Bykov           : SCF Hessian
   Vijay G. Chilkuri      : MRCI spin determinant printing, contributions to CSF-ICE
   Dipayan Datta          : RHF DLPNO-CCSD density
   Achintya Kumar Dutta   : EOM-CC, STEOM-CC
   Dmitry Ganyushin       : Spin-Orbit,Spin-Spin,Magnetic field MRCI
   Miquel Garcia          : C-PCM and meta-GGA Hessian, CC/C-PCM, Gaussian charge scheme
   Yang Guo               : DLPNO-NEVPT2, F12-NEVPT2, CIM, IAO-localization
   Andreas Hansen         : Spin unrestricted coupled pair/coupled cluster methods
   Benjamin Helmich-Paris : MC-RPA, TRAH-SCF, COSX integrals
   Lee Huntington         : MR-EOM, pCC
   Robert Izsak           : Overlap fitted RIJCOSX, COSX-SCS-MP3, EOM
   Marcus Kettner         : VPT2
   Christian Kollmar      : KDIIS, OOCD, Brueckner-CCSD(T), CCSD density, CASPT2, CASPT2-K
   Simone Kossmann        : Meta GGA functionals, TD-DFT gradient, OOMP2, MP2 Hessian
   Martin Krupicka        : Initial AUTO-CI
   Lucas Lang             : DCDCAS
   Marvin Lechner         : AUTO-CI (C++ implementation), FIC-MRCC
   Dagmar Lenk            : GEPOL surface, SMD
   Dimitrios Liakos       : Extrapolation schemes; Compound Job, initial MDCI parallelization
   Dimitrios Manganas     : Further ROCIS development; embedding schemes
   Dimitrios Pantazis     : SARC Basis sets
   Anastasios Papadopoulos: AUTO-CI, single reference methods and gradients
   Taras Petrenko         : DFT Hessian,TD-DFT gradient, ASA, ECA, R-Raman, ABS, FL, XAS/XES, NRVS
   Peter Pinski           : DLPNO-MP2, DLPNO-MP2 Gradient
   Christoph Reimann      : Effective Core Potentials
   Marius Retegan         : Local ZFS, SOC
   Christoph Riplinger    : Optimizer, TS searches, QM/MM, DLPNO-CCSD(T), (RO)-DLPNO pert. Triples
   Tobias Risthaus        : Range-separated hybrids, TD-DFT gradient, RPA, STAB
   Michael Roemelt        : Original ROCIS implementation
   Masaaki Saitow         : Open-shell DLPNO-CCSD energy and density
   Barbara Sandhoefer     : DKH picture change effects
   Avijit Sen             : IP-ROCIS
   Kantharuban Sivalingam : CASSCF convergence, NEVPT2, FIC-MRCI
   Bernardo de Souza      : ESD, SOC TD-DFT
   Georgi Stoychev        : AutoAux, RI-MP2 NMR, DLPNO-MP2 response
   Willem Van den Heuvel  : Paramagnetic NMR
   Boris Wezisla          : Elementary symmetry handling
   Frank Wennmohs         : Technical directorship


 We gratefully acknowledge several colleagues who have allowed us to
 interface, adapt or use parts of their codes:
   Stefan Grimme, W. Hujo, H. Kruse, P. Pracht,  : VdW corrections, initial TS optimization,
                  C. Bannwarth, S. Ehlert          DFT functionals, gCP, sTDA/sTD-DF
   Ed Valeev, F. Pavosevic, A. Kumar             : LibInt (2-el integral package), F12 methods
   Garnet Chan, S. Sharma, J. Yang, R. Olivares  : DMRG
   Ulf Ekstrom                                   : XCFun DFT Library
   Mihaly Kallay                                 : mrcc  (arbitrary order and MRCC methods)
   Jiri Pittner, Ondrej Demel                    : Mk-CCSD
   Frank Weinhold                                : gennbo (NPA and NBO analysis)
   Christopher J. Cramer and Donald G. Truhlar   : smd solvation model
   Lars Goerigk                                  : TD-DFT with DH, B97 family of functionals
   V. Asgeirsson, H. Jonsson                     : NEB implementation
   FAccTs GmbH                                   : IRC, NEB, NEB-TS, DLPNO-Multilevel, CI-OPT
                                                   MM, QMMM, 2- and 3-layer-ONIOM, Crystal-QMMM,
                                                   LR-CPCM, SF, NACMEs, symmetry and pop. for TD-DFT,
                                                   nearIR, NL-DFT gradient (VV10), updates on ESD,
                                                   ML-optimized integration grids
   S Lehtola, MJT Oliveira, MAL Marques          : LibXC Library
   Liviu Ungur et al                             : ANISO software


 Your calculation uses the libint2 library for the computation of 2-el integrals
 For citations please refer to: http://libint.valeyev.net

 Your ORCA version has been built with support for libXC version: 5.1.0
 For citations please refer to: https://tddft.org/programs/libxc/

 This ORCA versions uses:
   CBLAS   interface :  Fast vector & matrix operations
   LAPACKE interface :  Fast linear algebra routines
   SCALAPACK package :  Parallel linear algebra routines
   Shared memory     :  Shared parallel matrices
   BLAS/LAPACK       :  OpenBLAS 0.3.15  USE64BITINT DYNAMIC_ARCH NO_AFFINITY Zen SINGLE_THREADED
        Core in use  :  Zen
   Copyright (c) 2011-2014, The OpenBLAS Project


Your calculation utilizes the SMD solvation module
Please cite in your paper:
A.V. Marenich, C.J. Cramer, D.G. Truhlar J. Phys. Chem. B, 113, (2009), 6378 

================================================================================

----- Orbital basis set information -----
Your calculation utilizes the basis: def2-TZVP
   F. Weigend and R. Ahlrichs, Phys. Chem. Chem. Phys. 7, 3297 (2005).

----- AuxJ basis set information -----
Your calculation utilizes the auxiliary basis: def2/J
   F. Weigend, Phys. Chem. Chem. Phys. 8, 1057 (2006).

----- AuxC basis set information -----
Your calculation utilizes the auxiliary basis: def2-TZVP/C
  H-La, Hf-Rn : A. Hellweg, C. Hattig, S. Hofener and W. Klopper, Theor. Chem. Acc. 117, 587 (2007).
        Ce-Lu : J. Chmela and M. E. Harding, Mol. Phys. (2018).

================================================================================
                                        WARNINGS
                       Please study these warnings very carefully!
================================================================================


WARNING: Post HF methods need fully converged wavefunctions
  ===> : Setting SCFConvForced true
         You can overwrite this default with %scf ConvForced false 


WARNING: MDCI localization with Augmented Hessian Foster-Boys
  ===> : Switching off randomization!

INFO   : the flag for use of the SHARK integral package has been found!

================================================================================
                                       INPUT FILE
================================================================================
NAME = BF3-Acr_p_STEOM-DLPNO-CCSD_DEF2-TZVP_RIJCOSX_SMD.inp
|  1> %maxcore 38400
|  2> %pal
|  3>  nprocs= 4
|  4> end
|  5> !STEOM-DLPNO-CCSD DEF2-TZVP DEF2-TZVP/C def2/J TightSCF TightPNO CPCM
|  6> %MDCI
|  7>    Dorootwise true
|  8>    OTHRESH 0.005
|  9>    VTHRESH 0.005
| 10>    TCutPNOSingles 1e-11
| 11>    DTol 1e-5
| 12>    NROOTS  25
| 13>    DOSOLV  TRUE
| 14>    MAXITER 500
| 15> END
| 16> %CPCM
| 17>    SMD          TRUE
| 18>    SMDsolvent   "ACETONITRILE"
| 19> END
| 20> 
| 21> 
| 22> * xyz 0 1
| 23> C                  -1.33517900    3.59951500    0.01496600
| 24> C                  -1.99941600    2.40569100   -0.06161400
| 25> C                  -1.27852900    1.19839100   -0.05656400
| 26> C                   0.14681400    1.22248100   -0.00378800
| 27> C                   0.78287200    2.48471500    0.11273800
| 28> C                   0.06482600    3.64387900    0.11890300
| 29> C                   0.87039300    0.01271300   -0.03377000
| 30> C                   0.16140500   -1.20443600   -0.09601700
| 31> C                  -1.26500900   -1.19505800   -0.10071500
| 32> C                  -1.97286100   -2.40970700   -0.12793000
| 33> H                  -3.05211800   -2.40114300   -0.11061500
| 34> C                  -1.29378600   -3.59640200   -0.18090600
| 35> C                   0.10968600   -3.62619400   -0.22761800
| 36> C                   0.81490700   -2.45972300   -0.18912700
| 37> H                  -1.90341100    4.52055100    0.01020300
| 38> H                  -3.07689300    2.38605600   -0.12303900
| 39> H                   1.85800200    2.51440200    0.20994300
| 40> H                   0.56938500    4.59585900    0.21170600
| 41> H                  -1.85221400   -4.52318100   -0.20235400
| 42> H                   0.62740400   -4.57268200   -0.30223200
| 43> H                   1.89343600   -2.47802700   -0.24240000
| 44> N                  -1.93575900   -0.00191000   -0.08975100
| 45> C                   2.34016300    0.01909200   -0.00022100
| 46> C                   3.03378200   -0.63478900    1.02206500
| 47> C                   3.07600300    0.67822300   -0.98770700
| 48> C                   4.41729100   -0.61163300    1.05294000
| 49> C                   4.46058100    0.66574600   -0.95363000
| 50> C                   5.17266500    0.02959800    0.06609100
| 51> H                   5.00464300    1.17230600   -1.74368700
| 52> H                   2.55250900    1.18188800   -1.79213400
| 53> C                  -3.38215200   -0.00910800   -0.11245000
| 54> C                  -4.08300000    0.01602500    1.07835000
| 55> C                  -4.04762200   -0.03955400   -1.33022100
| 56> C                  -5.46937200    0.01138600    1.06517500
| 57> H                  -3.54605200    0.03998200    2.01828600
| 58> C                  -5.42627000   -0.04411500   -1.35017500
| 59> H                  -3.48259400   -0.05934600   -2.25346900
| 60> C                  -6.14715000   -0.01833900   -0.15319800
| 61> H                  -6.01021200    0.03110300    2.00014500
| 62> H                  -5.96618700   -0.06701500   -2.28747400
| 63> O                  -7.48941500   -0.02427900   -0.27426500
| 64> C                  -8.25978000    0.00391500    0.91824300
| 65> H                  -9.30015500   -0.00518900    0.60609500
| 66> H                  -8.06384600   -0.87126300    1.54134300
| 67> H                  -8.06624400    0.90924100    1.49749300
| 68> H                   4.92649100   -1.10906800    1.87219600
| 69> B                   6.78084300   -0.00531600    0.09357000
| 70> F                   7.34166600    1.03029900   -0.69206700
| 71> F                   7.26987200   -1.24050000   -0.41765900
| 72> F                   7.28020500    0.12750000    1.41408500
| 73> H                   2.47622100   -1.13985700    1.80237700
| 74> *
| 75> 
| 76> 
| 77>                          ****END OF INPUT****
================================================================================

                       ****************************
                       * Single Point Calculation *
                       ****************************

---------------------------------
CARTESIAN COORDINATES (ANGSTROEM)
---------------------------------
  C     -1.335179    3.599515    0.014966
  C     -1.999416    2.405691   -0.061614
  C     -1.278529    1.198391   -0.056564
  C      0.146814    1.222481   -0.003788
  C      0.782872    2.484715    0.112738
  C      0.064826    3.643879    0.118903
  C      0.870393    0.012713   -0.033770
  C      0.161405   -1.204436   -0.096017
  C     -1.265009   -1.195058   -0.100715
  C     -1.972861   -2.409707   -0.127930
  H     -3.052118   -2.401143   -0.110615
  C     -1.293786   -3.596402   -0.180906
  C      0.109686   -3.626194   -0.227618
  C      0.814907   -2.459723   -0.189127
  H     -1.903411    4.520551    0.010203
  H     -3.076893    2.386056   -0.123039
  H      1.858002    2.514402    0.209943
  H      0.569385    4.595859    0.211706
  H     -1.852214   -4.523181   -0.202354
  H      0.627404   -4.572682   -0.302232
  H      1.893436   -2.478027   -0.242400
  N     -1.935759   -0.001910   -0.089751
  C      2.340163    0.019092   -0.000221
  C      3.033782   -0.634789    1.022065
  C      3.076003    0.678223   -0.987707
  C      4.417291   -0.611633    1.052940
  C      4.460581    0.665746   -0.953630
  C      5.172665    0.029598    0.066091
  H      5.004643    1.172306   -1.743687
  H      2.552509    1.181888   -1.792134
  C     -3.382152   -0.009108   -0.112450
  C     -4.083000    0.016025    1.078350
  C     -4.047622   -0.039554   -1.330221
  C     -5.469372    0.011386    1.065175
  H     -3.546052    0.039982    2.018286
  C     -5.426270   -0.044115   -1.350175
  H     -3.482594   -0.059346   -2.253469
  C     -6.147150   -0.018339   -0.153198
  H     -6.010212    0.031103    2.000145
  H     -5.966187   -0.067015   -2.287474
  O     -7.489415   -0.024279   -0.274265
  C     -8.259780    0.003915    0.918243
  H     -9.300155   -0.005189    0.606095
  H     -8.063846   -0.871263    1.541343
  H     -8.066244    0.909241    1.497493
  H      4.926491   -1.109068    1.872196
  B      6.780843   -0.005316    0.093570
  F      7.341666    1.030299   -0.692067
  F      7.269872   -1.240500   -0.417659
  F      7.280205    0.127500    1.414085
  H      2.476221   -1.139857    1.802377

----------------------------
CARTESIAN COORDINATES (A.U.)
----------------------------
  NO LB      ZA    FRAG     MASS         X           Y           Z
   0 C     6.0000    0    12.011   -2.523123    6.802098    0.028282
   1 C     6.0000    0    12.011   -3.778349    4.546097   -0.116434
   2 C     6.0000    0    12.011   -2.416070    2.264631   -0.106890
   3 C     6.0000    0    12.011    0.277438    2.310154   -0.007158
   4 C     6.0000    0    12.011    1.479414    4.695431    0.213044
   5 C     6.0000    0    12.011    0.122503    6.885933    0.224694
   6 C     6.0000    0    12.011    1.644804    0.024024   -0.063816
   7 C     6.0000    0    12.011    0.305011   -2.276054   -0.181446
   8 C     6.0000    0    12.011   -2.390521   -2.258332   -0.190324
   9 C     6.0000    0    12.011   -3.728167   -4.553686   -0.241753
  10 H     1.0000    0     1.008   -5.767667   -4.537503   -0.209032
  11 C     6.0000    0    12.011   -2.444901   -6.796215   -0.341863
  12 C     6.0000    0    12.011    0.207277   -6.852514   -0.430136
  13 C     6.0000    0    12.011    1.539951   -4.648203   -0.357398
  14 H     1.0000    0     1.008   -3.596926    8.542603    0.019281
  15 H     1.0000    0     1.008   -5.814485    4.508992   -0.232510
  16 H     1.0000    0     1.008    3.511115    4.751531    0.396735
  17 H     1.0000    0     1.008    1.075982    8.684915    0.400066
  18 H     1.0000    0     1.008   -3.500177   -8.547573   -0.382394
  19 H     1.0000    0     1.008    1.185622   -8.641117   -0.571136
  20 H     1.0000    0     1.008    3.578075   -4.682792   -0.458070
  21 N     7.0000    0    14.007   -3.658054   -0.003609   -0.169605
  22 C     6.0000    0    12.011    4.422267    0.036079   -0.000418
  23 C     6.0000    0    12.011    5.733017   -1.199577    1.931423
  24 C     6.0000    0    12.011    5.812803    1.281656   -1.866496
  25 C     6.0000    0    12.011    8.347470   -1.155819    1.989768
  26 C     6.0000    0    12.011    8.429276    1.258078   -1.802100
  27 C     6.0000    0    12.011    9.774920    0.055932    0.124894
  28 H     1.0000    0     1.008    9.457405    2.215337   -3.295091
  29 H     1.0000    0     1.008    4.823543    2.233445   -3.386642
  30 C     6.0000    0    12.011   -6.391341   -0.017212   -0.212500
  31 C     6.0000    0    12.011   -7.715752    0.030283    2.037786
  32 C     6.0000    0    12.011   -7.648897   -0.074746   -2.513753
  33 C     6.0000    0    12.011  -10.335615    0.021516    2.012889
  34 H     1.0000    0     1.008   -6.701067    0.075555    3.814008
  35 C     6.0000    0    12.011  -10.254164   -0.083365   -2.551461
  36 H     1.0000    0     1.008   -6.581149   -0.112148   -4.258439
  37 C     6.0000    0    12.011  -11.616430   -0.034656   -0.289502
  38 H     1.0000    0     1.008  -11.357655    0.058776    3.779726
  39 H     1.0000    0     1.008  -11.274459   -0.126640   -4.322699
  40 O     8.0000    0    15.999  -14.152943   -0.045881   -0.518286
  41 C     6.0000    0    12.011  -15.608722    0.007398    1.735228
  42 H     1.0000    0     1.008  -17.574746   -0.009806    1.145354
  43 H     1.0000    0     1.008  -15.238461   -1.646448    2.912716
  44 H     1.0000    0     1.008  -15.242992    1.718216    2.829852
  45 H     1.0000    0     1.008    9.309719   -2.095835    3.537938
  46 B     5.0000    0    10.810   12.813936   -0.010046    0.176822
  47 F     9.0000    0    18.998   13.873738    1.946983   -1.307817
  48 F     9.0000    0    18.998   13.738067   -2.344205   -0.789261
  49 F     9.0000    0    18.998   13.757594    0.240940    2.672233
  50 H     1.0000    0     1.008    4.679380   -2.154018    3.405999

--------------------------------
INTERNAL COORDINATES (ANGSTROEM)
--------------------------------
 C      0   0   0     0.000000000000     0.00000000     0.00000000
 C      1   0   0     1.368316860798     0.00000000     0.00000000
 C      2   1   0     1.406156769094   120.00148407     0.00000000
 C      3   2   1     1.426523151556   119.85947348   358.50227796
 C      4   3   2     1.418232265461   117.78693217     3.23050953
 C      5   4   3     1.363557569095   121.38562112   357.33704299
 C      4   3   2     1.409965993699   119.83396463   181.64249768
 C      7   4   3     1.409961120511   118.91848107   359.07322385
 C      8   7   4     1.426452564050   119.82144588   358.76078399
 C      9   8   7     1.406117812749   119.85321751   181.63815918
 H     10   9   8     1.079429860329   119.74654684   178.72612388
 C     10   9   8     1.368281526304   120.00662064   358.49699462
 C     12  10   9     1.404565138750   121.03723432   359.11079111
 C     13  12  10     1.363624878683   119.84669542     1.51760182
 H      1   2   3     1.082228074524   119.16949806   180.01041456
 H      2   1   3     1.079405044170   120.24041925   179.81524930
 H      5   4   3     1.079923444923   118.57818347   176.59356941
 H      6   5   4     1.081414861045   120.20169344   179.81720853
 H     12  10   9     1.082229718095   119.16922644   180.06276183
 H     13  12  10     1.081405895427   119.94919664   182.02531665
 H     14  13  12     1.079999005919   120.03787447   181.07762757
 N      9   8   7     1.368805289915   119.71703539     2.17239735
 C      7   4   3     1.470166684408   120.58675129   179.09545839
 C     23   7   4     1.397761190303   120.71459015   120.94732681
 C     23   7   4     1.396797329951   120.83567936   300.96584747
 C     24  23   7     1.384047188156   120.30024783   180.67011130
 C     25  23   7     1.385053484723   120.33000176   180.67691114
 C     27  25  23     1.396989197811   122.11455852   358.63602354
 H     27  25  23     1.084802542721   118.63536342   178.97308938
 H     25  23   7     1.083894459156   119.30946568   359.40815726
 C     22   9   8     1.446589010830   119.04500586   179.19585889
 C     31  22   9     1.381963902131   119.56819294    92.38880077
 C     31  22   9     1.388071859904   119.55315748   272.31204011
 C     32  31  22     1.386442362066   119.92489211   179.90199655
 H     32  31  22     1.082758872810   119.79647414   359.94519784
 C     33  31  22     1.378799939346   119.48111127   180.10795308
 H     33  31  22     1.082605760908   119.89134801     0.10099587
 C     34  32  31     1.394524779284   119.62867578     0.00000000
 H     34  32  31     1.080308088736   119.49345859   179.99719893
 H     36  33  31     1.081926149185   120.76950438   179.96203739
 O     38  34  32     1.347726913107   124.23826250   180.05168186
 C     41  38  34     1.419976219845   117.69682973     0.11200196
 H     42  41  38     1.086231742008   106.14780307   179.94691436
 H     42  41  38     1.092053237732   111.46452654   298.76218187
 H     42  41  38     1.092063144727   111.45461102    61.13560858
 H     26  24  23     1.085314061809   118.56539299   178.59368842
 B     28  27  25     1.608791646709   122.13280074   179.00196119
 F     47  28  27     1.415714081770   111.75486689    21.17627787
 F     47  28  27     1.423440889935   110.86212834   261.37333319
 F     47  28  27     1.418013526778   111.46268067   142.11394267
 H     24  23   7     1.083907178078   119.29071372   359.24118129

---------------------------
INTERNAL COORDINATES (A.U.)
---------------------------
 C      0   0   0     0.000000000000     0.00000000     0.00000000
 C      1   0   0     2.585744131336     0.00000000     0.00000000
 C      2   1   0     2.657251194947   120.00148407     0.00000000
 C      3   2   1     2.695738080139   119.85947348   358.50227796
 C      4   3   2     2.680070576013   117.78693217     3.23050953
 C      5   4   3     2.576750373425   121.38562112   357.33704299
 C      4   3   2     2.664449586234   119.83396463   181.64249768
 C      7   4   3     2.664440377243   118.91848107   359.07322385
 C      8   7   4     2.695604689084   119.82144588   358.76078399
 C      9   8   7     2.657177578124   119.85321751   181.63815918
 H     10   9   8     2.039826816799   119.74654684   178.72612388
 C     10   9   8     2.585677358819   120.00662064   358.49699462
 C     12  10   9     2.654243449491   121.03723432   359.11079111
 C     13  12  10     2.576877570112   119.84669542     1.51760182
 H      1   2   3     2.045114675292   119.16949806   180.01041456
 H      2   1   3     2.039779921054   120.24041925   179.81524930
 H      5   4   3     2.040759556505   118.57818347   176.59356941
 H      6   5   4     2.043577924528   120.20169344   179.81720853
 H     12  10   9     2.045117781191   119.16922644   180.06276183
 H     13  12  10     2.043560981965   119.94919664   182.02531665
 H     14  13  12     2.040902346094   120.03787447   181.07762757
 N      9   8   7     2.586667128603   119.71703539     2.17239735
 C      7   4   3     2.778212404745   120.58675129   179.09545839
 C     23   7   4     2.641385850297   120.71459015   120.94732681
 C     23   7   4     2.639564418199   120.83567936   300.96584747
 C     24  23   7     2.615470142038   120.30024783   180.67011130
 C     25  23   7     2.617371766959   120.33000176   180.67691114
 C     27  25  23     2.639926995909   122.11455852   358.63602354
 H     27  25  23     2.049979715123   118.63536342   178.97308938
 H     25  23   7     2.048263685880   119.30946568   359.40815726
 C     22   9   8     2.733657058809   119.04500586   179.19585889
 C     31  22   9     2.611533301993   119.56819294    92.38880077
 C     31  22   9     2.623075669421   119.55315748   272.31204011
 C     32  31  22     2.619996364771   119.92489211   179.90199655
 H     32  31  22     2.046117738684   119.79647414   359.94519784
 C     33  31  22     2.605554278831   119.48111127   180.10795308
 H     33  31  22     2.045828399122   119.89134801     0.10099587
 C     34  32  31     2.635269919814   119.62867578     0.00000000
 H     34  32  31     2.041486427971   119.49345859   179.99719893
 H     36  33  31     2.044544119087   120.76950438   179.96203739
 O     38  34  32     2.546834769088   124.23826250   180.05168186
 C     41  38  34     2.683366172188   117.69682973     0.11200196
 H     42  41  38     2.052680510367   106.14780307   179.94691436
 H     42  41  38     2.063681542975   111.46452654   298.76218187
 H     42  41  38     2.063700264484   111.45461102    61.13560858
 H     26  24  23     2.050946346113   118.56539299   178.59368842
 B     28  27  25     3.040175618820   122.13280074   179.00196119
 F     47  28  27     2.675311898482   111.75486689    21.17627787
 F     47  28  27     2.689913449802   110.86212834   261.37333319
 F     47  28  27     2.679657219806   111.46268067   142.11394267
 H     24  23   7     2.048287721159   119.29071372   359.24118129

---------------------
BASIS SET INFORMATION
---------------------
There are 6 groups of distinct atoms

 Group   1 Type C   : 11s6p2d1f contracted to 5s3p2d1f pattern {62111/411/11/1}
 Group   2 Type H   : 5s1p contracted to 3s1p pattern {311/1}
 Group   3 Type N   : 11s6p2d1f contracted to 5s3p2d1f pattern {62111/411/11/1}
 Group   4 Type O   : 11s6p2d1f contracted to 5s3p2d1f pattern {62111/411/11/1}
 Group   5 Type B   : 11s6p2d1f contracted to 5s3p2d1f pattern {62111/411/11/1}
 Group   6 Type F   : 11s6p2d1f contracted to 5s3p2d1f pattern {62111/411/11/1}

Atom   0C    basis set group =>   1
Atom   1C    basis set group =>   1
Atom   2C    basis set group =>   1
Atom   3C    basis set group =>   1
Atom   4C    basis set group =>   1
Atom   5C    basis set group =>   1
Atom   6C    basis set group =>   1
Atom   7C    basis set group =>   1
Atom   8C    basis set group =>   1
Atom   9C    basis set group =>   1
Atom  10H    basis set group =>   2
Atom  11C    basis set group =>   1
Atom  12C    basis set group =>   1
Atom  13C    basis set group =>   1
Atom  14H    basis set group =>   2
Atom  15H    basis set group =>   2
Atom  16H    basis set group =>   2
Atom  17H    basis set group =>   2
Atom  18H    basis set group =>   2
Atom  19H    basis set group =>   2
Atom  20H    basis set group =>   2
Atom  21N    basis set group =>   3
Atom  22C    basis set group =>   1
Atom  23C    basis set group =>   1
Atom  24C    basis set group =>   1
Atom  25C    basis set group =>   1
Atom  26C    basis set group =>   1
Atom  27C    basis set group =>   1
Atom  28H    basis set group =>   2
Atom  29H    basis set group =>   2
Atom  30C    basis set group =>   1
Atom  31C    basis set group =>   1
Atom  32C    basis set group =>   1
Atom  33C    basis set group =>   1
Atom  34H    basis set group =>   2
Atom  35C    basis set group =>   1
Atom  36H    basis set group =>   2
Atom  37C    basis set group =>   1
Atom  38H    basis set group =>   2
Atom  39H    basis set group =>   2
Atom  40O    basis set group =>   4
Atom  41C    basis set group =>   1
Atom  42H    basis set group =>   2
Atom  43H    basis set group =>   2
Atom  44H    basis set group =>   2
Atom  45H    basis set group =>   2
Atom  46B    basis set group =>   5
Atom  47F    basis set group =>   6
Atom  48F    basis set group =>   6
Atom  49F    basis set group =>   6
Atom  50H    basis set group =>   2
---------------------------------
AUXILIARY/J BASIS SET INFORMATION
---------------------------------
There are 6 groups of distinct atoms

 Group   1 Type C   : 12s5p4d2f1g contracted to 6s4p3d1f1g pattern {711111/2111/211/2/1}
 Group   2 Type H   : 5s2p1d contracted to 3s1p1d pattern {311/2/1}
 Group   3 Type N   : 12s5p4d2f1g contracted to 6s4p3d1f1g pattern {711111/2111/211/2/1}
 Group   4 Type O   : 12s5p4d2f1g contracted to 6s4p3d1f1g pattern {711111/2111/211/2/1}
 Group   5 Type B   : 12s5p4d2f1g contracted to 6s4p3d1f1g pattern {711111/2111/211/2/1}
 Group   6 Type F   : 12s5p4d2f1g contracted to 6s4p3d1f1g pattern {711111/2111/211/2/1}

Atom   0C    basis set group =>   1
Atom   1C    basis set group =>   1
Atom   2C    basis set group =>   1
Atom   3C    basis set group =>   1
Atom   4C    basis set group =>   1
Atom   5C    basis set group =>   1
Atom   6C    basis set group =>   1
Atom   7C    basis set group =>   1
Atom   8C    basis set group =>   1
Atom   9C    basis set group =>   1
Atom  10H    basis set group =>   2
Atom  11C    basis set group =>   1
Atom  12C    basis set group =>   1
Atom  13C    basis set group =>   1
Atom  14H    basis set group =>   2
Atom  15H    basis set group =>   2
Atom  16H    basis set group =>   2
Atom  17H    basis set group =>   2
Atom  18H    basis set group =>   2
Atom  19H    basis set group =>   2
Atom  20H    basis set group =>   2
Atom  21N    basis set group =>   3
Atom  22C    basis set group =>   1
Atom  23C    basis set group =>   1
Atom  24C    basis set group =>   1
Atom  25C    basis set group =>   1
Atom  26C    basis set group =>   1
Atom  27C    basis set group =>   1
Atom  28H    basis set group =>   2
Atom  29H    basis set group =>   2
Atom  30C    basis set group =>   1
Atom  31C    basis set group =>   1
Atom  32C    basis set group =>   1
Atom  33C    basis set group =>   1
Atom  34H    basis set group =>   2
Atom  35C    basis set group =>   1
Atom  36H    basis set group =>   2
Atom  37C    basis set group =>   1
Atom  38H    basis set group =>   2
Atom  39H    basis set group =>   2
Atom  40O    basis set group =>   4
Atom  41C    basis set group =>   1
Atom  42H    basis set group =>   2
Atom  43H    basis set group =>   2
Atom  44H    basis set group =>   2
Atom  45H    basis set group =>   2
Atom  46B    basis set group =>   5
Atom  47F    basis set group =>   6
Atom  48F    basis set group =>   6
Atom  49F    basis set group =>   6
Atom  50H    basis set group =>   2
---------------------------------
AUXILIARY/C BASIS SET INFORMATION
---------------------------------
There are 6 groups of distinct atoms

 Group   1 Type C   : 8s6p5d3f1g contracted to 8s6p4d3f1g pattern {11111111/111111/2111/111/1}
 Group   2 Type H   : 4s3p2d contracted to 4s2p1d pattern {1111/21/2}
 Group   3 Type N   : 8s6p5d3f1g contracted to 8s6p4d3f1g pattern {11111111/111111/2111/111/1}
 Group   4 Type O   : 8s6p5d3f1g contracted to 8s6p4d3f1g pattern {11111111/111111/2111/111/1}
 Group   5 Type B   : 8s6p5d3f1g contracted to 8s6p4d3f1g pattern {11111111/111111/2111/111/1}
 Group   6 Type F   : 8s6p5d3f1g contracted to 8s6p4d3f1g pattern {11111111/111111/2111/111/1}

Atom   0C    basis set group =>   1
Atom   1C    basis set group =>   1
Atom   2C    basis set group =>   1
Atom   3C    basis set group =>   1
Atom   4C    basis set group =>   1
Atom   5C    basis set group =>   1
Atom   6C    basis set group =>   1
Atom   7C    basis set group =>   1
Atom   8C    basis set group =>   1
Atom   9C    basis set group =>   1
Atom  10H    basis set group =>   2
Atom  11C    basis set group =>   1
Atom  12C    basis set group =>   1
Atom  13C    basis set group =>   1
Atom  14H    basis set group =>   2
Atom  15H    basis set group =>   2
Atom  16H    basis set group =>   2
Atom  17H    basis set group =>   2
Atom  18H    basis set group =>   2
Atom  19H    basis set group =>   2
Atom  20H    basis set group =>   2
Atom  21N    basis set group =>   3
Atom  22C    basis set group =>   1
Atom  23C    basis set group =>   1
Atom  24C    basis set group =>   1
Atom  25C    basis set group =>   1
Atom  26C    basis set group =>   1
Atom  27C    basis set group =>   1
Atom  28H    basis set group =>   2
Atom  29H    basis set group =>   2
Atom  30C    basis set group =>   1
Atom  31C    basis set group =>   1
Atom  32C    basis set group =>   1
Atom  33C    basis set group =>   1
Atom  34H    basis set group =>   2
Atom  35C    basis set group =>   1
Atom  36H    basis set group =>   2
Atom  37C    basis set group =>   1
Atom  38H    basis set group =>   2
Atom  39H    basis set group =>   2
Atom  40O    basis set group =>   4
Atom  41C    basis set group =>   1
Atom  42H    basis set group =>   2
Atom  43H    basis set group =>   2
Atom  44H    basis set group =>   2
Atom  45H    basis set group =>   2
Atom  46B    basis set group =>   5
Atom  47F    basis set group =>   6
Atom  48F    basis set group =>   6
Atom  49F    basis set group =>   6
Atom  50H    basis set group =>   2


           ************************************************************
           *        Program running with 4 parallel MPI-processes     *
           *              working on a common directory               *
           ************************************************************
------------------------------------------------------------------------------
                           ORCA GTO INTEGRAL CALCULATION
------------------------------------------------------------------------------
------------------------------------------------------------------------------
                   ___                                                        
                  /   \      - P O W E R E D   B Y -                         
                 /     \                                                     
                 |  |  |   _    _      __       _____    __    __             
                 |  |  |  | |  | |    /  \     |  _  \  |  |  /  |          
                  \  \/   | |  | |   /    \    | | | |  |  | /  /          
                 / \  \   | |__| |  /  /\  \   | |_| |  |  |/  /          
                |  |  |   |  __  | /  /__\  \  |    /   |      \           
                |  |  |   | |  | | |   __   |  |    \   |  |\   \          
                \     /   | |  | | |  |  |  |  | |\  \  |  | \   \       
                 \___/    |_|  |_| |__|  |__|  |_| \__\ |__|  \__/        
                                                                              
                      - O R C A' S   B I G   F R I E N D -                    
                                      &                                       
                       - I N T E G R A L  F E E D E R -                       
                                                                              
 v1 FN, 2020, v2 2021                                                         
------------------------------------------------------------------------------


Reading SHARK input file BF3-Acr_p_STEOM-DLPNO-CCSD_DEF2-TZVP_RIJCOSX_SMD.SHARKINP.tmp ... ok
----------------------
SHARK INTEGRAL PACKAGE
----------------------

Number of atoms                             ...     51
Number of basis functions                   ...   1106
Number of shells                            ...    428
Maximum angular momentum                    ...      3
Integral batch strategy                     ... SHARK/LIBINT Hybrid
RI-J (if used) integral strategy            ... SPLIT-RIJ (Revised 2003 algorithm where possible)
Printlevel                                  ...      1
Contraction scheme used                     ... SEGMENTED contraction
Coulomb Range Separation                    ... NOT USED
Exchange Range Separation                   ... NOT USED
Finite Nucleus Model                        ... NOT USED
Auxiliary Coulomb fitting basis             ... AVAILABLE
   # of basis functions in Aux-J            ...   1777
   # of shells in Aux-J                     ...    575
   Maximum angular momentum in Aux-J        ...      4
Auxiliary J/K fitting basis                 ... NOT available
Auxiliary Correlation fitting basis         ... AVAILABLE
   # of basis functions in Aux-C            ...   2717
   # of shells in Aux-C                     ...    837
   Maximum angular momentum in Aux-C        ...      4
Auxiliary 'external' fitting basis          ... NOT available
Integral threshold                          ...     2.500000e-11
Primitive cut-off                           ...     2.500000e-12
Primitive pair pre-selection threshold      ...     2.500000e-12

Calculating pre-screening integrals         ... done (  0.1 sec) Dimension = 428
Organizing shell pair data                  ... done (  1.2 sec)
Shell pair information
Total number of shell pairs                 ...     91806
Shell pairs after pre-screening             ...     54360
Total number of primitive shell pairs       ...    285396
Primitive shell pairs kept                  ...    109136
          la=0 lb=0:  13402 shell pairs
          la=1 lb=0:  15685 shell pairs
          la=1 lb=1:   4579 shell pairs
          la=2 lb=0:   7775 shell pairs
          la=2 lb=1:   4608 shell pairs
          la=2 lb=2:   1170 shell pairs
          la=3 lb=0:   3618 shell pairs
          la=3 lb=1:   2194 shell pairs
          la=3 lb=2:   1065 shell pairs
          la=3 lb=3:    264 shell pairs

Calculating one electron integrals          ... done (  0.2 sec)
Calculating RI/J V-Matrix + Cholesky decomp.... done (  0.3 sec)
Calculating RI/C V-Matrix + Cholesky decomp.... done (  0.6 sec)
Calculating Nuclear repulsion               ... done (  0.0 sec) ENN=   2939.038673459841 Eh

SHARK setup successfully completed in   3.1 seconds

Maximum memory used throughout the entire GTOINT-calculation: 114.0 MB


           ************************************************************
           *        Program running with 4 parallel MPI-processes     *
           *              working on a common directory               *
           ************************************************************
-------------------------------------------------------------------------------
                                 ORCA SCF
-------------------------------------------------------------------------------

------------
SCF SETTINGS
------------
Hamiltonian:
 Ab initio Hamiltonian  Method          .... Hartree-Fock(GTOs)


General Settings:
 Integral files         IntName         .... BF3-Acr_p_STEOM-DLPNO-CCSD_DEF2-TZVP_RIJCOSX_SMD
 Hartree-Fock type      HFTyp           .... RHF
 Total Charge           Charge          ....    0
 Multiplicity           Mult            ....    1
 Number of Electrons    NEL             ....  222
 Basis Dimension        Dim             .... 1106
 Nuclear Repulsion      ENuc            ....   2939.0386734598 Eh

Convergence Acceleration:
 DIIS                   CNVDIIS         .... on
   Start iteration      DIISMaxIt       ....    12
   Startup error        DIISStart       ....  0.200000
   # of expansion vecs  DIISMaxEq       ....     5
   Bias factor          DIISBfac        ....   1.050
   Max. coefficient     DIISMaxC        ....  10.000
 Trust-Rad. Augm. Hess. CNVTRAH         .... auto
   Auto Start mean grad. ratio tolernc. ....  1.125000
   Auto Start start iteration           ....    20
   Auto Start num. interpolation iter.  ....    10
   Max. Number of Micro iterations      ....    16
   Max. Number of Macro iterations      .... Maxiter - #DIIS iter
   Number of Davidson start vectors     ....     2
   Converg. threshold I  (grad. norm)   ....   1.000e-05
   Converg. threshold II (energy diff.) ....   1.000e-08
   Grad. Scal. Fac. for Micro threshold ....   0.100
   Minimum threshold for Micro iter.    ....   0.010
   NR start threshold (gradient norm)   ....   0.001
   Initial trust radius                 ....   0.400
   Minimum AH scaling param. (alpha)    ....   1.000
   Maximum AH scaling param. (alpha)    .... 1000.000
   Orbital update algorithm             .... Taylor
   White noise on init. David. guess    .... on
   Maximum white noise                  ....   0.010
   Quad. conv. algorithm                .... NR
 SOSCF                  CNVSOSCF        .... on
   Start iteration      SOSCFMaxIt      ....   150
   Startup grad/error   SOSCFStart      ....  0.003300
 Level Shifting         CNVShift        .... on
   Level shift para.    LevelShift      ....    0.2500
   Turn off err/grad.   ShiftErr        ....    0.0010
 Zerner damping         CNVZerner       .... off
 Static damping         CNVDamp         .... on
   Fraction old density DampFac         ....    0.7000
   Max. Damping (<1)    DampMax         ....    0.9800
   Min. Damping (>=0)   DampMin         ....    0.0000
   Turn off err/grad.   DampErr         ....    0.1000
 Fernandez-Rico         CNVRico         .... off

SCF Procedure:
 Maximum # iterations   MaxIter         ....   125
 SCF integral mode      SCFMode         .... Direct
   Integral package                     .... SHARK and LIBINT hybrid scheme
 Reset frequency        DirectResetFreq ....    20
 Integral Threshold     Thresh          ....  2.500e-11 Eh
 Primitive CutOff       TCut            ....  2.500e-12 Eh

Convergence Tolerance:
 Convergence Check Mode ConvCheckMode   .... Total+1el-Energy
 Convergence forced     ConvForced      .... 1
 Energy Change          TolE            ....  1.000e-08 Eh
 1-El. energy change                    ....  1.000e-05 Eh
 Orbital Gradient       TolG            ....  1.000e-05
 Orbital Rotation angle TolX            ....  1.000e-05
 DIIS Error             TolErr          ....  5.000e-07


Diagonalization of the overlap matrix:
Smallest eigenvalue                        ... 4.809e-06
Time for diagonalization                   ...    0.186 sec
Threshold for overlap eigenvalues          ... 1.000e-08
Number of eigenvalues below threshold      ... 0
Time for construction of square roots      ...    0.184 sec
Total time needed                          ...    0.376 sec

Time for model grid setup =    0.602 sec

------------------------------
INITIAL GUESS: MODEL POTENTIAL
------------------------------
Loading Hartree-Fock densities                     ... done
Calculating cut-offs                               ... done
Initializing the effective Hamiltonian             ... done
Setting up the integral package (SHARK)            ... done
Starting the Coulomb interaction                   ... done (   1.6 sec)
Reading the grid                                   ... done
Mapping shells                                     ... done
Starting the XC term evaluation                    ... done (   0.5 sec)
Transforming the Hamiltonian                       ... done (   0.1 sec)
Diagonalizing the Hamiltonian                      ... done (   0.2 sec)
Back transforming the eigenvectors                 ... done (   0.1 sec)
Now organizing SCF variables                       ... done
                      ------------------
                      INITIAL GUESS DONE (   3.2 sec)
                      ------------------

--------------------
CPCM SOLVATION MODEL
--------------------
CPCM parameters:
  Epsilon                                         ...      35.6880
  Refrac                                          ...       1.3442
  Rsolv                                           ...       1.3000
  Surface type                                    ... GAUSSIAN VDW
  Epsilon function type                           ...         CPCM
Solvent:                                     ... ACETONITRILE
SMD-CDS solvent descriptors:
  Soln                                       ...    1.3442
  Soln25                                     ...    1.3416
  Sola                                       ...    0.0700
  Solb                                       ...    0.3200
  Solg                                       ...   41.2500
  Solc                                       ...    0.0000
  Solh                                       ...    0.0000
Radii:
 Radius for C  used is    3.4960 Bohr (=   1.8500 Ang.)
 Radius for H  used is    2.2677 Bohr (=   1.2000 Ang.)
 Radius for N  used is    3.5716 Bohr (=   1.8900 Ang.)
 Radius for O  used is    4.0969 Bohr (=   2.1680 Ang.)
 Radius for B  used is    3.6283 Bohr (=   1.9200 Ang.)
 Radius for F  used is    3.2692 Bohr (=   1.7300 Ang.)
Calculating surface                               ...        done! (  0.0s)
GEPOL surface points                              ...         2802
GEPOL Volume                                      ...    2875.3967
GEPOL Surface-area                                ...    1534.0928
Calculating surface distance matrix               ...        done! (  0.1s)
Performing Cholesky decomposition & store         ...        done! (  0.5s)
Overall time for CPCM initialization              ...                 0.6s
--------------
SCF ITERATIONS
--------------
ITER       Energy         Delta-E        Max-DP      RMS-DP      [F,P]     Damp
               ***  Starting incremental Fock matrix formation  ***
  0  -1447.6392842482   0.000000000000 0.03707191  0.00061356  0.3406123 0.7000
  1  -1447.9843661109  -0.345081862675 0.03522962  0.00050168  0.2501938 0.7000
                               ***Turning on DIIS***
  2  -1448.2072745182  -0.222908407331 0.02792064  0.00037875  0.1828946 0.7000
  3  -1451.1495371115  -2.942262593284 0.03695456  0.00030350  0.1327509 0.7000
  4  -1450.9168288001   0.232708311351 0.10242984  0.00078551  0.0935519 0.0000
  5  -1448.7790338618   2.137794938303 0.01068221  0.00008660  0.0045092 0.0000
                      *** Initiating the SOSCF procedure ***
                           *** Shutting down DIIS ***
                      *** Re-Reading the Fockian *** 
                      *** Removing any level shift *** 
ITER      Energy       Delta-E        Grad      Rot      Max-DP    RMS-DP
  6  -1448.69540868   0.0836251839  0.003151  0.003151  0.005858  0.000044
               *** Restarting incremental Fock matrix formation ***
  7  -1448.69867478  -0.0032661000  0.002462  0.008003  0.002450  0.000029
  8  -1448.69888043  -0.0002056533  0.001364  0.015066  0.005171  0.000051
  9  -1448.69903528  -0.0001548500  0.000608  0.001151  0.001134  0.000014
 10  -1448.69905125  -0.0000159646  0.000197  0.000613  0.000489  0.000007
 11  -1448.69905505  -0.0000038009  0.000106  0.000741  0.000388  0.000004
 12  -1448.69905608  -0.0000010335  0.000031  0.000218  0.000107  0.000001
 13  -1448.69905619  -0.0000001059  0.000022  0.000092  0.000110  0.000001
 14  -1448.69905621  -0.0000000247  0.000006  0.000024  0.000028  0.000000
                  ***Gradient check signals convergence***
              ***Rediagonalizing the Fockian in SOSCF/NRSCF***

               *****************************************************
               *                     SUCCESS                       *
               *           SCF CONVERGED AFTER  15 CYCLES          *
               *****************************************************


SMD CDS free energy correction energy :                -4.54455     Kcal/mol
Total Energy after SMD CDS correction =             -1448.706298408 Eh

----------------
TOTAL SCF ENERGY
----------------

Total Energy       :        -1448.70629841 Eh          -39421.30252 eV

Components:
Nuclear Repulsion  :         2939.03867346 Eh           79975.30817 eV
Electronic Energy  :        -4387.74497187 Eh         -119396.61069 eV
One Electron Energy:        -7825.08520655 Eh         -212931.39369 eV
Two Electron Energy:         3437.34023468 Eh           93534.78300 eV
CPCM Dielectric    :           -0.09740472 Eh              -2.65052 eV
SMD CDS (Gcds)     :           -0.00724220 Eh              -0.19707 eV

Virial components:
Potential Energy   :        -2896.32892157 Eh          -78813.11674 eV
Kinetic Energy     :         1447.62262316 Eh           39391.81422 eV
Virial Ratio       :            2.00074859

CPCM Solvation Model Properties:
Surface-charge          :           -0.05661258
Charge-correction       :           -0.00036313 Eh              -0.00988 eV
Free-energy (cav+disp)  :           -0.00724220 Eh              -0.19707 eV

---------------
SCF CONVERGENCE
---------------

  Last Energy change         ...   -1.3192e-09  Tolerance :   1.0000e-08
  Last MAX-Density change    ...    2.4831e-05  Tolerance :   1.0000e-07
  Last RMS-Density change    ...    2.7512e-07  Tolerance :   5.0000e-09
  Last Orbital Gradient      ...    2.3215e-06  Tolerance :   1.0000e-05
  Last Orbital Rotation      ...    6.6846e-06  Tolerance :   1.0000e-05

             **** THE GBW FILE WAS UPDATED (BF3-Acr_p_STEOM-DLPNO-CCSD_DEF2-TZVP_RIJCOSX_SMD.gbw) ****
             **** DENSITY BF3-Acr_p_STEOM-DLPNO-CCSD_DEF2-TZVP_RIJCOSX_SMD.scfp WAS UPDATED ****
             **** ENERGY FILE WAS UPDATED (BF3-Acr_p_STEOM-DLPNO-CCSD_DEF2-TZVP_RIJCOSX_SMD.en.tmp) ****
             **** THE GBW FILE WAS UPDATED (BF3-Acr_p_STEOM-DLPNO-CCSD_DEF2-TZVP_RIJCOSX_SMD.gbw) ****
             **** DENSITY BF3-Acr_p_STEOM-DLPNO-CCSD_DEF2-TZVP_RIJCOSX_SMD.scfp WAS UPDATED ****
----------------
ORBITAL ENERGIES
----------------

  NO   OCC          E(Eh)            E(eV) 
   0   2.0000     -26.229511      -713.7413 
   1   2.0000     -26.228837      -713.7229 
   2   2.0000     -26.227376      -713.6832 
   3   2.0000     -20.587367      -560.2107 
   4   2.0000     -15.656874      -426.0452 
   5   2.0000     -11.327270      -308.2307 
   6   2.0000     -11.327221      -308.2294 
   7   2.0000     -11.316870      -307.9477 
   8   2.0000     -11.308990      -307.7333 
   9   2.0000     -11.276413      -306.8468 
  10   2.0000     -11.270675      -306.6907 
  11   2.0000     -11.268827      -306.6404 
  12   2.0000     -11.268789      -306.6393 
  13   2.0000     -11.261433      -306.4392 
  14   2.0000     -11.261426      -306.4390 
  15   2.0000     -11.255987      -306.2910 
  16   2.0000     -11.255959      -306.2902 
  17   2.0000     -11.248984      -306.1004 
  18   2.0000     -11.248510      -306.0875 
  19   2.0000     -11.248030      -306.0745 
  20   2.0000     -11.242388      -305.9209 
  21   2.0000     -11.242387      -305.9209 
  22   2.0000     -11.238516      -305.8156 
  23   2.0000     -11.238493      -305.8149 
  24   2.0000     -11.236706      -305.7663 
  25   2.0000     -11.236631      -305.7643 
  26   2.0000     -11.234523      -305.7069 
  27   2.0000     -11.233274      -305.6729 
  28   2.0000     -11.223523      -305.4076 
  29   2.0000     -11.223117      -305.3965 
  30   2.0000     -11.203177      -304.8539 
  31   2.0000      -7.648380      -208.1230 
  32   2.0000      -1.565364       -42.5957 
  33   2.0000      -1.519752       -41.3545 
  34   2.0000      -1.517199       -41.2851 
  35   2.0000      -1.418646       -38.6033 
  36   2.0000      -1.349361       -36.7180 
  37   2.0000      -1.200360       -32.6635 
  38   2.0000      -1.183016       -32.1915 
  39   2.0000      -1.163408       -31.6579 
  40   2.0000      -1.149355       -31.2755 
  41   2.0000      -1.112981       -30.2857 
  42   2.0000      -1.059581       -28.8327 
  43   2.0000      -1.042631       -28.3714 
  44   2.0000      -1.042154       -28.3584 
  45   2.0000      -1.034722       -28.1562 
  46   2.0000      -1.021228       -27.7890 
  47   2.0000      -1.013998       -27.5923 
  48   2.0000      -1.002560       -27.2810 
  49   2.0000      -0.946303       -25.7502 
  50   2.0000      -0.924274       -25.1508 
  51   2.0000      -0.892472       -24.2854 
  52   2.0000      -0.878017       -23.8921 
  53   2.0000      -0.851756       -23.1774 
  54   2.0000      -0.837640       -22.7934 
  55   2.0000      -0.826771       -22.4976 
  56   2.0000      -0.825346       -22.4588 
  57   2.0000      -0.795909       -21.6578 
  58   2.0000      -0.774052       -21.0630 
  59   2.0000      -0.766245       -20.8506 
  60   2.0000      -0.759144       -20.6574 
  61   2.0000      -0.741670       -20.1819 
  62   2.0000      -0.718606       -19.5543 
  63   2.0000      -0.708280       -19.2733 
  64   2.0000      -0.691400       -18.8139 
  65   2.0000      -0.687532       -18.7087 
  66   2.0000      -0.685276       -18.6473 
  67   2.0000      -0.683094       -18.5879 
  68   2.0000      -0.678590       -18.4654 
  69   2.0000      -0.663587       -18.0571 
  70   2.0000      -0.656509       -17.8645 
  71   2.0000      -0.655016       -17.8239 
  72   2.0000      -0.632733       -17.2176 
  73   2.0000      -0.630403       -17.1542 
  74   2.0000      -0.625114       -17.0102 
  75   2.0000      -0.623227       -16.9589 
  76   2.0000      -0.620783       -16.8924 
  77   2.0000      -0.617332       -16.7985 
  78   2.0000      -0.614752       -16.7282 
  79   2.0000      -0.611200       -16.6316 
  80   2.0000      -0.608858       -16.5679 
  81   2.0000      -0.603699       -16.4275 
  82   2.0000      -0.601258       -16.3611 
  83   2.0000      -0.584139       -15.8952 
  84   2.0000      -0.576035       -15.6747 
  85   2.0000      -0.575673       -15.6649 
  86   2.0000      -0.570016       -15.5109 
  87   2.0000      -0.564822       -15.3696 
  88   2.0000      -0.561371       -15.2757 
  89   2.0000      -0.559699       -15.2302 
  90   2.0000      -0.553491       -15.0613 
  91   2.0000      -0.535477       -14.5711 
  92   2.0000      -0.527347       -14.3498 
  93   2.0000      -0.523627       -14.2486 
  94   2.0000      -0.523298       -14.2397 
  95   2.0000      -0.518808       -14.1175 
  96   2.0000      -0.500391       -13.6163 
  97   2.0000      -0.499382       -13.5889 
  98   2.0000      -0.491834       -13.3835 
  99   2.0000      -0.483547       -13.1580 
 100   2.0000      -0.476982       -12.9794 
 101   2.0000      -0.475391       -12.9361 
 102   2.0000      -0.443537       -12.0693 
 103   2.0000      -0.426654       -11.6098 
 104   2.0000      -0.372884       -10.1467 
 105   2.0000      -0.352539        -9.5931 
 106   2.0000      -0.343171        -9.3382 
 107   2.0000      -0.336787        -9.1644 
 108   2.0000      -0.335392        -9.1265 
 109   2.0000      -0.326367        -8.8809 
 110   2.0000      -0.307960        -8.3800 
 111   0.0000       0.002438         0.0663 
 112   0.0000       0.082038         2.2324 
 113   0.0000       0.103145         2.8067 
 114   0.0000       0.108964         2.9651 
 115   0.0000       0.122232         3.3261 
 116   0.0000       0.125441         3.4134 
 117   0.0000       0.137194         3.7332 
 118   0.0000       0.147609         4.0166 
 119   0.0000       0.148169         4.0319 
 120   0.0000       0.151667         4.1271 
 121   0.0000       0.156264         4.2522 
 122   0.0000       0.168342         4.5808 
 123   0.0000       0.171202         4.6586 
 124   0.0000       0.178998         4.8708 
 125   0.0000       0.180686         4.9167 
 126   0.0000       0.182756         4.9730 
 127   0.0000       0.184413         5.0181 
 128   0.0000       0.191761         5.2181 
 129   0.0000       0.196009         5.3337 
 130   0.0000       0.196547         5.3483 
 131   0.0000       0.200337         5.4514 
 132   0.0000       0.203055         5.5254 
 133   0.0000       0.207184         5.6378 
 134   0.0000       0.208917         5.6849 
 135   0.0000       0.214871         5.8469 
 136   0.0000       0.218600         5.9484 
 137   0.0000       0.230397         6.2694 
 138   0.0000       0.232092         6.3155 
 139   0.0000       0.233476         6.3532 
 140   0.0000       0.240046         6.5320 
 141   0.0000       0.242408         6.5962 
 142   0.0000       0.248497         6.7620 
 143   0.0000       0.252699         6.8763 
 144   0.0000       0.261075         7.1042 
 145   0.0000       0.270358         7.3568 
 146   0.0000       0.277868         7.5612 
 147   0.0000       0.281465         7.6590 
 148   0.0000       0.288351         7.8464 
 149   0.0000       0.294280         8.0078 
 150   0.0000       0.300940         8.1890 
 151   0.0000       0.306497         8.3402 
 152   0.0000       0.311450         8.4750 
 153   0.0000       0.316354         8.6084 
 154   0.0000       0.319713         8.6998 
 155   0.0000       0.324815         8.8387 
 156   0.0000       0.326792         8.8925 
 157   0.0000       0.332591         9.0503 
 158   0.0000       0.335571         9.1314 
 159   0.0000       0.336875         9.1668 
 160   0.0000       0.343384         9.3440 
 161   0.0000       0.347380         9.4527 
 162   0.0000       0.353224         9.6117 
 163   0.0000       0.355701         9.6791 
 164   0.0000       0.358473         9.7545 
 165   0.0000       0.363408         9.8888 
 166   0.0000       0.368938        10.0393 
 167   0.0000       0.370708        10.0875 
 168   0.0000       0.372891        10.1469 
 169   0.0000       0.379037        10.3141 
 170   0.0000       0.379555        10.3282 
 171   0.0000       0.384553        10.4642 
 172   0.0000       0.390278        10.6200 
 173   0.0000       0.393112        10.6971 
 174   0.0000       0.395005        10.7486 
 175   0.0000       0.404358        11.0031 
 176   0.0000       0.408271        11.1096 
 177   0.0000       0.410021        11.1572 
 178   0.0000       0.413484        11.2515 
 179   0.0000       0.417452        11.3595 
 180   0.0000       0.424248        11.5444 
 181   0.0000       0.425208        11.5705 
 182   0.0000       0.428367        11.6565 
 183   0.0000       0.433292        11.7905 
 184   0.0000       0.437736        11.9114 
 185   0.0000       0.439615        11.9625 
 186   0.0000       0.442196        12.0328 
 187   0.0000       0.447208        12.1691 
 188   0.0000       0.448970        12.2171 
 189   0.0000       0.452206        12.3051 
 190   0.0000       0.459352        12.4996 
 191   0.0000       0.464213        12.6319 
 192   0.0000       0.473224        12.8771 
 193   0.0000       0.476751        12.9730 
 194   0.0000       0.483352        13.1527 
 195   0.0000       0.485437        13.2094 
 196   0.0000       0.486342        13.2340 
 197   0.0000       0.487928        13.2772 
 198   0.0000       0.493702        13.4343 
 199   0.0000       0.498127        13.5547 
 200   0.0000       0.502515        13.6741 
 201   0.0000       0.506778        13.7901 
 202   0.0000       0.509447        13.8627 
 203   0.0000       0.516458        14.0535 
 204   0.0000       0.519611        14.1393 
 205   0.0000       0.522198        14.2097 
 206   0.0000       0.524486        14.2720 
 207   0.0000       0.528100        14.3703 
 208   0.0000       0.530021        14.4226 
 209   0.0000       0.532013        14.4768 
 210   0.0000       0.538245        14.6464 
 211   0.0000       0.547907        14.9093 
 212   0.0000       0.548260        14.9189 
 213   0.0000       0.550422        14.9777 
 214   0.0000       0.554769        15.0960 
 215   0.0000       0.558426        15.1955 
 216   0.0000       0.559437        15.2230 
 217   0.0000       0.561565        15.2809 
 218   0.0000       0.566186        15.4067 
 219   0.0000       0.568129        15.4596 
 220   0.0000       0.571799        15.5594 
 221   0.0000       0.572455        15.5773 
 222   0.0000       0.574418        15.6307 
 223   0.0000       0.577902        15.7255 
 224   0.0000       0.580138        15.7863 
 225   0.0000       0.582728        15.8568 
 226   0.0000       0.584527        15.9058 
 227   0.0000       0.590546        16.0696 
 228   0.0000       0.590984        16.0815 
 229   0.0000       0.595632        16.2080 
 230   0.0000       0.598918        16.2974 
 231   0.0000       0.602408        16.3923 
 232   0.0000       0.608426        16.5561 
 233   0.0000       0.609388        16.5823 
 234   0.0000       0.614380        16.7181 
 235   0.0000       0.619257        16.8508 
 236   0.0000       0.621290        16.9062 
 237   0.0000       0.621416        16.9096 
 238   0.0000       0.623361        16.9625 
 239   0.0000       0.631033        17.1713 
 240   0.0000       0.634784        17.2734 
 241   0.0000       0.636470        17.3192 
 242   0.0000       0.644237        17.5306 
 243   0.0000       0.647050        17.6071 
 244   0.0000       0.649878        17.6841 
 245   0.0000       0.651785        17.7360 
 246   0.0000       0.657193        17.8831 
 247   0.0000       0.661329        17.9957 
 248   0.0000       0.664911        18.0931 
 249   0.0000       0.669586        18.2204 
 250   0.0000       0.671990        18.2858 
 251   0.0000       0.674063        18.3422 
 252   0.0000       0.679552        18.4916 
 253   0.0000       0.682718        18.5777 
 254   0.0000       0.683288        18.5932 
 255   0.0000       0.691338        18.8123 
 256   0.0000       0.694696        18.9037 
 257   0.0000       0.713154        19.4059 
 258   0.0000       0.716597        19.4996 
 259   0.0000       0.719619        19.5818 
 260   0.0000       0.723901        19.6983 
 261   0.0000       0.728571        19.8254 
 262   0.0000       0.731376        19.9017 
 263   0.0000       0.736330        20.0366 
 264   0.0000       0.742434        20.2027 
 265   0.0000       0.754546        20.5322 
 266   0.0000       0.758019        20.6267 
 267   0.0000       0.764033        20.7904 
 268   0.0000       0.769441        20.9376 
 269   0.0000       0.772248        21.0139 
 270   0.0000       0.775440        21.1008 
 271   0.0000       0.782106        21.2822 
 272   0.0000       0.784741        21.3539 
 273   0.0000       0.792556        21.5665 
 274   0.0000       0.794399        21.6167 
 275   0.0000       0.799575        21.7575 
 276   0.0000       0.802208        21.8292 
 277   0.0000       0.811099        22.0711 
 278   0.0000       0.812527        22.1100 
 279   0.0000       0.818929        22.2842 
 280   0.0000       0.821537        22.3552 
 281   0.0000       0.824870        22.4459 
 282   0.0000       0.833641        22.6845 
 283   0.0000       0.840154        22.8618 
 284   0.0000       0.842819        22.9343 
 285   0.0000       0.845479        23.0066 
 286   0.0000       0.846902        23.0454 
 287   0.0000       0.850006        23.1298 
 288   0.0000       0.852442        23.1961 
 289   0.0000       0.856339        23.3022 
 290   0.0000       0.856811        23.3150 
 291   0.0000       0.860771        23.4228 
 292   0.0000       0.869133        23.6503 
 293   0.0000       0.876080        23.8393 
 294   0.0000       0.877749        23.8848 
 295   0.0000       0.882044        24.0016 
 296   0.0000       0.890926        24.2433 
 297   0.0000       0.891446        24.2575 
 298   0.0000       0.894181        24.3319 
 299   0.0000       0.897497        24.4221 
 300   0.0000       0.902335        24.5538 
 301   0.0000       0.904022        24.5997 
 302   0.0000       0.910420        24.7738 
 303   0.0000       0.913662        24.8620 
 304   0.0000       0.918408        24.9912 
 305   0.0000       0.923221        25.1221 
 306   0.0000       0.924912        25.1681 
 307   0.0000       0.929649        25.2970 
 308   0.0000       0.933151        25.3923 
 309   0.0000       0.937030        25.4979 
 310   0.0000       0.940314        25.5872 
 311   0.0000       0.943826        25.6828 
 312   0.0000       0.946333        25.7510 
 313   0.0000       0.947939        25.7947 
 314   0.0000       0.949566        25.8390 
 315   0.0000       0.955056        25.9884 
 316   0.0000       0.956142        26.0180 
 317   0.0000       0.961498        26.1637 
 318   0.0000       0.964036        26.2327 
 319   0.0000       0.969481        26.3809 
 320   0.0000       0.974231        26.5102 
 321   0.0000       0.976697        26.5773 
 322   0.0000       0.979233        26.6463 
 323   0.0000       0.985647        26.8208 
 324   0.0000       0.990236        26.9457 
 325   0.0000       0.992482        27.0068 
 326   0.0000       0.999112        27.1872 
 327   0.0000       1.001748        27.2589 
 328   0.0000       1.004237        27.3267 
 329   0.0000       1.012140        27.5417 
 330   0.0000       1.021708        27.8021 
 331   0.0000       1.026117        27.9221 
 332   0.0000       1.031926        28.0801 
 333   0.0000       1.037965        28.2445 
 334   0.0000       1.045437        28.4478 
 335   0.0000       1.049259        28.5518 
 336   0.0000       1.051155        28.6034 
 337   0.0000       1.054293        28.6888 
 338   0.0000       1.061299        28.8794 
 339   0.0000       1.063846        28.9487 
 340   0.0000       1.067814        29.0567 
 341   0.0000       1.072929        29.1959 
 342   0.0000       1.082950        29.4686 
 343   0.0000       1.090047        29.6617 
 344   0.0000       1.092517        29.7289 
 345   0.0000       1.096161        29.8281 
 346   0.0000       1.100833        29.9552 
 347   0.0000       1.105644        30.0861 
 348   0.0000       1.108691        30.1690 
 349   0.0000       1.112860        30.2825 
 350   0.0000       1.115371        30.3508 
 351   0.0000       1.128098        30.6971 
 352   0.0000       1.128756        30.7150 
 353   0.0000       1.141088        31.0506 
 354   0.0000       1.146751        31.2047 
 355   0.0000       1.151309        31.3287 
 356   0.0000       1.156527        31.4707 
 357   0.0000       1.160792        31.5867 
 358   0.0000       1.168221        31.7889 
 359   0.0000       1.172935        31.9172 
 360   0.0000       1.178991        32.0820 
 361   0.0000       1.183791        32.2126 
 362   0.0000       1.189831        32.3770 
 363   0.0000       1.200360        32.6634 
 364   0.0000       1.200986        32.6805 
 365   0.0000       1.209311        32.9070 
 366   0.0000       1.217149        33.1203 
 367   0.0000       1.238124        33.6911 
 368   0.0000       1.240152        33.7462 
 369   0.0000       1.246282        33.9131 
 370   0.0000       1.252544        34.0835 
 371   0.0000       1.259955        34.2851 
 372   0.0000       1.266852        34.4728 
 373   0.0000       1.271878        34.6095 
 374   0.0000       1.277772        34.7699 
 375   0.0000       1.279762        34.8241 
 376   0.0000       1.282508        34.8988 
 377   0.0000       1.291793        35.1515 
 378   0.0000       1.300732        35.3947 
 379   0.0000       1.306618        35.5549 
 380   0.0000       1.310712        35.6663 
 381   0.0000       1.315767        35.8038 
 382   0.0000       1.331159        36.2227 
 383   0.0000       1.333235        36.2792 
 384   0.0000       1.337819        36.4039 
 385   0.0000       1.340311        36.4717 
 386   0.0000       1.353620        36.8339 
 387   0.0000       1.358192        36.9583 
 388   0.0000       1.363352        37.0987 
 389   0.0000       1.373299        37.3694 
 390   0.0000       1.380307        37.5601 
 391   0.0000       1.384667        37.6787 
 392   0.0000       1.402489        38.1637 
 393   0.0000       1.403068        38.1794 
 394   0.0000       1.413216        38.4556 
 395   0.0000       1.419200        38.6184 
 396   0.0000       1.431193        38.9447 
 397   0.0000       1.435406        39.0594 
 398   0.0000       1.437766        39.1236 
 399   0.0000       1.442809        39.2608 
 400   0.0000       1.446695        39.3666 
 401   0.0000       1.459435        39.7132 
 402   0.0000       1.463501        39.8239 
 403   0.0000       1.469187        39.9786 
 404   0.0000       1.474986        40.1364 
 405   0.0000       1.479345        40.2550 
 406   0.0000       1.483344        40.3638 
 407   0.0000       1.485582        40.4247 
 408   0.0000       1.488632        40.5077 
 409   0.0000       1.496705        40.7274 
 410   0.0000       1.502826        40.8940 
 411   0.0000       1.506714        40.9998 
 412   0.0000       1.513123        41.1742 
 413   0.0000       1.516255        41.2594 
 414   0.0000       1.520356        41.3710 
 415   0.0000       1.524950        41.4960 
 416   0.0000       1.528735        41.5990 
 417   0.0000       1.536459        41.8092 
 418   0.0000       1.539419        41.8897 
 419   0.0000       1.544658        42.0323 
 420   0.0000       1.546510        42.0827 
 421   0.0000       1.551288        42.2127 
 422   0.0000       1.565565        42.6012 
 423   0.0000       1.576794        42.9067 
 424   0.0000       1.580683        43.0126 
 425   0.0000       1.590898        43.2905 
 426   0.0000       1.594046        43.3762 
 427   0.0000       1.604102        43.6498 
 428   0.0000       1.610712        43.8297 
 429   0.0000       1.618260        44.0351 
 430   0.0000       1.632746        44.4293 
 431   0.0000       1.644478        44.7485 
 432   0.0000       1.650224        44.9049 
 433   0.0000       1.652632        44.9704 
 434   0.0000       1.663802        45.2744 
 435   0.0000       1.668634        45.4059 
 436   0.0000       1.684180        45.8289 
 437   0.0000       1.684683        45.8426 
 438   0.0000       1.703649        46.3586 
 439   0.0000       1.706758        46.4432 
 440   0.0000       1.716666        46.7128 
 441   0.0000       1.717521        46.7361 
 442   0.0000       1.726730        46.9867 
 443   0.0000       1.728809        47.0433 
 444   0.0000       1.733791        47.1789 
 445   0.0000       1.740228        47.3540 
 446   0.0000       1.747830        47.5609 
 447   0.0000       1.748421        47.5770 
 448   0.0000       1.758039        47.8387 
 449   0.0000       1.760222        47.8981 
 450   0.0000       1.768830        48.1323 
 451   0.0000       1.775213        48.3060 
 452   0.0000       1.780477        48.4492 
 453   0.0000       1.781570        48.4790 
 454   0.0000       1.792260        48.7699 
 455   0.0000       1.798293        48.9341 
 456   0.0000       1.800058        48.9821 
 457   0.0000       1.807784        49.1923 
 458   0.0000       1.815317        49.3973 
 459   0.0000       1.816208        49.4215 
 460   0.0000       1.821787        49.5733 
 461   0.0000       1.823826        49.6288 
 462   0.0000       1.830086        49.7992 
 463   0.0000       1.837381        49.9977 
 464   0.0000       1.846127        50.2357 
 465   0.0000       1.847726        50.2792 
 466   0.0000       1.850699        50.3601 
 467   0.0000       1.852982        50.4222 
 468   0.0000       1.860726        50.6329 
 469   0.0000       1.864406        50.7331 
 470   0.0000       1.867272        50.8111 
 471   0.0000       1.872479        50.9527 
 472   0.0000       1.873824        50.9893 
 473   0.0000       1.879787        51.1516 
 474   0.0000       1.887033        51.3488 
 475   0.0000       1.892624        51.5009 
 476   0.0000       1.893794        51.5327 
 477   0.0000       1.909032        51.9474 
 478   0.0000       1.911187        52.0060 
 479   0.0000       1.920092        52.2484 
 480   0.0000       1.928407        52.4746 
 481   0.0000       1.934479        52.6398 
 482   0.0000       1.938611        52.7523 
 483   0.0000       1.943384        52.8822 
 484   0.0000       1.943686        52.8904 
 485   0.0000       1.953171        53.1485 
 486   0.0000       1.960844        53.3573 
 487   0.0000       1.974262        53.7224 
 488   0.0000       1.975540        53.7572 
 489   0.0000       1.978194        53.8294 
 490   0.0000       1.989915        54.1483 
 491   0.0000       1.994813        54.2816 
 492   0.0000       1.998036        54.3693 
 493   0.0000       2.001364        54.4599 
 494   0.0000       2.014555        54.8188 
 495   0.0000       2.020252        54.9739 
 496   0.0000       2.023794        55.0702 
 497   0.0000       2.027291        55.1654 
 498   0.0000       2.034602        55.3643 
 499   0.0000       2.035733        55.3951 
 500   0.0000       2.037323        55.4384 
 501   0.0000       2.043928        55.6181 
 502   0.0000       2.046177        55.6793 
 503   0.0000       2.055608        55.9359 
 504   0.0000       2.061861        56.1061 
 505   0.0000       2.066167        56.2233 
 506   0.0000       2.075406        56.4747 
 507   0.0000       2.076656        56.5087 
 508   0.0000       2.081154        56.6311 
 509   0.0000       2.090174        56.8765 
 510   0.0000       2.092971        56.9526 
 511   0.0000       2.102472        57.2112 
 512   0.0000       2.115986        57.5789 
 513   0.0000       2.125135        57.8279 
 514   0.0000       2.132930        58.0400 
 515   0.0000       2.143963        58.3402 
 516   0.0000       2.147004        58.4229 
 517   0.0000       2.152167        58.5634 
 518   0.0000       2.160886        58.8007 
 519   0.0000       2.169083        59.0238 
 520   0.0000       2.170013        59.0490 
 521   0.0000       2.174464        59.1702 
 522   0.0000       2.175130        59.1883 
 523   0.0000       2.179712        59.3130 
 524   0.0000       2.187147        59.5153 
 525   0.0000       2.188367        59.5485 
 526   0.0000       2.199124        59.8412 
 527   0.0000       2.204551        59.9889 
 528   0.0000       2.212228        60.1978 
 529   0.0000       2.221146        60.4404 
 530   0.0000       2.233667        60.7812 
 531   0.0000       2.240607        60.9700 
 532   0.0000       2.243209        61.0408 
 533   0.0000       2.246656        61.1346 
 534   0.0000       2.255722        61.3813 
 535   0.0000       2.264788        61.6280 
 536   0.0000       2.276957        61.9591 
 537   0.0000       2.286164        62.2097 
 538   0.0000       2.287029        62.2332 
 539   0.0000       2.297828        62.5271 
 540   0.0000       2.305269        62.7296 
 541   0.0000       2.308959        62.8300 
 542   0.0000       2.315767        63.0152 
 543   0.0000       2.319923        63.1283 
 544   0.0000       2.335335        63.5477 
 545   0.0000       2.340630        63.6918 
 546   0.0000       2.348506        63.9061 
 547   0.0000       2.355485        64.0960 
 548   0.0000       2.361630        64.2632 
 549   0.0000       2.372354        64.5550 
 550   0.0000       2.378219        64.7146 
 551   0.0000       2.384015        64.8723 
 552   0.0000       2.389203        65.0135 
 553   0.0000       2.400457        65.3198 
 554   0.0000       2.405950        65.4692 
 555   0.0000       2.407733        65.5177 
 556   0.0000       2.411938        65.6322 
 557   0.0000       2.417984        65.7967 
 558   0.0000       2.434416        66.2438 
 559   0.0000       2.438071        66.3433 
 560   0.0000       2.449802        66.6625 
 561   0.0000       2.454353        66.7863 
 562   0.0000       2.457866        66.8819 
 563   0.0000       2.466333        67.1123 
 564   0.0000       2.474661        67.3389 
 565   0.0000       2.481872        67.5352 
 566   0.0000       2.485926        67.6455 
 567   0.0000       2.488974        67.7284 
 568   0.0000       2.500540        68.0431 
 569   0.0000       2.502564        68.0982 
 570   0.0000       2.518774        68.5393 
 571   0.0000       2.530934        68.8702 
 572   0.0000       2.534479        68.9667 
 573   0.0000       2.536112        69.0111 
 574   0.0000       2.542953        69.1973 
 575   0.0000       2.550255        69.3960 
 576   0.0000       2.554461        69.5104 
 577   0.0000       2.563765        69.7636 
 578   0.0000       2.569533        69.9205 
 579   0.0000       2.579234        70.1845 
 580   0.0000       2.579774        70.1992 
 581   0.0000       2.591826        70.5272 
 582   0.0000       2.592059        70.5335 
 583   0.0000       2.595589        70.6296 
 584   0.0000       2.605108        70.8886 
 585   0.0000       2.608340        70.9765 
 586   0.0000       2.614492        71.1439 
 587   0.0000       2.619718        71.2862 
 588   0.0000       2.627973        71.5108 
 589   0.0000       2.631866        71.6167 
 590   0.0000       2.636754        71.7497 
 591   0.0000       2.638224        71.7897 
 592   0.0000       2.657498        72.3142 
 593   0.0000       2.662481        72.4498 
 594   0.0000       2.670453        72.6667 
 595   0.0000       2.676789        72.8391 
 596   0.0000       2.694578        73.3232 
 597   0.0000       2.700456        73.4831 
 598   0.0000       2.707142        73.6651 
 599   0.0000       2.719192        73.9930 
 600   0.0000       2.721988        74.0691 
 601   0.0000       2.732734        74.3615 
 602   0.0000       2.739182        74.5369 
 603   0.0000       2.739938        74.5575 
 604   0.0000       2.744342        74.6773 
 605   0.0000       2.748944        74.8026 
 606   0.0000       2.764304        75.2205 
 607   0.0000       2.779809        75.6425 
 608   0.0000       2.790141        75.9236 
 609   0.0000       2.795131        76.0594 
 610   0.0000       2.799478        76.1777 
 611   0.0000       2.809966        76.4631 
 612   0.0000       2.813522        76.5598 
 613   0.0000       2.821687        76.7820 
 614   0.0000       2.837845        77.2217 
 615   0.0000       2.845006        77.4165 
 616   0.0000       2.848870        77.5217 
 617   0.0000       2.858186        77.7752 
 618   0.0000       2.859805        77.8193 
 619   0.0000       2.867308        78.0234 
 620   0.0000       2.869311        78.0779 
 621   0.0000       2.879541        78.3563 
 622   0.0000       2.882280        78.4308 
 623   0.0000       2.893358        78.7323 
 624   0.0000       2.899055        78.8873 
 625   0.0000       2.908939        79.1563 
 626   0.0000       2.913485        79.2800 
 627   0.0000       2.923452        79.5512 
 628   0.0000       2.925970        79.6197 
 629   0.0000       2.929001        79.7022 
 630   0.0000       2.935628        79.8825 
 631   0.0000       2.940094        80.0040 
 632   0.0000       2.942987        80.0827 
 633   0.0000       2.947058        80.1935 
 634   0.0000       2.949274        80.2538 
 635   0.0000       2.956651        80.4546 
 636   0.0000       2.964624        80.6715 
 637   0.0000       2.965890        80.7060 
 638   0.0000       2.981956        81.1432 
 639   0.0000       2.986028        81.2539 
 640   0.0000       2.987454        81.2928 
 641   0.0000       2.991004        81.3894 
 642   0.0000       2.993634        81.4609 
 643   0.0000       2.997686        81.5712 
 644   0.0000       2.999734        81.6269 
 645   0.0000       3.007416        81.8360 
 646   0.0000       3.013101        81.9906 
 647   0.0000       3.014462        82.0277 
 648   0.0000       3.020701        82.1975 
 649   0.0000       3.023740        82.2802 
 650   0.0000       3.028572        82.4116 
[...]
   0.327526   106 -> 114
   0.272999   106 -> 118
   0.312884   107 -> 114
   0.194811   107 -> 118
  -0.365633   108 -> 112
   0.200020   110 -> 112
  -0.221869   110 -> 113
  -0.402520   110 -> 116
  -0.361607   110 -> 117
  Ground state amplitude:  0.000341

Percentage Active Character     95.40

Warning:: the state may have not converged with respect to active space 
-------------------- Handle with Care -------------------- 

  Amplitude    Excitation in Canonical Basis
   0.119029   102 -> 114
   0.122262   103 -> 112
  -0.167594   103 -> 113
  -0.325483   106 -> 114
  -0.153476   106 -> 118
  -0.219086   106 -> 119
   0.310944   107 -> 114
   0.109406   107 -> 118
   0.156134   107 -> 119
  -0.363660   108 -> 112
   0.196425   110 -> 112
   0.220049   110 -> 113
  -0.399695   110 -> 116
  -0.365505   110 -> 117

IROOT= 24:  0.247079 au     6.723 eV   54227.5 cm**-1
  Amplitude    Excitation
  -0.115025   104 -> 117
  -0.589977   105 -> 112
   0.343534   105 -> 113
   0.234827   105 -> 115
   0.123443   106 -> 117
   0.108581   107 -> 112
  -0.284793   107 -> 113
   0.158808   107 -> 115
  -0.148652   108 -> 114
  -0.106895   108 -> 118
   0.281752   109 -> 113
  -0.186176   109 -> 115
   0.233515   109 -> 116
  -0.138846   109 -> 117
  Ground state amplitude:  0.022672

Percentage Active Character     96.38

Warning:: the state may have not converged with respect to active space 
-------------------- Handle with Care -------------------- 

  Amplitude    Excitation in Canonical Basis
   0.101462   104 -> 115
  -0.111535   104 -> 117
   0.586285   105 -> 112
   0.346487   105 -> 113
   0.238343   105 -> 115
  -0.119750   106 -> 117
   0.107309   107 -> 112
   0.284260   107 -> 113
  -0.155160   107 -> 115
  -0.148277   108 -> 114
  -0.281137   109 -> 113
   0.197383   109 -> 115
   0.227517   109 -> 116
  -0.127404   109 -> 117

IROOT= 25:  0.261672 au     7.120 eV   57430.4 cm**-1
  Amplitude    Excitation
   0.184058   105 -> 113
   0.352543   105 -> 115
  -0.434422   105 -> 116
   0.388765   109 -> 115
   0.275048   109 -> 116
   0.540903   109 -> 117
  Ground state amplitude:  0.003385

Percentage Active Character     95.82

Warning:: the state may have not converged with respect to active space 
-------------------- Handle with Care -------------------- 

  Amplitude    Excitation in Canonical Basis
  -0.100563   105 -> 112
   0.184660   105 -> 113
   0.366313   105 -> 115
   0.418456   105 -> 116
  -0.384967   109 -> 115
   0.282555   109 -> 116
   0.532537   109 -> 117



-------------------
CPCM SOLVENT SHIFT
-------------------

Reading the CPCM data                  ... done
Making difference densities            ... done
Computing the potentials               ... done
Calculating charges                    ... done

---------------------------------
     CALCULATED SOLVENT SHIFTS   
            CPCM  MODEL          
---------------------------------

Contributions of the 'fast' term to the solvent shift

 State Shift(Eh) Shift(eV) Shift(cm**-1) Shift(nm) Esteom(eV)  Esteom+SHIFT(eV)
-------------------------------------------------------------------------------
   0: -0.0012875 -0.035     -282.6        5.2      2.907          2.872
   1: -0.0103619 -0.282    -2274.2       28.4      3.653          3.371
   2: -0.0103317 -0.281    -2267.6       28.3      3.653          3.372
   3: -0.0267500 -0.728    -5870.9       75.9      3.831          3.103
   4: -0.0089662 -0.244    -1967.9       21.5      3.875          3.632
   5: -0.0019703 -0.054     -432.4        3.9      4.169          4.115
   6: -0.0006873 -0.019     -150.8        1.1      4.573          4.554
   7: -0.0010259 -0.028     -225.2        1.4      4.903          4.875
   8: -0.0182613 -0.497    -4007.9       27.7      4.973          4.476
   9: -0.0172401 -0.469    -3783.8       25.9      4.980          4.511
  10: -0.0228106 -0.621    -5006.3       32.6      5.179          4.559
  11: -0.0001998 -0.005      -43.9        0.2      5.322          5.316
  12: -0.0001926 -0.005      -42.3        0.2      5.617          5.612
  13: -0.0008730 -0.024     -191.6        0.9      5.703          5.680
  14: -0.0008684 -0.024     -190.6        0.9      5.704          5.681
  15: -0.0009283 -0.025     -203.7        0.9      5.845          5.820
  16: -0.0235612 -0.641    -5171.1       25.6      5.898          5.257
  17: -0.0001806 -0.005      -39.6        0.2      5.969          5.964
  18: -0.0100155 -0.273    -2198.1        9.7      6.032          5.759
  19: -0.0004629 -0.013     -101.6        0.4      6.197          6.185
  20: -0.0000575 -0.002      -12.6        0.0      6.347          6.345
  21: -0.0138405 -0.377    -3037.6       11.9      6.443          6.067
  22: -0.0043538 -0.118     -955.6        3.5      6.540          6.422
  23: -0.0019599 -0.053     -430.2        1.5      6.723          6.670
  24: -0.0036429 -0.099     -799.5        2.5      7.120          7.021

-------------------
CPCM SOLVENT SHIFT
-------------------

Reading the CPCM data                  ... done
Making difference densities            ... done
Computing the potentials               ... done
Calculating charges                    ... done

R0 correction
 State Shift(Eh) Shift(eV)
--------------------------
   0: -0.0014216 -0.039
   1: -0.0104797 -0.285
   2: -0.0104496 -0.284
   3: -0.0267502 -0.728
   4: -0.0089663 -0.244
   5: -0.0019703 -0.054
   6: -0.0006862 -0.019
   7: -0.0010259 -0.028
   8: -0.0182613 -0.497
   9: -0.0172401 -0.469
  10: -0.0228106 -0.621
  11: -0.0001993 -0.005
  12: -0.0001901 -0.005
  13: -0.0008730 -0.024
  14: -0.0008685 -0.024
  15: -0.0009134 -0.025
  16: -0.0235608 -0.641
  17: -0.0001881 -0.005
  18: -0.0100155 -0.273
  19: -0.0004724 -0.013
  20: -0.0000588 -0.002
  21: -0.0138408 -0.377
  22: -0.0043538 -0.118
  23: -0.0020199 -0.055
  24: -0.0036466 -0.099

STEOM-CCSD done (33848.1 sec)

PAIRWISE REDUNDANCY FOUND (L1=1.999355E+00,L2=6.447394E-04) AND REMOVED FOR IROOT=2 and IROOT=3!

PAIRWISE REDUNDANCY FOUND (L1=1.954674E+00,L2=4.532605E-02) AND REMOVED FOR IROOT=9 and IROOT=10!

PAIRWISE REDUNDANCY FOUND (L1=1.995758E+00,L2=4.242186E-03) AND REMOVED FOR IROOT=14 and IROOT=15!

Calculating the Dipole integrals                  ... done
Transforming integrals                            ... done
Calculating the Linear Momentum integrals         ... done
Transforming integrals                            ... done
Calculating angular momentum integrals            ... done
Transforming integrals                            ... done

--------------------------------------------------------------------
               UNRELAXED EXCITED STATE DIPOLE MOMENTS
--------------------------------------------------------------------
               E(eV)     DX(au)      DY(au)      DZ(au)      |D|(D)
IROOT=  0:     0.000   -15.257158    0.084089    0.404577   38.794836
IROOT=  1:     2.872   -15.435996    0.090687    0.418414   39.250272
IROOT=  2:     3.371   -11.186700    0.124634    0.504372   28.464982
IROOT=  3:     3.103   -23.399833    0.058033    0.514193   59.492189
IROOT=  4:     3.632   -11.707075    0.083418    0.510525   29.786055
IROOT=  5:     4.115   -14.716383    0.070302    0.446367   37.423701
IROOT=  6:     4.554   -14.592803    0.086552    0.735656   37.139711
IROOT=  7:     4.875   -15.234978    0.049499    0.410278   38.738480
IROOT=  8:     4.476   -21.077467    0.057979    0.341775   53.581909
IROOT=  9:     4.559   -7.899820    0.073553    0.578565   20.134394
IROOT= 10:     5.316   -15.157971    0.101031    0.429961   38.544853
IROOT= 11:     5.612   -15.071229    0.121412    0.432806   38.325056
IROOT= 12:     5.680   -13.182964   -0.054657    0.467494   33.529781
IROOT= 13:     5.820   -15.067450    0.106167    0.576497   38.327387
IROOT= 14:     5.257   -22.048430    0.073469    0.541072   56.059839
IROOT= 15:     5.964   -15.602463    0.028195    0.419779   39.672725
IROOT= 16:     5.759   -9.825218    0.254172    0.520581   25.017092
IROOT= 17:     6.185   -14.688764    0.066231    0.440268   37.353017
IROOT= 18:     6.345   -14.911993    0.127485    0.441418   37.921261
IROOT= 19:     6.067   -8.143480    0.018246    0.153164   20.702793
IROOT= 20:     6.422   -11.297807    0.141105    0.850640   28.800258
IROOT= 21:     6.670   -16.194242    0.205073    0.412405   41.179137
IROOT= 22:     7.021   -17.344739    0.121860    0.543497   44.109549
--------------------------------------------------------------------

-----------------------------------------------------------------------------
         ABSORPTION SPECTRUM VIA TRANSITION ELECTRIC DIPOLE MOMENTS
-----------------------------------------------------------------------------
State   Energy  Wavelength   fosc         T2         TX        TY        TZ  
        (cm-1)    (nm)                  (au**2)     (au)      (au)      (au) 
-----------------------------------------------------------------------------
   1   23160.6    431.8   0.253693612   3.60608   1.89876   0.00670   0.02700
   2   27192.1    367.8   0.047199730   0.57144   0.75555   0.01835   0.01441
   3   25027.2    399.6   0.001023915   0.01347   0.11078   0.02412   0.00799
   4   29290.1    341.4   0.016164850   0.18169   0.00214   0.41839   0.08103
   5   33190.1    301.3   0.063498870   0.62984   0.00441   0.78002   0.14613
   6   36733.2    272.2   0.010608239   0.09507   0.02284   0.01218   0.30665
   7   39321.2    254.3   0.003144881   0.02633   0.00382   0.15256   0.05362
   8   36105.0    277.0   0.231158380   2.10774   0.00495   1.44767   0.10924
   9   36768.9    272.0   0.000560904   0.00502   0.01533   0.06672   0.01710
  10   42879.1    233.2   0.004481862   0.03441   0.17387   0.06046   0.00317
  11   45264.7    220.9   0.209752688   1.52554   1.23468   0.02929   0.00343
  12   45809.5    218.3   0.166435832   1.19610   0.02468   1.08853   0.08865
  13   46940.1    213.0   0.194833726   1.36646   1.14791   0.04199   0.21124
  14   42403.4    235.8   0.002449638   0.01902   0.03273   0.02233   0.12405
  15   48105.7    207.9   0.002357474   0.01613   0.10322   0.01128   0.06034
  16   46450.1    215.3   0.041557132   0.29453   0.01832   0.54231   0.00731
  17   49884.6    200.5   0.021632554   0.14276   0.37220   0.01276   0.06132
  18   51177.5    195.4   0.734319857   4.72369   2.17291   0.01960   0.02231
  19   48929.8    204.4   0.025449557   0.17123   0.12870   0.38788   0.03057
  20   51793.4    193.1   0.164101936   1.04307   0.01309   0.99448   0.23138
  21   53797.3    185.9   1.145506606   7.00991   2.63263   0.08015   0.26846
  22   56630.9    176.6   0.219725910   1.27733   0.24267   0.06742   1.10176

-------------------------------------------------------------------
                             CD SPECTRUM
-------------------------------------------------------------------
State   Energy Wavelength       R         MX        MY        MZ   
        (cm-1)   (nm)       (1e40*cgs)   (au)      (au)      (au)  
-------------------------------------------------------------------
   1     431.8   23160.6      0.84060   0.03819  -0.02466  -0.00322
   2     367.8   27192.1      3.68759   0.06323  -0.00811  -0.02065
   3     399.6   25027.2      0.49269  -0.04760   0.01142   0.02590
   4     341.4   29290.1     -2.77152  -0.01083   0.01603   0.19848
   5     301.3   33190.1      2.28089   0.00441   0.00027  -0.24375
   6     272.2   36733.2      0.09591   0.00311  -0.53620  -0.00180
   7     254.3   39321.2      0.29535   0.00207   0.09318   0.01351
   8     277.0   36105.0     -0.92052  -0.00922   0.04797   0.11954
   9     272.0   36768.9     -0.28211   0.00276  -0.04581  -0.07234
  10     233.2   42879.1      0.24790   0.03018  -0.00520   0.00432
  11     220.9   45264.7      8.77699   0.06590  -0.06762  -0.02106
  12     218.3   45809.5      2.35085   0.00049  -0.04210   0.63856
  13     213.0   46940.1      2.07337   0.01531  -0.36218   0.00693
  14     235.8   42403.4      0.03810   0.00389   0.05073  -0.00295
  15     207.9   48105.7      0.66623  -0.08218  -0.07357  -0.01548
  16     215.3   46450.1      3.32027  -0.00223   0.01193   0.59725
  17     200.5   49884.6      0.18335   0.03010  -0.03286  -0.01432
  18     195.4   51177.5     -0.27219   0.00332   0.06183   0.02203
  19     204.4   48929.8      0.36890  -0.14243   0.00077  -0.04043
  20     193.1   51793.4      1.83130  -0.07430  -0.03045   0.54286
  21     185.9   53797.3      0.40902   0.00288  -0.27183   0.00399
  22     176.6   56630.9      0.15951  -0.00618  -0.13834  -0.01098

TDM done (34302.9 sec)
STEOM-CCSD done in (34303.5)


--------------------------------------------------------------------------------
                                    TIMINGS
--------------------------------------------------------------------------------


Total execution time                   ...   289816.257 sec

Localization of occupied MO's          ...        7.552 sec (  0.0%)
Fock Matrix Formation                  ...      698.346 sec (  0.2%)
Global overlap, Fock, MKN matrices     ...        3.523 sec (  0.0%)
Differential overlap integrals         ...       19.585 sec (  0.0%)
Organizing maps                        ...        0.238 sec (  0.0%)
RI 3-index integral generations        ...      241.960 sec (  0.1%)
RI-PNO integral transformation         ...    16142.927 sec (  5.6%)
Initial Guess                          ...     1786.078 sec (  0.6%)
DIIS Solver                            ...       46.313 sec (  0.0%)
State Vector Update                    ...        0.364 sec (  0.0%)
Sigma-vector construction              ...   203798.246 sec ( 70.3%)
  <0|H|D>                              ...        0.020 sec (  0.0% of sigma)
  <D|H|D>(0-ext)                       ...    16873.505 sec (  8.3% of sigma)
  <D|H|D>(2-ext Fock)                  ...       42.116 sec (  0.0% of sigma)
  <D|H|D>(2-ext)                       ...     3266.103 sec (  1.6% of sigma)
  <D|H|D>(4-ext)                       ...     1225.603 sec (  0.6% of sigma)
  <D|H|D>(4-ext-corr)                  ...     7149.215 sec (  3.5% of sigma)
  CCSD doubles correction              ...       80.161 sec (  0.0% of sigma)
  <S|H|S>                              ...      404.897 sec (  0.2% of sigma)
  <S|H|D>(1-ext)                       ...      893.468 sec (  0.4% of sigma)
  <D|H|S>(1-ext)                       ...       51.190 sec (  0.0% of sigma)
  <S|H|D>(3-ext)                       ...      180.202 sec (  0.1% of sigma)
  CCSD singles correction              ...        0.014 sec (  0.0% of sigma)
  Fock-dressing                        ...   103181.340 sec ( 50.6% of sigma)
  Singles amplitudes                   ...      950.684 sec (  0.5% of sigma)
  (ik|jl)-dressing                     ...    65423.054 sec ( 32.1% of sigma)
  (ij|ab),(ia|jb)-dressing             ...     3649.590 sec (  1.8% of sigma)
  Pair energies                        ...        0.239 sec (  0.0% of sigma)
Total Time for computing EOM-CCSD      ...    23593.400 sec (  8.1% of ALL)
  Dressing integrals                   ...      246.788 sec (  1.0% of (EOM))
  Initial EOM-Guess                    ...        0.008 sec (  0.0% of (EOM))
  EOM Singles                          ...      488.133 sec (  2.1% of (EOM))
  EOM Doubles                          ...    22150.642 sec ( 93.9% of (EOM))
  Build Hamiltonian                    ...       75.461 sec (  0.3% of (EOM))
  Diagonalize Hamiltonian              ...       12.182 sec (  0.1% of (EOM))
  Ritz vectors                         ...      138.088 sec (  0.6% of (EOM))
  Residual vectors                     ...      150.244 sec (  0.6% of (EOM))
One-particle density matrix            ...       17.323 sec (  0.0%)


Maximum memory used throughout the entire MDCI-calculation: 38876.6 MB

-------------------------   --------------------
FINAL SINGLE POINT ENERGY     -1453.949278120548
-------------------------   --------------------


                            ***************************************
                            *     ORCA property calculations      *
                            ***************************************

                                    ---------------------
                                    Active property flags
                                    ---------------------
   (+) Dipole Moment


------------------------------------------------------------------------------
                       ORCA ELECTRIC PROPERTIES CALCULATION
------------------------------------------------------------------------------

Dipole Moment Calculation                       ... on
Quadrupole Moment Calculation                   ... off
Polarizability Calculation                      ... off
GBWName                                         ... BF3-Acr_p_STEOM-DLPNO-CCSD_DEF2-TZVP_RIJCOSX_SMD.gbw
Electron density                                ... BF3-Acr_p_STEOM-DLPNO-CCSD_DEF2-TZVP_RIJCOSX_SMD.scfp
The origin for moment calculation is the CENTER OF MASS  = ( 0.269627, -0.000920 -0.010201)

-------------
DIPOLE MOMENT
-------------
                                X             Y             Z
Electronic contribution:     44.94313      -0.11644      -1.82615
Nuclear contribution   :    -59.85722       0.20415       2.26466
                        -----------------------------------------
Total Dipole Moment    :    -14.91409       0.08771       0.43850
                        -----------------------------------------
Magnitude (a.u.)       :     14.92079
Magnitude (Debye)      :     37.92564



--------------------
Rotational spectrum 
--------------------
 
Rotational constants in cm-1:     0.012130     0.001892     0.001710 
Rotational constants in MHz :   363.659825    56.710211    51.257227 

 Dipole components along the rotational axes: 
x,y,z [a.u.] :   -14.912492    -0.088261     0.489760 
x,y,z [Debye]:   -37.904543    -0.224341     1.244870 

 

                           *** MDCI DENSITY ***

------------------------------------------------------------------------------
                       ORCA ELECTRIC PROPERTIES CALCULATION
------------------------------------------------------------------------------

Dipole Moment Calculation                       ... on
Quadrupole Moment Calculation                   ... off
Polarizability Calculation                      ... off
GBWName                                         ... BF3-Acr_p_STEOM-DLPNO-CCSD_DEF2-TZVP_RIJCOSX_SMD.gbw
Electron density                                ... BF3-Acr_p_STEOM-DLPNO-CCSD_DEF2-TZVP_RIJCOSX_SMD.mdcip
The origin for moment calculation is the CENTER OF MASS  = ( 0.269627, -0.000920 -0.010201)

-------------
DIPOLE MOMENT
-------------
                                X             Y             Z
Electronic contribution:     44.58083      -0.12086      -1.86986
Nuclear contribution   :    -59.85722       0.20415       2.26466
                        -----------------------------------------
Total Dipole Moment    :    -15.27639       0.08329       0.39479
                        -----------------------------------------
Magnitude (a.u.)       :     15.28171
Magnitude (Debye)      :     38.84303



--------------------
Rotational spectrum 
--------------------
 
Rotational constants in cm-1:     0.012130     0.001892     0.001710 
Rotational constants in MHz :   363.659825    56.710211    51.257227 

 Dipole components along the rotational axes: 
x,y,z [a.u.] :   -15.274935    -0.083657     0.447318 
x,y,z [Debye]:   -38.825800    -0.212638     1.136993 

 

Timings for individual modules:

Sum of individual times         ...   294027.324 sec (=4900.455 min)
GTO integral calculation        ...        3.688 sec (=   0.061 min)   0.0 %
SCF iterations                  ...     4199.397 sec (=  69.990 min)   1.4 %
MDCI module                     ...   289824.239 sec (=4830.404 min)  98.6 %
                             ****ORCA TERMINATED NORMALLY****
TOTAL RUN TIME: 3 days 9 hours 40 minutes 30 seconds 228 msec
