 Entering Gaussian System, Link 0=g09
 Input=/home/png4rjv/fotokatalizis/benchmark/OPCs/BF3-Acr_p_M06L_def2TZVP.gjf
 Output=/home/png4rjv/fotokatalizis/benchmark/OPCs/BF3-Acr_p_M06L_def2TZVP.log
 Initial command:
 /opt/nce/packages/global/g09/l1.exe "/home/png4rjv/fotokatalizis/benchmark/OPCs/BF3-Acr_p_M06L_def2TZVP/Gau-45242.inp" -scrdir="/home/png4rjv/fotokatalizis/benchmark/OPCs/BF3-Acr_p_M06L_def2TZVP/"
 Default is to use a total of  12 processors:
                               12 via shared-memory
                                1 via Linda
 Entering Link 1 = /opt/nce/packages/global/g09/l1.exe PID=     45243.
  
 Copyright (c) 1988,1990,1992,1993,1995,1998,2003,2009,2015,
            Gaussian, Inc.  All Rights Reserved.
  
 This is part of the Gaussian(R) 09 program.  It is based on
 the Gaussian(R) 03 system (copyright 2003, Gaussian, Inc.),
 the Gaussian(R) 98 system (copyright 1998, Gaussian, Inc.),
 the Gaussian(R) 94 system (copyright 1995, Gaussian, Inc.),
 the Gaussian 92(TM) system (copyright 1992, Gaussian, Inc.),
 the Gaussian 90(TM) system (copyright 1990, Gaussian, Inc.),
 the Gaussian 88(TM) system (copyright 1988, Gaussian, Inc.),
 the Gaussian 86(TM) system (copyright 1986, Carnegie Mellon
 University), and the Gaussian 82(TM) system (copyright 1983,
 Carnegie Mellon University). Gaussian is a federally registered
 trademark of Gaussian, Inc.
  
 This software contains proprietary and confidential information,
 including trade secrets, belonging to Gaussian, Inc.
  
 This software is provided under written license and may be
 used, copied, transmitted, or stored only in accord with that
 written license.
  
 The following legend is applicable only to US Government
 contracts under FAR:
  
                    RESTRICTED RIGHTS LEGEND
  
 Use, reproduction and disclosure by the US Government is
 subject to restrictions as set forth in subparagraphs (a)
 and (c) of the Commercial Computer Software - Restricted
 Rights clause in FAR 52.227-19.
  
 Gaussian, Inc.
 340 Quinnipiac St., Bldg. 40, Wallingford CT 06492
  
  
 ---------------------------------------------------------------
 Warning -- This program may not be used in any manner that
 competes with the business of Gaussian, Inc. or will provide
 assistance to any competitor of Gaussian, Inc.  The licensee
 of this program is prohibited from giving any competitor of
 Gaussian, Inc. access to this program.  By using this program,
 the user acknowledges that Gaussian, Inc. is engaged in the
 business of creating and licensing software in the field of
 computational chemistry and represents and warrants to the
 licensee that it is not a competitor of Gaussian, Inc. and that
 it will not use this program in any manner prohibited above.
 ---------------------------------------------------------------
  

 Cite this work as:
 Gaussian 09, Revision E.01,
 M. J. Frisch, G. W. Trucks, H. B. Schlegel, G. E. Scuseria, 
 M. A. Robb, J. R. Cheeseman, G. Scalmani, V. Barone, B. Mennucci, 
 G. A. Petersson, H. Nakatsuji, M. Caricato, X. Li, H. P. Hratchian, 
 A. F. Izmaylov, J. Bloino, G. Zheng, J. L. Sonnenberg, M. Hada, 
 M. Ehara, K. Toyota, R. Fukuda, J. Hasegawa, M. Ishida, T. Nakajima, 
 Y. Honda, O. Kitao, H. Nakai, T. Vreven, J. A. Montgomery, Jr., 
 J. E. Peralta, F. Ogliaro, M. Bearpark, J. J. Heyd, E. Brothers, 
 K. N. Kudin, V. N. Staroverov, T. Keith, R. Kobayashi, J. Normand, 
 K. Raghavachari, A. Rendell, J. C. Burant, S. S. Iyengar, J. Tomasi, 
 M. Cossi, N. Rega, J. M. Millam, M. Klene, J. E. Knox, J. B. Cross, 
 V. Bakken, C. Adamo, J. Jaramillo, R. Gomperts, R. E. Stratmann, 
 O. Yazyev, A. J. Austin, R. Cammi, C. Pomelli, J. W. Ochterski, 
 R. L. Martin, K. Morokuma, V. G. Zakrzewski, G. A. Voth, 
 P. Salvador, J. J. Dannenberg, S. Dapprich, A. D. Daniels, 
 O. Farkas, J. B. Foresman, J. V. Ortiz, J. Cioslowski, 
 and D. J. Fox, Gaussian, Inc., Wallingford CT, 2013.
 
 ******************************************
 Gaussian 09:  ES64L-G09RevE.01 30-Nov-2015
                16-Feb-2021 
 ******************************************
 %chk=cp.chk
 Default route:  MaxDisk=500GB
 ----------------------------------------------------------------------
 #p m06l/def2TZVP opt freq=noraman nosymm int=ultrafine scrf=(SMD,solve
 nt=Acetonitrile)
 ----------------------------------------------------------------------
 1/14=-1,18=20,19=15,26=4,38=1/1,3;
 2/9=110,12=2,15=1,17=6,18=5,40=1/2;
 3/5=44,7=101,11=2,16=1,25=1,30=1,70=32201,71=1,72=2,74=-53,75=-5/1,2,3;
 4//1;
 5/5=2,38=5,53=2/2;
 6/7=2,8=2,9=2,10=2,28=1/1;
 7/30=1/1,2,3,16;
 1/14=-1,18=20,19=15,26=4/3(2);
 2/9=110,15=1/2;
 99//99;
 2/9=110,15=1/2;
 3/5=44,7=101,11=2,16=1,25=1,30=1,70=32205,71=1,72=2,74=-53,75=-5/1,2,3;
 4/5=5,16=3,69=1/1;
 5/5=2,38=5,53=2/2;
 7/30=1/1,2,3,16;
 1/14=-1,18=20,19=15,26=4/3(-5);
 2/9=110,15=1/2;
 6/7=2,8=2,9=2,10=2,19=2,28=1/1;
 99/9=1/99;
 Leave Link    1 at Tue Feb 16 04:08:12 2021, MaxMem=           0 cpu:         1.5
 (Enter /opt/nce/packages/global/g09/l101.exe)
 -----
 Title
 -----
 Symbolic Z-matrix:
 Charge =  0 Multiplicity = 1
 C                     1.34428   3.63579  -0.02725 
 C                     2.00697   2.42717   0.06868 
 C                     1.27679   1.21484   0.05556 
 C                    -0.15248   1.24529  -0.01114 
 C                    -0.78453   2.51318  -0.17313 
 C                    -0.05866   3.68389  -0.17108 
 C                    -0.90033   0.0227    0.01443 
 C                    -0.17191  -1.21041   0.07585 
 C                     1.25917  -1.2005    0.0751 
 C                     1.97178  -2.42297   0.09998 
 H                     3.05921  -2.4133    0.07463 
 C                     1.28807  -3.62172   0.1691 
 C                    -0.12067  -3.64952   0.24597 
 C                    -0.82913  -2.46873   0.21037 
 H                     1.92237   4.5626   -0.01761 
 H                     3.09168   2.4019    0.14617 
 H                    -1.86281   2.53901  -0.31731 
 H                    -0.56514   4.64219  -0.29753 
 H                     1.85271  -4.55656   0.19121 
 H                    -0.64626  -4.60004   0.35127 
 H                    -1.91337  -2.47892   0.30306 
 N                     1.9383    0.00243   0.07847 
 C                    -2.35198   0.03134  -0.02045 
 C                    -3.06174  -0.76144  -0.9594 
 C                    -3.09875   0.83386   0.88082 
 C                    -4.44766  -0.72994  -0.99584 
 C                    -4.48522   0.80754   0.85738 
 C                    -5.20172   0.02852  -0.07557 
 H                    -5.0554    1.40219   1.57547 
 H                    -2.57069   1.42196   1.63568 
 C                     3.38042  -0.00781   0.10896 
 C                     4.10041   0.00753  -1.08322 
 C                     4.05116  -0.03296   1.33772 
 C                     5.4973   -0.00207  -1.063 
 H                     3.56645   0.02726  -2.03529 
 C                     5.43914  -0.04239   1.36717 
 H                     3.47712  -0.04513   2.26621 
 C                     6.17671  -0.02707   0.16707 
 H                     6.04199   0.01002  -2.00596 
 H                     5.98641  -0.06178   2.31073 
 O                     7.51685  -0.03799   0.29637 
 C                     8.32748  -0.02387  -0.86205 
 H                     9.36753  -0.03648  -0.51308 
 H                     8.14776  -0.9114   -1.49347 
 H                     8.15946   0.88657  -1.46336 
 H                    -4.98746  -1.29436  -1.76035 
 B                    -6.84664  -0.02481  -0.06644 
 F                    -7.33225   1.19291   0.43441 
 F                    -7.23685  -1.08578   0.76685 
 F                    -7.29399  -0.24534  -1.37828 
 H                    -2.5028   -1.34261  -1.69736 
 
 NAtoms=     51 NQM=       51 NQMF=       0 NMMI=      0 NMMIF=      0
                NMic=       0 NMicF=      0.
                    Isotopes and Nuclear Properties:
 (Nuclear quadrupole moments (NQMom) in fm**2, nuclear magnetic moments (NMagM)
  in nuclear magnetons)

  Atom         1           2           3           4           5           6           7           8           9          10
 IAtWgt=          12          12          12          12          12          12          12          12          12          12
 AtmWgt=  12.0000000  12.0000000  12.0000000  12.0000000  12.0000000  12.0000000  12.0000000  12.0000000  12.0000000  12.0000000
 NucSpn=           0           0           0           0           0           0           0           0           0           0
 AtZEff=   0.0000000   0.0000000   0.0000000   0.0000000   0.0000000   0.0000000   0.0000000   0.0000000   0.0000000   0.0000000
 NQMom=    0.0000000   0.0000000   0.0000000   0.0000000   0.0000000   0.0000000   0.0000000   0.0000000   0.0000000   0.0000000
 NMagM=    0.0000000   0.0000000   0.0000000   0.0000000   0.0000000   0.0000000   0.0000000   0.0000000   0.0000000   0.0000000
 AtZNuc=   6.0000000   6.0000000   6.0000000   6.0000000   6.0000000   6.0000000   6.0000000   6.0000000   6.0000000   6.0000000

  Atom        11          12          13          14          15          16          17          18          19          20
 IAtWgt=           1          12          12          12           1           1           1           1           1           1
 AtmWgt=   1.0078250  12.0000000  12.0000000  12.0000000   1.0078250   1.0078250   1.0078250   1.0078250   1.0078250   1.0078250
 NucSpn=           1           0           0           0           1           1           1           1           1           1
 AtZEff=   0.0000000   0.0000000   0.0000000   0.0000000   0.0000000   0.0000000   0.0000000   0.0000000   0.0000000   0.0000000
 NQMom=    0.0000000   0.0000000   0.0000000   0.0000000   0.0000000   0.0000000   0.0000000   0.0000000   0.0000000   0.0000000
 NMagM=    2.7928460   0.0000000   0.0000000   0.0000000   2.7928460   2.7928460   2.7928460   2.7928460   2.7928460   2.7928460
 AtZNuc=   1.0000000   6.0000000   6.0000000   6.0000000   1.0000000   1.0000000   1.0000000   1.0000000   1.0000000   1.0000000

  Atom        21          22          23          24          25          26          27          28          29          30
 IAtWgt=           1          14          12          12          12          12          12          12           1           1
 AtmWgt=   1.0078250  14.0030740  12.0000000  12.0000000  12.0000000  12.0000000  12.0000000  12.0000000   1.0078250   1.0078250
 NucSpn=           1           2           0           0           0           0           0           0           1           1
 AtZEff=   0.0000000   0.0000000   0.0000000   0.0000000   0.0000000   0.0000000   0.0000000   0.0000000   0.0000000   0.0000000
 NQMom=    0.0000000   2.0440000   0.0000000   0.0000000   0.0000000   0.0000000   0.0000000   0.0000000   0.0000000   0.0000000
 NMagM=    2.7928460   0.4037610   0.0000000   0.0000000   0.0000000   0.0000000   0.0000000   0.0000000   2.7928460   2.7928460
 AtZNuc=   1.0000000   7.0000000   6.0000000   6.0000000   6.0000000   6.0000000   6.0000000   6.0000000   1.0000000   1.0000000

  Atom        31          32          33          34          35          36          37          38          39          40
 IAtWgt=          12          12          12          12           1          12           1          12           1           1
 AtmWgt=  12.0000000  12.0000000  12.0000000  12.0000000   1.0078250  12.0000000   1.0078250  12.0000000   1.0078250   1.0078250
 NucSpn=           0           0           0           0           1           0           1           0           1           1
 AtZEff=   0.0000000   0.0000000   0.0000000   0.0000000   0.0000000   0.0000000   0.0000000   0.0000000   0.0000000   0.0000000
 NQMom=    0.0000000   0.0000000   0.0000000   0.0000000   0.0000000   0.0000000   0.0000000   0.0000000   0.0000000   0.0000000
 NMagM=    0.0000000   0.0000000   0.0000000   0.0000000   2.7928460   0.0000000   2.7928460   0.0000000   2.7928460   2.7928460
 AtZNuc=   6.0000000   6.0000000   6.0000000   6.0000000   1.0000000   6.0000000   1.0000000   6.0000000   1.0000000   1.0000000

  Atom        41          42          43          44          45          46          47          48          49          50
 IAtWgt=          16          12           1           1           1           1          11          19          19          19
 AtmWgt=  15.9949146  12.0000000   1.0078250   1.0078250   1.0078250   1.0078250  11.0093053  18.9984033  18.9984033  18.9984033
 NucSpn=           0           0           1           1           1           1           3           1           1           1
 AtZEff=   0.0000000   0.0000000   0.0000000   0.0000000   0.0000000   0.0000000   0.0000000   0.0000000   0.0000000   0.0000000
 NQMom=    0.0000000   0.0000000   0.0000000   0.0000000   0.0000000   0.0000000   4.0590000   0.0000000   0.0000000   0.0000000
 NMagM=    0.0000000   0.0000000   2.7928460   2.7928460   2.7928460   2.7928460   2.6886370   2.6288670   2.6288670   2.6288670
 AtZNuc=   8.0000000   6.0000000   1.0000000   1.0000000   1.0000000   1.0000000   5.0000000   9.0000000   9.0000000   9.0000000

  Atom        51
 IAtWgt=           1
 AtmWgt=   1.0078250
 NucSpn=           1
 AtZEff=   0.0000000
 NQMom=    0.0000000
 NMagM=    2.7928460
 AtZNuc=   1.0000000
 Leave Link  101 at Tue Feb 16 04:08:13 2021, MaxMem=  5242880000 cpu:         7.8
 (Enter /opt/nce/packages/global/g09/l103.exe)

 GradGradGradGradGradGradGradGradGradGradGradGradGradGradGradGradGradGrad
 Berny optimization.
 Initialization pass.
                           ----------------------------
                           !    Initial Parameters    !
                           ! (Angstroms and Degrees)  !
 --------------------------                            --------------------------
 ! Name  Definition              Value          Derivative Info.                !
 --------------------------------------------------------------------------------
 ! R1    R(1,2)                  1.3817         estimate D2E/DX2                !
 ! R2    R(1,6)                  1.4111         estimate D2E/DX2                !
 ! R3    R(1,15)                 1.0924         estimate D2E/DX2                !
 ! R4    R(2,3)                  1.4153         estimate D2E/DX2                !
 ! R5    R(2,16)                 1.0878         estimate D2E/DX2                !
 ! R6    R(3,4)                  1.4311         estimate D2E/DX2                !
 ! R7    R(3,22)                 1.3813         estimate D2E/DX2                !
 ! R8    R(4,5)                  1.4259         estimate D2E/DX2                !
 ! R9    R(4,7)                  1.4334         estimate D2E/DX2                !
 ! R10   R(5,6)                  1.3775         estimate D2E/DX2                !
 ! R11   R(5,17)                 1.0882         estimate D2E/DX2                !
 ! R12   R(6,18)                 1.0913         estimate D2E/DX2                !
 ! R13   R(7,8)                  1.4335         estimate D2E/DX2                !
 ! R14   R(7,23)                 1.4521         estimate D2E/DX2                !
 ! R15   R(8,9)                  1.4311         estimate D2E/DX2                !
 ! R16   R(8,14)                 1.426          estimate D2E/DX2                !
 ! R17   R(9,10)                 1.4152         estimate D2E/DX2                !
 ! R18   R(9,22)                 1.3814         estimate D2E/DX2                !
 ! R19   R(10,11)                1.0878         estimate D2E/DX2                !
 ! R20   R(10,12)                1.3817         estimate D2E/DX2                !
 ! R21   R(12,13)                1.4111         estimate D2E/DX2                !
 ! R22   R(12,19)                1.0924         estimate D2E/DX2                !
 ! R23   R(13,14)                1.3775         estimate D2E/DX2                !
 ! R24   R(13,20)                1.0912         estimate D2E/DX2                !
 ! R25   R(14,21)                1.0882         estimate D2E/DX2                !
 ! R26   R(22,31)                1.4425         estimate D2E/DX2                !
 ! R27   R(23,24)                1.4191         estimate D2E/DX2                !
 ! R28   R(23,25)                1.4191         estimate D2E/DX2                !
 ! R29   R(24,26)                1.3868         estimate D2E/DX2                !
 ! R30   R(24,51)                1.093          estimate D2E/DX2                !
 ! R31   R(25,27)                1.3869         estimate D2E/DX2                !
 ! R32   R(25,30)                1.0929         estimate D2E/DX2                !
 ! R33   R(26,28)                1.4109         estimate D2E/DX2                !
 ! R34   R(26,46)                1.0929         estimate D2E/DX2                !
 ! R35   R(27,28)                1.4109         estimate D2E/DX2                !
 ! R36   R(27,29)                1.0929         estimate D2E/DX2                !
 ! R37   R(28,47)                1.6458         estimate D2E/DX2                !
 ! R38   R(31,32)                1.3928         estimate D2E/DX2                !
 ! R39   R(31,33)                1.4001         estimate D2E/DX2                !
 ! R40   R(32,34)                1.3971         estimate D2E/DX2                !
 ! R41   R(32,35)                1.0918         estimate D2E/DX2                !
 ! R42   R(33,36)                1.3883         estimate D2E/DX2                !
 ! R43   R(33,37)                1.0917         estimate D2E/DX2                !
 ! R44   R(34,38)                1.4055         estimate D2E/DX2                !
 ! R45   R(34,39)                1.089          estimate D2E/DX2                !
 ! R46   R(36,38)                1.4087         estimate D2E/DX2                !
 ! R47   R(36,40)                1.091          estimate D2E/DX2                !
 ! R48   R(38,41)                1.3464         estimate D2E/DX2                !
 ! R49   R(41,42)                1.4139         estimate D2E/DX2                !
 ! R50   R(42,43)                1.0971         estimate D2E/DX2                !
 ! R51   R(42,44)                1.104          estimate D2E/DX2                !
 ! R52   R(42,45)                1.104          estimate D2E/DX2                !
 ! R53   R(47,48)                1.4034         estimate D2E/DX2                !
 ! R54   R(47,49)                1.4044         estimate D2E/DX2                !
 ! R55   R(47,50)                1.4035         estimate D2E/DX2                !
 ! A1    A(2,1,6)              120.9127         estimate D2E/DX2                !
 ! A2    A(2,1,15)             119.1919         estimate D2E/DX2                !
 ! A3    A(6,1,15)             119.8754         estimate D2E/DX2                !
 ! A4    A(1,2,3)              120.0795         estimate D2E/DX2                !
 ! A5    A(1,2,16)             120.2335         estimate D2E/DX2                !
 ! A6    A(3,2,16)             119.6851         estimate D2E/DX2                !
 ! A7    A(2,3,4)              119.8308         estimate D2E/DX2                !
 ! A8    A(2,3,22)             120.3059         estimate D2E/DX2                !
 ! A9    A(4,3,22)             119.8492         estimate D2E/DX2                !
 ! A10   A(3,4,5)              117.8328         estimate D2E/DX2                !
 ! A11   A(3,4,7)              120.1364         estimate D2E/DX2                !
 ! A12   A(5,4,7)              121.9486         estimate D2E/DX2                !
 ! A13   A(4,5,6)              121.4633         estimate D2E/DX2                !
 ! A14   A(4,5,17)             118.3841         estimate D2E/DX2                !
 ! A15   A(6,5,17)             120.1445         estimate D2E/DX2                !
 ! A16   A(1,6,5)              119.675          estimate D2E/DX2                !
 ! A17   A(1,6,18)             120.2108         estimate D2E/DX2                !
 ! A18   A(5,6,18)             120.1057         estimate D2E/DX2                !
 ! A19   A(4,7,8)              117.9916         estimate D2E/DX2                !
 ! A20   A(4,7,23)             121.0685         estimate D2E/DX2                !
 ! A21   A(8,7,23)             120.9398         estimate D2E/DX2                !
 ! A22   A(7,8,9)              120.1423         estimate D2E/DX2                !
 ! A23   A(7,8,14)             121.9322         estimate D2E/DX2                !
 ! A24   A(9,8,14)             117.8424         estimate D2E/DX2                !
 ! A25   A(8,9,10)             119.8364         estimate D2E/DX2                !
 ! A26   A(8,9,22)             119.8442         estimate D2E/DX2                !
 ! A27   A(10,9,22)            120.3054         estimate D2E/DX2                !
 ! A28   A(9,10,11)            119.6882         estimate D2E/DX2                !
 ! A29   A(9,10,12)            120.074          estimate D2E/DX2                !
 ! A30   A(11,10,12)           120.2349         estimate D2E/DX2                !
 ! A31   A(10,12,13)           120.9177         estimate D2E/DX2                !
 ! A32   A(10,12,19)           119.1894         estimate D2E/DX2                !
 ! A33   A(13,12,19)           119.8724         estimate D2E/DX2                !
 ! A34   A(12,13,14)           119.6797         estimate D2E/DX2                !
 ! A35   A(12,13,20)           120.2153         estimate D2E/DX2                !
 ! A36   A(14,13,20)           120.0958         estimate D2E/DX2                !
 ! A37   A(8,14,13)            121.4548         estimate D2E/DX2                !
 ! A38   A(8,14,21)            118.3916         estimate D2E/DX2                !
 ! A39   A(13,14,21)           120.145          estimate D2E/DX2                !
 ! A40   A(3,22,9)             121.9271         estimate D2E/DX2                !
 ! A41   A(3,22,31)            119.0359         estimate D2E/DX2                !
 ! A42   A(9,22,31)            119.0369         estimate D2E/DX2                !
 ! A43   A(7,23,24)            120.8343         estimate D2E/DX2                !
 ! A44   A(7,23,25)            120.9415         estimate D2E/DX2                !
 ! A45   A(24,23,25)           118.2242         estimate D2E/DX2                !
 ! A46   A(23,24,26)           120.3006         estimate D2E/DX2                !
 ! A47   A(23,24,51)           119.2079         estimate D2E/DX2                !
 ! A48   A(26,24,51)           120.357          estimate D2E/DX2                !
 ! A49   A(23,25,27)           120.3032         estimate D2E/DX2                !
 ! A50   A(23,25,30)           119.253          estimate D2E/DX2                !
 ! A51   A(27,25,30)           120.3237         estimate D2E/DX2                !
 ! A52   A(24,26,28)           121.9503         estimate D2E/DX2                !
 ! A53   A(24,26,46)           120.0172         estimate D2E/DX2                !
 ! A54   A(28,26,46)           118.0288         estimate D2E/DX2                !
 ! A55   A(25,27,28)           121.9595         estimate D2E/DX2                !
 ! A56   A(25,27,29)           120.008          estimate D2E/DX2                !
 ! A57   A(28,27,29)           118.0324         estimate D2E/DX2                !
 ! A58   A(26,28,27)           117.1741         estimate D2E/DX2                !
 ! A59   A(26,28,47)           121.3554         estimate D2E/DX2                !
 ! A60   A(27,28,47)           121.4516         estimate D2E/DX2                !
 ! A61   A(22,31,32)           119.9096         estimate D2E/DX2                !
 ! A62   A(22,31,33)           119.8419         estimate D2E/DX2                !
 ! A63   A(32,31,33)           120.2486         estimate D2E/DX2                !
 ! A64   A(31,32,34)           120.2912         estimate D2E/DX2                !
 ! A65   A(31,32,35)           119.592          estimate D2E/DX2                !
 ! A66   A(34,32,35)           120.1168         estimate D2E/DX2                !
 ! A67   A(31,33,36)           119.8458         estimate D2E/DX2                !
 ! A68   A(31,33,37)           119.6508         estimate D2E/DX2                !
 ! A69   A(36,33,37)           120.5034         estimate D2E/DX2                !
 ! A70   A(32,34,38)           119.7449         estimate D2E/DX2                !
 ! A71   A(32,34,39)           119.1752         estimate D2E/DX2                !
 ! A72   A(38,34,39)           121.0799         estimate D2E/DX2                !
 ! A73   A(33,36,38)           120.3516         estimate D2E/DX2                !
 ! A74   A(33,36,40)           121.3311         estimate D2E/DX2                !
 ! A75   A(38,36,40)           118.3173         estimate D2E/DX2                !
 ! A76   A(34,38,36)           119.5179         estimate D2E/DX2                !
 ! A77   A(34,38,41)           124.4265         estimate D2E/DX2                !
 ! A78   A(36,38,41)           116.0556         estimate D2E/DX2                !
 ! A79   A(38,41,42)           119.4645         estimate D2E/DX2                !
 ! A80   A(41,42,43)           106.4264         estimate D2E/DX2                !
 ! A81   A(41,42,44)           111.5454         estimate D2E/DX2                !
 ! A82   A(41,42,45)           111.5451         estimate D2E/DX2                !
 ! A83   A(43,42,44)           109.088          estimate D2E/DX2                !
 ! A84   A(43,42,45)           109.0878         estimate D2E/DX2                !
 ! A85   A(44,42,45)           109.0693         estimate D2E/DX2                !
 ! A86   A(28,47,48)           108.6451         estimate D2E/DX2                !
 ! A87   A(28,47,49)           107.7867         estimate D2E/DX2                !
 ! A88   A(28,47,50)           108.5713         estimate D2E/DX2                !
 ! A89   A(48,47,49)           110.3419         estimate D2E/DX2                !
 ! A90   A(48,47,50)           111.0776         estimate D2E/DX2                !
 ! A91   A(49,47,50)           110.3247         estimate D2E/DX2                !
 ! D1    D(6,1,2,3)             -1.5146         estimate D2E/DX2                !
 ! D2    D(6,1,2,16)           177.9723         estimate D2E/DX2                !
 ! D3    D(15,1,2,3)          -179.8837         estimate D2E/DX2                !
 ! D4    D(15,1,2,16)           -0.3968         estimate D2E/DX2                !
 ! D5    D(2,1,6,5)              2.1029         estimate D2E/DX2                !
 ! D6    D(2,1,6,18)          -176.8373         estimate D2E/DX2                !
 ! D7    D(15,1,6,5)          -179.539          estimate D2E/DX2                !
 ! D8    D(15,1,6,18)            1.5207         estimate D2E/DX2                !
 ! D9    D(1,2,3,4)             -2.1357         estimate D2E/DX2                !
 ! D10   D(1,2,3,22)           176.5008         estimate D2E/DX2                !
 ! D11   D(16,2,3,4)           178.3746         estimate D2E/DX2                !
 ! D12   D(16,2,3,22)           -2.9889         estimate D2E/DX2                !
 ! D13   D(2,3,4,5)              5.048          estimate D2E/DX2                !
 ! D14   D(2,3,4,7)           -178.1842         estimate D2E/DX2                !
 ! D15   D(22,3,4,5)          -173.5948         estimate D2E/DX2                !
 ! D16   D(22,3,4,7)             3.173          estimate D2E/DX2                !
 ! D17   D(2,3,22,9)           179.5862         estimate D2E/DX2                !
 ! D18   D(2,3,22,31)           -0.3132         estimate D2E/DX2                !
 ! D19   D(4,3,22,9)            -1.7775         estimate D2E/DX2                !
 ! D20   D(4,3,22,31)          178.323          estimate D2E/DX2                !
 ! D21   D(3,4,5,6)             -4.533          estimate D2E/DX2                !
 ! D22   D(3,4,5,17)           174.4285         estimate D2E/DX2                !
 ! D23   D(7,4,5,6)            178.7614         estimate D2E/DX2                !
 ! D24   D(7,4,5,17)            -2.2771         estimate D2E/DX2                !
 ! D25   D(3,4,7,8)             -1.4463         estimate D2E/DX2                !
 ! D26   D(3,4,7,23)           178.5393         estimate D2E/DX2                !
 ! D27   D(5,4,7,8)            175.1851         estimate D2E/DX2                !
 ! D28   D(5,4,7,23)            -4.8293         estimate D2E/DX2                !
 ! D29   D(4,5,6,1)              1.0182         estimate D2E/DX2                !
 ! D30   D(4,5,6,18)           179.9596         estimate D2E/DX2                !
 ! D31   D(17,5,6,1)          -177.9252         estimate D2E/DX2                !
 ! D32   D(17,5,6,18)            1.0161         estimate D2E/DX2                !
 ! D33   D(4,7,8,9)             -1.6091         estimate D2E/DX2                !
 ! D34   D(4,7,8,14)           175.0037         estimate D2E/DX2                !
 ! D35   D(23,7,8,9)           178.4053         estimate D2E/DX2                !
 ! D36   D(23,7,8,14)           -4.9819         estimate D2E/DX2                !
 ! D37   D(4,7,23,24)          128.8251         estimate D2E/DX2                !
 ! D38   D(4,7,23,25)          -51.054          estimate D2E/DX2                !
 ! D39   D(8,7,23,24)          -51.1897         estimate D2E/DX2                !
 ! D40   D(8,7,23,25)          128.9312         estimate D2E/DX2                !
 ! D41   D(7,8,9,10)          -178.321          estimate D2E/DX2                !
 ! D42   D(7,8,9,22)             3.0356         estimate D2E/DX2                !
 ! D43   D(14,8,9,10)            4.9298         estimate D2E/DX2                !
 ! D44   D(14,8,9,22)         -173.7136         estimate D2E/DX2                !
 ! D45   D(7,8,14,13)          178.9005         estimate D2E/DX2                !
 ! D46   D(7,8,14,21)           -2.1608         estimate D2E/DX2                !
 ! D47   D(9,8,14,13)           -4.4121         estimate D2E/DX2                !
 ! D48   D(9,8,14,21)          174.5266         estimate D2E/DX2                !
 ! D49   D(8,9,10,11)          178.4998         estimate D2E/DX2                !
 ! D50   D(8,9,10,12)           -2.1181         estimate D2E/DX2                !
 ! D51   D(22,9,10,11)          -2.8631         estimate D2E/DX2                !
 ! D52   D(22,9,10,12)         176.519          estimate D2E/DX2                !
 ! D53   D(8,9,22,3)            -1.3216         estimate D2E/DX2                !
 ! D54   D(8,9,22,31)          178.5778         estimate D2E/DX2                !
 ! D55   D(10,9,22,3)         -179.9586         estimate D2E/DX2                !
 ! D56   D(10,9,22,31)          -0.0592         estimate D2E/DX2                !
 ! D57   D(9,10,12,13)          -1.4275         estimate D2E/DX2                !
 ! D58   D(9,10,12,19)        -179.7768         estimate D2E/DX2                !
 ! D59   D(11,10,12,13)        177.9512         estimate D2E/DX2                !
 ! D60   D(11,10,12,19)         -0.398          estimate D2E/DX2                !
 ! D61   D(10,12,13,14)          2.0164         estimate D2E/DX2                !
 ! D62   D(10,12,13,20)       -176.8817         estimate D2E/DX2                !
 ! D63   D(19,12,13,14)       -179.6456         estimate D2E/DX2                !
 ! D64   D(19,12,13,20)          1.4563         estimate D2E/DX2                !
 ! D65   D(12,13,14,8)           0.9978         estimate D2E/DX2                !
 ! D66   D(12,13,14,21)       -177.9226         estimate D2E/DX2                !
 ! D67   D(20,13,14,8)         179.8972         estimate D2E/DX2                !
 ! D68   D(20,13,14,21)          0.9769         estimate D2E/DX2                !
 ! D69   D(3,22,31,32)         -88.6148         estimate D2E/DX2                !
 ! D70   D(3,22,31,33)          91.3771         estimate D2E/DX2                !
 ! D71   D(9,22,31,32)          91.4828         estimate D2E/DX2                !
 ! D72   D(9,22,31,33)         -88.5253         estimate D2E/DX2                !
 ! D73   D(7,23,24,26)        -179.0602         estimate D2E/DX2                !
 ! D74   D(7,23,24,51)          -3.2613         estimate D2E/DX2                !
 ! D75   D(25,23,24,26)          0.8221         estimate D2E/DX2                !
 ! D76   D(25,23,24,51)        176.6211         estimate D2E/DX2                !
 ! D77   D(7,23,25,27)        -178.4411         estimate D2E/DX2                !
 ! D78   D(7,23,25,30)          -2.4111         estimate D2E/DX2                !
 ! D79   D(24,23,25,27)          1.6767         estimate D2E/DX2                !
 ! D80   D(24,23,25,30)        177.7067         estimate D2E/DX2                !
 ! D81   D(23,24,26,28)         -3.0553         estimate D2E/DX2                !
 ! D82   D(23,24,26,46)        176.2331         estimate D2E/DX2                !
 ! D83   D(51,24,26,28)       -178.8056         estimate D2E/DX2                !
 ! D84   D(51,24,26,46)          0.4827         estimate D2E/DX2                !
 ! D85   D(23,25,27,28)         -2.0521         estimate D2E/DX2                !
 ! D86   D(23,25,27,29)        177.9738         estimate D2E/DX2                !
 ! D87   D(30,25,27,28)       -178.0393         estimate D2E/DX2                !
 ! D88   D(30,25,27,29)          1.9866         estimate D2E/DX2                !
 ! D89   D(24,26,28,27)          2.6692         estimate D2E/DX2                !
 ! D90   D(24,26,28,47)       -175.7722         estimate D2E/DX2                !
 ! D91   D(46,26,28,27)       -176.6327         estimate D2E/DX2                !
 ! D92   D(46,26,28,47)          4.9259         estimate D2E/DX2                !
 ! D93   D(25,27,28,26)         -0.0974         estimate D2E/DX2                !
 ! D94   D(25,27,28,47)        178.3424         estimate D2E/DX2                !
 ! D95   D(29,27,28,26)        179.8772         estimate D2E/DX2                !
 ! D96   D(29,27,28,47)         -1.683          estimate D2E/DX2                !
 ! D97   D(26,28,47,48)       -152.5101         estimate D2E/DX2                !
 ! D98   D(26,28,47,49)         87.9165         estimate D2E/DX2                !
 ! D99   D(26,28,47,50)        -31.5951         estimate D2E/DX2                !
 ! D100  D(27,28,47,48)         29.1153         estimate D2E/DX2                !
 ! D101  D(27,28,47,49)        -90.4581         estimate D2E/DX2                !
 ! D102  D(27,28,47,50)        150.0302         estimate D2E/DX2                !
 ! D103  D(22,31,32,34)        179.9924         estimate D2E/DX2                !
 ! D104  D(22,31,32,35)          0.0009         estimate D2E/DX2                !
 ! D105  D(33,31,32,34)          0.0005         estimate D2E/DX2                !
 ! D106  D(33,31,32,35)       -179.991          estimate D2E/DX2                !
 ! D107  D(22,31,33,36)       -179.9797         estimate D2E/DX2                !
 ! D108  D(22,31,33,37)          0.0268         estimate D2E/DX2                !
 ! D109  D(32,31,33,36)          0.0122         estimate D2E/DX2                !
 ! D110  D(32,31,33,37)       -179.9813         estimate D2E/DX2                !
 ! D111  D(31,32,34,38)         -0.0116         estimate D2E/DX2                !
 ! D112  D(31,32,34,39)        179.9881         estimate D2E/DX2                !
 ! D113  D(35,32,34,38)        179.9798         estimate D2E/DX2                !
 ! D114  D(35,32,34,39)         -0.0205         estimate D2E/DX2                !
 ! D115  D(31,33,36,38)         -0.0136         estimate D2E/DX2                !
 ! D116  D(31,33,36,40)        179.9915         estimate D2E/DX2                !
 ! D117  D(37,33,36,38)        179.9798         estimate D2E/DX2                !
 ! D118  D(37,33,36,40)         -0.0151         estimate D2E/DX2                !
 ! D119  D(32,34,38,36)          0.0101         estimate D2E/DX2                !
 ! D120  D(32,34,38,41)       -179.9934         estimate D2E/DX2                !
 ! D121  D(39,34,38,36)       -179.9896         estimate D2E/DX2                !
 ! D122  D(39,34,38,41)          0.007          estimate D2E/DX2                !
 ! D123  D(33,36,38,34)          0.0025         estimate D2E/DX2                !
 ! D124  D(33,36,38,41)       -179.9943         estimate D2E/DX2                !
 ! D125  D(40,36,38,34)        179.9975         estimate D2E/DX2                !
 ! D126  D(40,36,38,41)          0.0007         estimate D2E/DX2                !
 ! D127  D(34,38,41,42)          0.0021         estimate D2E/DX2                !
 ! D128  D(36,38,41,42)        179.9988         estimate D2E/DX2                !
 ! D129  D(38,41,42,43)        179.9988         estimate D2E/DX2                !
 ! D130  D(38,41,42,44)        -61.1231         estimate D2E/DX2                !
 ! D131  D(38,41,42,45)         61.121          estimate D2E/DX2                !
 --------------------------------------------------------------------------------
 Trust Radius=3.00D-01 FncErr=1.00D-07 GrdErr=1.00D-06
 Number of steps in this run=    287 maximum allowed number of steps=    306.
 GradGradGradGradGradGradGradGradGradGradGradGradGradGradGradGradGradGrad

 Leave Link  103 at Tue Feb 16 04:08:13 2021, MaxMem=  5242880000 cpu:         0.3
 (Enter /opt/nce/packages/global/g09/l202.exe)
 Symmetry turned off by external request.
 Stoichiometry    C26H19BF3NO
 Framework group  C1[X(C26H19BF3NO)]
 Deg. of freedom   147
 Full point group                 C1      NOp   1
                          Input orientation:                          
 ---------------------------------------------------------------------
 Center     Atomic      Atomic             Coordinates (Angstroms)
 Number     Number       Type             X           Y           Z
 ---------------------------------------------------------------------
      1          6           0        1.344283    3.635788   -0.027249
      2          6           0        2.006968    2.427166    0.068676
      3          6           0        1.276792    1.214836    0.055560
      4          6           0       -0.152476    1.245294   -0.011139
      5          6           0       -0.784528    2.513181   -0.173134
      6          6           0       -0.058659    3.683894   -0.171084
      7          6           0       -0.900332    0.022696    0.014431
      8          6           0       -0.171910   -1.210409    0.075851
      9          6           0        1.259169   -1.200496    0.075104
     10          6           0        1.971779   -2.422970    0.099982
     11          1           0        3.059211   -2.413295    0.074625
     12          6           0        1.288065   -3.621715    0.169104
     13          6           0       -0.120673   -3.649519    0.245968
     14          6           0       -0.829127   -2.468729    0.210365
     15          1           0        1.922367    4.562601   -0.017608
     16          1           0        3.091683    2.401903    0.146170
     17          1           0       -1.862806    2.539009   -0.317310
     18          1           0       -0.565136    4.642188   -0.297525
     19          1           0        1.852711   -4.556565    0.191212
     20          1           0       -0.646261   -4.600038    0.351272
     21          1           0       -1.913367   -2.478923    0.303055
     22          7           0        1.938299    0.002433    0.078473
     23          6           0       -2.351978    0.031341   -0.020448
     24          6           0       -3.061739   -0.761440   -0.959400
     25          6           0       -3.098750    0.833863    0.880815
     26          6           0       -4.447664   -0.729937   -0.995841
     27          6           0       -4.485223    0.807543    0.857375
     28          6           0       -5.201719    0.028522   -0.075571
     29          1           0       -5.055396    1.402189    1.575473
     30          1           0       -2.570688    1.421956    1.635680
     31          6           0        3.380424   -0.007806    0.108959
     32          6           0        4.100406    0.007526   -1.083224
     33          6           0        4.051162   -0.032963    1.337723
     34          6           0        5.497298   -0.002074   -1.062999
     35          1           0        3.566452    0.027261   -2.035292
     36          6           0        5.439136   -0.042393    1.367167
     37          1           0        3.477123   -0.045126    2.266209
     38          6           0        6.176705   -0.027073    0.167071
     39          1           0        6.041988    0.010019   -2.005956
     40          1           0        5.986410   -0.061780    2.310732
     41          8           0        7.516852   -0.037985    0.296366
     42          6           0        8.327477   -0.023867   -0.862049
     43          1           0        9.367525   -0.036478   -0.513084
     44          1           0        8.147756   -0.911400   -1.493471
     45          1           0        8.159458    0.886573   -1.463363
     46          1           0       -4.987455   -1.294359   -1.760354
     47          5           0       -6.846638   -0.024808   -0.066438
     48          9           0       -7.332250    1.192912    0.434406
     49          9           0       -7.236848   -1.085776    0.766847
     50          9           0       -7.293992   -0.245336   -1.378279
     51          1           0       -2.502802   -1.342605   -1.697361
 ---------------------------------------------------------------------
 Rotational constants (GHZ):      0.3582025      0.0563828      0.0507927
 Leave Link  202 at Tue Feb 16 04:08:13 2021, MaxMem=  5242880000 cpu:         0.7
 (Enter /opt/nce/packages/global/g09/l301.exe)
 Standard basis: def2TZVP (5D, 7F)
 Ernie: Thresh=  0.10000D-02 Tol=  0.10000D-05 Strict=F.
  1106 basis functions,  1784 primitive gaussians,  1266 cartesian basis functions
   111 alpha electrons      111 beta electrons
       nuclear repulsion energy      2924.6162976089 Hartrees.
 IExCor= 4134 DFT=T Ex+Corr=M06L ExCW=0 ScaHFX=  0.000000
 ScaDFX=  1.000000  1.000000  1.000000  1.000000 ScalE2=  1.000000  1.000000
 IRadAn=      5 IRanWt=     -1 IRanGd=            0 ICorTp=0 IEmpDi=  4
 NAtoms=   51 NActive=   51 NUniq=   51 SFac= 1.00D+00 NAtFMM=   60 NAOKFM=F Big=F
 Integral buffers will be    131072 words long.
 Raffenetti 2 integral format.
 Two-electron integral symmetry is turned off.
 ------------------------------------------------------------------------------
 Polarizable Continuum Model (PCM)
 =================================
 Model                : PCM (using non-symmetric T matrix).
 Atomic radii         : SMD-Coulomb.
 Polarization charges : Total charges.
 Charge compensation  : None.
 Solution method      : On-the-fly selection.
 Cavity type          : VdW (van der Waals Surface) (Alpha=1.000).
 Cavity algorithm     : GePol (No added spheres)
                        Default sphere list used, NSphG=   51.
                        Lebedev-Laikov grids with approx.  5.0 points / Ang**2.
                        Smoothing algorithm: York/Karplus (Gamma=1.0000).
                        Polarization charges: spherical gaussians, with
                                              point-specific exponents (IZeta= 3).
                        Self-potential: point-specific (ISelfS= 7).
                        Self-field    : sphere-specific E.n sum rule (ISelfD= 2).
 1st derivatives      : Analytical E(r).r(x)/FMM algorithm (CHGder, D1EAlg=3).
                        Cavity 1st derivative terms included.
 Solvent              : Acetonitrile, Eps=  35.688000 Eps(inf)=   1.806874
 ------------------------------------------------------------------------------
 GePol: Number of generator spheres                  =      51
 GePol: Total number of spheres                      =      51
 GePol: Number of exposed spheres                    =      51 (100.00%)
 GePol: Number of points                             =    3812
 GePol: Average weight of points                     =       0.11
 GePol: Minimum weight of points                     =   0.95D-10
 GePol: Maximum weight of points                     =    0.21559
 GePol: Number of points with low weight             =     210
 GePol: Fraction of low-weight points (<1% of avg)   =       5.51%
 GePol: Cavity surface area                          =    438.089 Ang**2
 GePol: Cavity volume                                =    430.393 Ang**3
 ------------------------------------------------------------------------------
 Atomic radii for non-electrostatic terms: SMD-CDS.
 ------------------------------------------------------------------------------
 PCM non-electrostatic energy =        -0.0068478852 Hartrees.
 Nuclear repulsion after PCM non-electrostatic terms =     2924.6094497237 Hartrees.
 Leave Link  301 at Tue Feb 16 04:08:13 2021, MaxMem=  5242880000 cpu:         4.5
 (Enter /opt/nce/packages/global/g09/l302.exe)
 NPDir=0 NMtPBC=     1 NCelOv=     1 NCel=       1 NClECP=     1 NCelD=      1
         NCelK=      1 NCelE2=     1 NClLst=     1 CellRange=     0.0.
 One-electron integrals computed using PRISM.
   1 Symmetry operations used in ECPInt.
 ECPInt:  NShTT=   91806 NPrTT=  285396 LenC2=   70283 LenP2D=  149035.
 LDataN:  DoStor=T MaxTD1= 6 Len=  172
 NBasis=  1106 RedAO= T EigKep=  5.42D-06  NBF=  1106
 NBsUse=  1106 1.00D-06 EigRej= -1.00D+00 NBFU=  1106
 Precomputing XC quadrature grid using
 IXCGrd= 4 IRadAn=           5 IRanWt=          -1 IRanGd=           0 AccXCQ= 0.00D+00.
 Generated NRdTot=       0 NPtTot=           0 NUsed=           0 NTot=          32
 NSgBfM=  1143  1143  1143  1143  1143 MxSgAt=    51 MxSgA2=    51.
 Leave Link  302 at Tue Feb 16 04:08:19 2021, MaxMem=  5242880000 cpu:        57.2
 (Enter /opt/nce/packages/global/g09/l303.exe)
 DipDrv:  MaxL=1.
 Leave Link  303 at Tue Feb 16 04:08:20 2021, MaxMem=  5242880000 cpu:         4.4
 (Enter /opt/nce/packages/global/g09/l401.exe)
 ExpMin= 6.06D-02 ExpMax= 3.55D+04 ExpMxC= 1.21D+03 IAcc=3 IRadAn=         5 AccDes= 0.00D+00
 Harris functional with IExCor= 1009 and IRadAn=       5 diagonalized for initial guess.
 HarFok:  IExCor= 1009 AccDes= 0.00D+00 IRadAn=         5 IDoV= 1 UseB2=F ITyADJ=14
 ICtDFT=  3500011 ScaDFX=  1.000000  1.000000  1.000000  1.000000
 FoFCou: FMM=F IPFlag=           0 FMFlag=      100000 FMFlg1=           0
         NFxFlg=           0 DoJE=T BraDBF=F KetDBF=T FulRan=T
         wScrn=  0.000000 ICntrl=     500 IOpCl=  0 I1Cent=   200000004 NGrid=           0
         NMat0=    1 NMatS0=      1 NMatT0=    0 NMatD0=    1 NMtDS0=    0 NMtDT0=    0
 Symmetry not used in FoFCou.
 Harris En= -1455.95865877627    
 JPrj=0 DoOrth=F DoCkMO=F.
 Leave Link  401 at Tue Feb 16 04:08:42 2021, MaxMem=  5242880000 cpu:       154.4
 (Enter /opt/nce/packages/global/g09/l502.exe)
 Closed shell SCF:
 Using DIIS extrapolation, IDIIS=  1040.
 Two-electron integral symmetry not used.
 IVT=     4849708 IEndB=     4849708 NGot=  5242880000 MDV=  5239650955
 LenX=  5239650955 LenY=  5238046933
 Requested convergence on RMS density matrix=1.00D-08 within 128 cycles.
 Requested convergence on MAX density matrix=1.00D-06.
 Requested convergence on             energy=1.00D-06.
 No special actions if energy rises.
 Fock matrices will be formed incrementally for  20 cycles.

 Cycle   1  Pass 1  IDiag  1:
 FoFJK:  IHMeth= 1 ICntrl=     500 DoSepK=F KAlg= 0 I1Cent=   0 FoldK=F
 IRaf= 650000000 NMat=   1 IRICut=       1 DoRegI=T DoRafI=F ISym2E= 0.
 FoFCou: FMM=F IPFlag=           0 FMFlag=      100000 FMFlg1=           0
         NFxFlg=           0 DoJE=T BraDBF=F KetDBF=F FulRan=T
         wScrn=  0.000000 ICntrl=     500 IOpCl=  0 I1Cent=           0 NGrid=           0
         NMat0=    1 NMatS0=      1 NMatT0=    0 NMatD0=    1 NMtDS0=    0 NMtDT0=    0
 Symmetry not used in FoFCou.
 Inv3:  Mode=1 IEnd=    43594032.
 Iteration    1 A*A^-1 deviation from unit magnitude is 7.55D-15 for   3810.
 Iteration    1 A*A^-1 deviation from orthogonality  is 2.51D-15 for   1817    384.
 Iteration    1 A^-1*A deviation from unit magnitude is 8.10D-15 for   3810.
 Iteration    1 A^-1*A deviation from orthogonality  is 1.50D-08 for   3014   2977.
 Iteration    2 A*A^-1 deviation from unit magnitude is 2.22D-15 for     76.
 Iteration    2 A*A^-1 deviation from orthogonality  is 3.33D-15 for   2977    312.
 Iteration    2 A^-1*A deviation from unit magnitude is 9.99D-16 for   1777.
 Iteration    2 A^-1*A deviation from orthogonality  is 4.93D-16 for   2263    684.
 E= -1456.52398655440    
 DIIS: error= 2.05D-02 at cycle   1 NSaved=   1.
 NSaved= 1 IEnMin= 1 EnMin= -1456.52398655440     IErMin= 1 ErrMin= 2.05D-02
 ErrMax= 2.05D-02  0.00D+00 EMaxC= 1.00D-01 BMatC= 7.53D-01 BMatP= 7.53D-01
 IDIUse=3 WtCom= 7.95D-01 WtEn= 2.05D-01
 Coeff-Com:  0.100D+01
 Coeff-En:   0.100D+01
 Coeff:      0.100D+01
 Gap=     0.079 Goal=   None    Shift=    0.000
 GapD=    0.079 DampG=0.500 DampE=0.500 DampFc=0.2500 IDamp=-1.
 Damping current iteration by 2.50D-01
 RMSDP=2.92D-03 MaxDP=2.57D-01              OVMax= 4.31D-01

 Cycle   2  Pass 1  IDiag  1:
 RMSU=  7.31D-04    CP:  1.00D+00
 E= -1456.72239585785     Delta-E=       -0.198409303444 Rises=F Damp=T
 DIIS: error= 9.16D-03 at cycle   2 NSaved=   2.
 NSaved= 2 IEnMin= 2 EnMin= -1456.72239585785     IErMin= 2 ErrMin= 9.16D-03
 ErrMax= 9.16D-03  0.00D+00 EMaxC= 1.00D-01 BMatC= 2.28D-01 BMatP= 7.53D-01
 IDIUse=3 WtCom= 9.08D-01 WtEn= 9.16D-02
 Coeff-Com: -0.729D+00 0.173D+01
 Coeff-En:   0.000D+00 0.100D+01
 Coeff:     -0.662D+00 0.166D+01
 Gap=     0.121 Goal=   None    Shift=    0.000
 RMSDP=1.96D-03 MaxDP=2.53D-01 DE=-1.98D-01 OVMax= 5.79D-01

 Cycle   3  Pass 1  IDiag  1:
 RMSU=  1.61D-03    CP:  9.95D-01  2.51D+00
 E= -1456.93365665408     Delta-E=       -0.211260796231 Rises=F Damp=F
 DIIS: error= 1.46D-02 at cycle   3 NSaved=   3.
 NSaved= 3 IEnMin= 3 EnMin= -1456.93365665408     IErMin= 2 ErrMin= 9.16D-03
 ErrMax= 1.46D-02  0.00D+00 EMaxC= 1.00D-01 BMatC= 1.53D-01 BMatP= 2.28D-01
 IDIUse=3 WtCom= 8.54D-01 WtEn= 1.46D-01
 Coeff-Com: -0.570D+00 0.107D+01 0.496D+00
 Coeff-En:   0.000D+00 0.000D+00 0.100D+01
 Coeff:     -0.487D+00 0.917D+00 0.570D+00
 Gap=     0.095 Goal=   None    Shift=    0.000
 RMSDP=6.67D-04 MaxDP=7.89D-02 DE=-2.11D-01 OVMax= 2.45D-01

 Cycle   4  Pass 1  IDiag  1:
 RMSU=  6.41D-04    CP:  1.00D+00  2.56D+00  8.89D-01
 E= -1457.02143645891     Delta-E=       -0.087779804831 Rises=F Damp=F
 DIIS: error= 9.95D-03 at cycle   4 NSaved=   4.
 NSaved= 4 IEnMin= 4 EnMin= -1457.02143645891     IErMin= 2 ErrMin= 9.16D-03
 ErrMax= 9.95D-03  0.00D+00 EMaxC= 1.00D-01 BMatC= 8.07D-02 BMatP= 1.53D-01
 IDIUse=3 WtCom= 9.01D-01 WtEn= 9.95D-02
 Coeff-Com: -0.199D+00 0.335D+00 0.425D+00 0.438D+00
 Coeff-En:   0.000D+00 0.000D+00 0.374D+00 0.626D+00
 Coeff:     -0.179D+00 0.302D+00 0.420D+00 0.457D+00
 Gap=     0.076 Goal=   None    Shift=    0.000
 RMSDP=3.18D-04 MaxDP=3.91D-02 DE=-8.78D-02 OVMax= 1.55D-01

 Cycle   5  Pass 1  IDiag  1:
 RMSU=  2.22D-04    CP:  9.99D-01  2.46D+00  8.67D-01  6.69D-01
 E= -1457.10271950777     Delta-E=       -0.081283048855 Rises=F Damp=F
 DIIS: error= 2.62D-03 at cycle   5 NSaved=   5.
 NSaved= 5 IEnMin= 5 EnMin= -1457.10271950777     IErMin= 5 ErrMin= 2.62D-03
 ErrMax= 2.62D-03  0.00D+00 EMaxC= 1.00D-01 BMatC= 5.60D-03 BMatP= 8.07D-02
 IDIUse=3 WtCom= 9.74D-01 WtEn= 2.62D-02
 Coeff-Com: -0.605D-01 0.869D-01 0.213D+00 0.289D+00 0.471D+00
 Coeff-En:   0.000D+00 0.000D+00 0.000D+00 0.985D-02 0.990D+00
 Coeff:     -0.589D-01 0.846D-01 0.207D+00 0.282D+00 0.485D+00
 Gap=     0.080 Goal=   None    Shift=    0.000
 RMSDP=1.50D-04 MaxDP=1.43D-02 DE=-8.13D-02 OVMax= 4.08D-02

 Cycle   6  Pass 1  IDiag  1:
 RMSU=  1.20D-04    CP:  9.97D-01  2.46D+00  8.25D-01  6.18D-01  7.80D-01
 E= -1457.10736805285     Delta-E=       -0.004648545081 Rises=F Damp=F
 DIIS: error= 1.30D-03 at cycle   6 NSaved=   6.
 NSaved= 6 IEnMin= 6 EnMin= -1457.10736805285     IErMin= 6 ErrMin= 1.30D-03
 ErrMax= 1.30D-03  0.00D+00 EMaxC= 1.00D-01 BMatC= 1.31D-03 BMatP= 5.60D-03
 IDIUse=3 WtCom= 9.87D-01 WtEn= 1.30D-02
 Coeff-Com: -0.150D-01 0.165D-01 0.635D-01 0.942D-01 0.341D+00 0.500D+00
 Coeff-En:   0.000D+00 0.000D+00 0.000D+00 0.000D+00 0.250D+00 0.750D+00
 Coeff:     -0.148D-01 0.163D-01 0.627D-01 0.930D-01 0.340D+00 0.503D+00
 Gap=     0.079 Goal=   None    Shift=    0.000
 RMSDP=4.50D-05 MaxDP=3.53D-03 DE=-4.65D-03 OVMax= 1.83D-02

 Cycle   7  Pass 1  IDiag  1:
 RMSU=  3.25D-05    CP:  9.97D-01  2.46D+00  8.24D-01  6.12D-01  8.73D-01
                    CP:  8.11D-01
 E= -1457.10875588352     Delta-E=       -0.001387830669 Rises=F Damp=F
 DIIS: error= 3.13D-04 at cycle   7 NSaved=   7.
 NSaved= 7 IEnMin= 7 EnMin= -1457.10875588352     IErMin= 7 ErrMin= 3.13D-04
 ErrMax= 3.13D-04  0.00D+00 EMaxC= 1.00D-01 BMatC= 1.49D-04 BMatP= 1.31D-03
 IDIUse=3 WtCom= 9.97D-01 WtEn= 3.13D-03
 Coeff-Com: -0.406D-02 0.369D-02 0.776D-02 0.109D-01 0.147D+00 0.324D+00
 Coeff-Com:  0.511D+00
 Coeff-En:   0.000D+00 0.000D+00 0.000D+00 0.000D+00 0.000D+00 0.564D-01
 Coeff-En:   0.944D+00
 Coeff:     -0.405D-02 0.368D-02 0.773D-02 0.108D-01 0.146D+00 0.324D+00
 Coeff:      0.512D+00
 Gap=     0.079 Goal=   None    Shift=    0.000
 RMSDP=1.64D-05 MaxDP=1.11D-03 DE=-1.39D-03 OVMax= 4.87D-03

 Cycle   8  Pass 1  IDiag  1:
 RMSU=  1.26D-05    CP:  9.97D-01  2.45D+00  8.21D-01  6.13D-01  8.95D-01
                    CP:  8.61D-01  8.79D-01
 E= -1457.10889252588     Delta-E=       -0.000136642362 Rises=F Damp=F
 DIIS: error= 8.15D-05 at cycle   8 NSaved=   8.
 NSaved= 8 IEnMin= 8 EnMin= -1457.10889252588     IErMin= 8 ErrMin= 8.15D-05
 ErrMax= 8.15D-05  0.00D+00 EMaxC= 1.00D-01 BMatC= 1.22D-05 BMatP= 1.49D-04
 IDIUse=1 WtCom= 1.00D+00 WtEn= 0.00D+00
 Coeff-Com: -0.208D-02 0.226D-02-0.745D-03-0.299D-02 0.524D-01 0.140D+00
 Coeff-Com:  0.294D+00 0.517D+00
 Coeff:     -0.208D-02 0.226D-02-0.745D-03-0.299D-02 0.524D-01 0.140D+00
 Coeff:      0.294D+00 0.517D+00
 Gap=     0.079 Goal=   None    Shift=    0.000
 RMSDP=5.79D-06 MaxDP=5.89D-04 DE=-1.37D-04 OVMax= 1.56D-03

 Cycle   9  Pass 1  IDiag  1:
 RMSU=  4.73D-06    CP:  9.97D-01  2.45D+00  8.20D-01  6.12D-01  8.96D-01
                    CP:  8.72D-01  9.36D-01  8.58D-01
 E= -1457.10890263253     Delta-E=       -0.000010106649 Rises=F Damp=F
 DIIS: error= 3.47D-05 at cycle   9 NSaved=   9.
 NSaved= 9 IEnMin= 9 EnMin= -1457.10890263253     IErMin= 9 ErrMin= 3.47D-05
 ErrMax= 3.47D-05  0.00D+00 EMaxC= 1.00D-01 BMatC= 2.10D-06 BMatP= 1.22D-05
 IDIUse=1 WtCom= 1.00D+00 WtEn= 0.00D+00
 Coeff-Com: -0.107D-02 0.138D-02-0.111D-02-0.323D-02 0.113D-01 0.387D-01
 Coeff-Com:  0.102D+00 0.324D+00 0.528D+00
 Coeff:     -0.107D-02 0.138D-02-0.111D-02-0.323D-02 0.113D-01 0.387D-01
 Coeff:      0.102D+00 0.324D+00 0.528D+00
 Gap=     0.079 Goal=   None    Shift=    0.000
 RMSDP=3.12D-06 MaxDP=3.70D-04 DE=-1.01D-05 OVMax= 6.25D-04

 Cycle  10  Pass 1  IDiag  1:
 RMSU=  1.67D-06    CP:  9.97D-01  2.45D+00  8.20D-01  6.11D-01  9.00D-01
                    CP:  8.78D-01  9.55D-01  9.69D-01  8.34D-01
 E= -1457.10890468279     Delta-E=       -0.000002050260 Rises=F Damp=F
 DIIS: error= 7.23D-06 at cycle  10 NSaved=  10.
 NSaved=10 IEnMin=10 EnMin= -1457.10890468279     IErMin=10 ErrMin= 7.23D-06
 ErrMax= 7.23D-06  0.00D+00 EMaxC= 1.00D-01 BMatC= 1.49D-07 BMatP= 2.10D-06
 IDIUse=1 WtCom= 1.00D+00 WtEn= 0.00D+00
 Coeff-Com: -0.356D-03 0.499D-03-0.353D-03-0.117D-02-0.156D-02-0.373D-03
 Coeff-Com:  0.971D-02 0.866D-01 0.254D+00 0.653D+00
 Coeff:     -0.356D-03 0.499D-03-0.353D-03-0.117D-02-0.156D-02-0.373D-03
 Coeff:      0.971D-02 0.866D-01 0.254D+00 0.653D+00
 Gap=     0.079 Goal=   None    Shift=    0.000
 RMSDP=1.53D-06 MaxDP=1.93D-04 DE=-2.05D-06 OVMax= 1.27D-04

 Cycle  11  Pass 1  IDiag  1:
 RMSU=  6.82D-07    CP:  9.97D-01  2.45D+00  8.19D-01  6.11D-01  9.01D-01
                    CP:  8.83D-01  9.67D-01  9.91D-01  9.32D-01  1.09D+00
 E= -1457.10890478652     Delta-E=       -0.000000103735 Rises=F Damp=F
 DIIS: error= 5.47D-06 at cycle  11 NSaved=  11.
 NSaved=11 IEnMin=11 EnMin= -1457.10890478652     IErMin=11 ErrMin= 5.47D-06
 ErrMax= 5.47D-06  0.00D+00 EMaxC= 1.00D-01 BMatC= 4.47D-08 BMatP= 1.49D-07
 IDIUse=1 WtCom= 1.00D+00 WtEn= 0.00D+00
 Coeff-Com: -0.103D-03 0.160D-03-0.132D-04-0.184D-03-0.286D-02-0.675D-02
 Coeff-Com: -0.107D-01 0.223D-02 0.764D-01 0.414D+00 0.528D+00
 Coeff:     -0.103D-03 0.160D-03-0.132D-04-0.184D-03-0.286D-02-0.675D-02
 Coeff:     -0.107D-01 0.223D-02 0.764D-01 0.414D+00 0.528D+00
 Gap=     0.079 Goal=   None    Shift=    0.000
 RMSDP=5.60D-07 MaxDP=5.79D-05 DE=-1.04D-07 OVMax= 4.31D-05

 Cycle  12  Pass 1  IDiag  1:
 RMSU=  2.74D-07    CP:  9.97D-01  2.45D+00  8.19D-01  6.10D-01  9.01D-01
                    CP:  8.84D-01  9.71D-01  1.01D+00  9.42D-01  1.20D+00
                    CP:  1.15D+00
 E= -1457.10890482630     Delta-E=       -0.000000039777 Rises=F Damp=F
 DIIS: error= 8.66D-07 at cycle  12 NSaved=  12.
 NSaved=12 IEnMin=12 EnMin= -1457.10890482630     IErMin=12 ErrMin= 8.66D-07
 ErrMax= 8.66D-07  0.00D+00 EMaxC= 1.00D-01 BMatC= 1.35D-09 BMatP= 4.47D-08
 IDIUse=1 WtCom= 1.00D+00 WtEn= 0.00D+00
 Coeff-Com: -0.312D-04 0.473D-04 0.233D-04 0.179D-04-0.101D-02-0.268D-02
 Coeff-Com: -0.479D-02-0.463D-02 0.125D-01 0.118D+00 0.212D+00 0.671D+00
 Coeff:     -0.312D-04 0.473D-04 0.233D-04 0.179D-04-0.101D-02-0.268D-02
 Coeff:     -0.479D-02-0.463D-02 0.125D-01 0.118D+00 0.212D+00 0.671D+00
 Gap=     0.079 Goal=   None    Shift=    0.000
 RMSDP=1.78D-07 MaxDP=2.32D-05 DE=-3.98D-08 OVMax= 8.75D-06

 Cycle  13  Pass 1  IDiag  1:
 RMSU=  6.83D-08    CP:  9.97D-01  2.45D+00  8.19D-01  6.10D-01  9.01D-01
                    CP:  8.84D-01  9.73D-01  1.01D+00  9.50D-01  1.23D+00
                    CP:  1.26D+00  1.03D+00
 E= -1457.10890482721     Delta-E=       -0.000000000907 Rises=F Damp=F
 DIIS: error= 3.77D-07 at cycle  13 NSaved=  13.
 NSaved=13 IEnMin=13 EnMin= -1457.10890482721     IErMin=13 ErrMin= 3.77D-07
 ErrMax= 3.77D-07  0.00D+00 EMaxC= 1.00D-01 BMatC= 2.91D-10 BMatP= 1.35D-09
 IDIUse=1 WtCom= 1.00D+00 WtEn= 0.00D+00
 Coeff-Com: -0.291D-05 0.406D-05 0.479D-05 0.251D-04-0.210D-03-0.606D-03
 Coeff-Com: -0.120D-02-0.275D-02-0.389D-02 0.725D-02 0.415D-01 0.349D+00
 Coeff-Com:  0.611D+00
 Coeff:     -0.291D-05 0.406D-05 0.479D-05 0.251D-04-0.210D-03-0.606D-03
 Coeff:     -0.120D-02-0.275D-02-0.389D-02 0.725D-02 0.415D-01 0.349D+00
 Coeff:      0.611D+00
 Gap=     0.079 Goal=   None    Shift=    0.000
 RMSDP=6.52D-08 MaxDP=9.49D-06 DE=-9.07D-10 OVMax= 5.73D-06

 Cycle  14  Pass 1  IDiag  1:
 RMSU=  2.59D-08    CP:  9.97D-01  2.45D+00  8.19D-01  6.10D-01  9.01D-01
                    CP:  8.84D-01  9.73D-01  1.01D+00  9.50D-01  1.24D+00
                    CP:  1.29D+00  1.10D+00  1.04D+00
 E= -1457.10890482750     Delta-E=       -0.000000000294 Rises=F Damp=F
 DIIS: error= 1.57D-07 at cycle  14 NSaved=  14.
 NSaved=14 IEnMin=14 EnMin= -1457.10890482750     IErMin=14 ErrMin= 1.57D-07
 ErrMax= 1.57D-07  0.00D+00 EMaxC= 1.00D-01 BMatC= 4.95D-11 BMatP= 2.91D-10
 IDIUse=1 WtCom= 1.00D+00 WtEn= 0.00D+00
 Coeff-Com:  0.434D-06-0.914D-06 0.571D-06 0.113D-04 0.171D-04 0.298D-04
 Coeff-Com:  0.858D-05-0.728D-03-0.354D-02-0.108D-01-0.420D-02 0.104D+00
 Coeff-Com:  0.352D+00 0.564D+00
 Coeff:      0.434D-06-0.914D-06 0.571D-06 0.113D-04 0.171D-04 0.298D-04
 Coeff:      0.858D-05-0.728D-03-0.354D-02-0.108D-01-0.420D-02 0.104D+00
 Coeff:      0.352D+00 0.564D+00
 Gap=     0.079 Goal=   None    Shift=    0.000
 RMSDP=1.95D-08 MaxDP=2.33D-06 DE=-2.94D-10 OVMax= 2.65D-06

 Cycle  15  Pass 1  IDiag  1:
 RMSU=  1.00D-08    CP:  9.97D-01  2.45D+00  8.19D-01  6.10D-01  9.01D-01
                    CP:  8.85D-01  9.73D-01  1.01D+00  9.51D-01  1.24D+00
                    CP:  1.30D+00  1.12D+00  1.10D+00  1.08D+00
 E= -1457.10890482748     Delta-E=        0.000000000024 Rises=F Damp=F
 DIIS: error= 5.69D-08 at cycle  15 NSaved=  15.
 NSaved=15 IEnMin=14 EnMin= -1457.10890482750     IErMin=15 ErrMin= 5.69D-08
 ErrMax= 5.69D-08  0.00D+00 EMaxC= 1.00D-01 BMatC= 3.95D-12 BMatP= 4.95D-11
 IDIUse=1 WtCom= 1.00D+00 WtEn= 0.00D+00
 Coeff-Com:  0.508D-06-0.800D-06-0.296D-06 0.228D-05 0.285D-04 0.817D-04
 Coeff-Com:  0.137D-03-0.612D-04-0.137D-02-0.609D-02-0.660D-02 0.134D-01
 Coeff-Com:  0.113D+00 0.279D+00 0.609D+00
 Coeff:      0.508D-06-0.800D-06-0.296D-06 0.228D-05 0.285D-04 0.817D-04
 Coeff:      0.137D-03-0.612D-04-0.137D-02-0.609D-02-0.660D-02 0.134D-01
 Coeff:      0.113D+00 0.279D+00 0.609D+00
 Gap=     0.079 Goal=   None    Shift=    0.000
 RMSDP=6.67D-09 MaxDP=5.98D-07 DE= 2.36D-11 OVMax= 8.22D-07

 Error on total polarization charges =  0.05074
 SCF Done:  E(RM06L) =  -1457.10890483     A.U. after   15 cycles
            NFock= 15  Conv=0.67D-08     -V/T= 2.0046
 KE= 1.450433090387D+03 PE=-9.251503330799D+03 EE= 3.419351885862D+03
 SMD-CDS (non-electrostatic) energy       (kcal/mol) =      -4.30
 (included in total energy above)
 Leave Link  502 at Tue Feb 16 04:34:22 2021, MaxMem=  5242880000 cpu:     13042.6
 (Enter /opt/nce/packages/global/g09/l601.exe)
 Copying SCF densities to generalized density rwf, IOpCl= 0 IROHF=0.

 **********************************************************************

            Population analysis using the SCF density.

 **********************************************************************

 Alpha  occ. eigenvalues --  -24.43409 -24.43395 -24.43394 -19.00550 -14.26854
 Alpha  occ. eigenvalues --  -10.13195 -10.13192 -10.12229 -10.11455 -10.09881
 Alpha  occ. eigenvalues --  -10.09723 -10.09361 -10.09360 -10.07477 -10.07477
 Alpha  occ. eigenvalues --  -10.07106 -10.07105 -10.07095 -10.06924 -10.06923
 Alpha  occ. eigenvalues --  -10.06758 -10.06726 -10.06495 -10.06494 -10.05907
 Alpha  occ. eigenvalues --  -10.05844 -10.05726 -10.05718 -10.04379 -10.04377
 Alpha  occ. eigenvalues --  -10.02453  -6.67877  -1.14323  -1.10667  -1.10606
 Alpha  occ. eigenvalues --   -1.04983  -0.98360  -0.85491  -0.84190  -0.82493
 Alpha  occ. eigenvalues --   -0.81341  -0.78417  -0.74723  -0.73761  -0.73306
 Alpha  occ. eigenvalues --   -0.72550  -0.71321  -0.70779  -0.70364  -0.66429
 Alpha  occ. eigenvalues --   -0.64454  -0.62114  -0.61028  -0.58933  -0.57903
 Alpha  occ. eigenvalues --   -0.56857  -0.56518  -0.54653  -0.52761  -0.52622
 Alpha  occ. eigenvalues --   -0.51145  -0.49546  -0.48929  -0.47673  -0.46778
 Alpha  occ. eigenvalues --   -0.45978  -0.44424  -0.44157  -0.43560  -0.43153
 Alpha  occ. eigenvalues --   -0.43050  -0.42498  -0.41919  -0.41704  -0.41437
 Alpha  occ. eigenvalues --   -0.41085  -0.40770  -0.40747  -0.39822  -0.39564
 Alpha  occ. eigenvalues --   -0.39044  -0.38031  -0.37819  -0.37239  -0.35953
 Alpha  occ. eigenvalues --   -0.35646  -0.35503  -0.35284  -0.34430  -0.34091
 Alpha  occ. eigenvalues --   -0.33963  -0.33768  -0.32943  -0.32780  -0.31983
 Alpha  occ. eigenvalues --   -0.31639  -0.31480  -0.31312  -0.30225  -0.29875
 Alpha  occ. eigenvalues --   -0.29769  -0.29636  -0.29128  -0.25995  -0.25180
 Alpha  occ. eigenvalues --   -0.24545  -0.24025  -0.23290  -0.22998  -0.21215
 Alpha  occ. eigenvalues --   -0.21060
 Alpha virt. eigenvalues --   -0.13162  -0.06486  -0.05223  -0.04777  -0.03920
 Alpha virt. eigenvalues --   -0.03468  -0.02888  -0.02031   0.01004   0.04967
 Alpha virt. eigenvalues --    0.05253   0.06462   0.06478   0.06937   0.07731
 Alpha virt. eigenvalues --    0.08422   0.08751   0.08858   0.09163   0.09468
 Alpha virt. eigenvalues --    0.09563   0.09949   0.10377   0.10403   0.10864
 Alpha virt. eigenvalues --    0.11283   0.11443   0.12015   0.12090   0.12181
 Alpha virt. eigenvalues --    0.12543   0.12582   0.13151   0.13681   0.13991
 Alpha virt. eigenvalues --    0.14547   0.14966   0.15498   0.15679   0.17425
 Alpha virt. eigenvalues --    0.17702   0.18171   0.18348   0.18482   0.19517
 Alpha virt. eigenvalues --    0.20063   0.20811   0.21122   0.21480   0.21614
 Alpha virt. eigenvalues --    0.21983   0.22042   0.22218   0.22279   0.22491
 Alpha virt. eigenvalues --    0.22755   0.23176   0.23741   0.23996   0.24014
 Alpha virt. eigenvalues --    0.24325   0.24565   0.24835   0.25193   0.25920
 Alpha virt. eigenvalues --    0.26123   0.26352   0.26770   0.27009   0.27118
 Alpha virt. eigenvalues --    0.27413   0.27633   0.28031   0.28727   0.28908
 Alpha virt. eigenvalues --    0.29309   0.29599   0.29723   0.30006   0.30571
 Alpha virt. eigenvalues --    0.30891   0.31188   0.31375   0.31773   0.32045
 Alpha virt. eigenvalues --    0.32640   0.32836   0.33109   0.33283   0.33380
 Alpha virt. eigenvalues --    0.33471   0.33875   0.33973   0.34365   0.34523
 Alpha virt. eigenvalues --    0.34754   0.35027   0.35056   0.35534   0.36197
 Alpha virt. eigenvalues --    0.36547   0.37058   0.37150   0.37438   0.38133
 Alpha virt. eigenvalues --    0.38495   0.39079   0.39250   0.39630   0.39807
 Alpha virt. eigenvalues --    0.39900   0.40046   0.40281   0.40446   0.40533
 Alpha virt. eigenvalues --    0.41006   0.41354   0.41842   0.41966   0.42173
 Alpha virt. eigenvalues --    0.42540   0.42713   0.43102   0.43379   0.43885
 Alpha virt. eigenvalues --    0.44109   0.44612   0.44674   0.44876   0.45012
 Alpha virt. eigenvalues --    0.45447   0.45813   0.45863   0.46456   0.46749
 Alpha virt. eigenvalues --    0.47390   0.47908   0.48270   0.48650   0.48894
 Alpha virt. eigenvalues --    0.49301   0.49595   0.49946   0.50008   0.50938
 Alpha virt. eigenvalues --    0.51450   0.52120   0.53142   0.53543   0.54170
 Alpha virt. eigenvalues --    0.54625   0.55105   0.55280   0.55699   0.56819
 Alpha virt. eigenvalues --    0.57318   0.57669   0.58357   0.59033   0.59278
 Alpha virt. eigenvalues --    0.59582   0.60208   0.60409   0.60986   0.61150
 Alpha virt. eigenvalues --    0.61676   0.62023   0.62166   0.62858   0.63069
 Alpha virt. eigenvalues --    0.63516   0.63822   0.64179   0.64780   0.64840
 Alpha virt. eigenvalues --    0.65129   0.65276   0.65670   0.65963   0.66311
 Alpha virt. eigenvalues --    0.66577   0.67024   0.67269   0.67550   0.67826
 Alpha virt. eigenvalues --    0.68064   0.68481   0.68733   0.68957   0.69510
 Alpha virt. eigenvalues --    0.69666   0.70085   0.70176   0.70584   0.71093
 Alpha virt. eigenvalues --    0.71221   0.71337   0.72236   0.72433   0.72770
 Alpha virt. eigenvalues --    0.72966   0.73229   0.73577   0.74165   0.74437
 Alpha virt. eigenvalues --    0.74951   0.75183   0.75853   0.76239   0.76271
 Alpha virt. eigenvalues --    0.76907   0.77480   0.77946   0.78105   0.79105
 Alpha virt. eigenvalues --    0.79204   0.79897   0.80264   0.80631   0.81044
 Alpha virt. eigenvalues --    0.81330   0.81551   0.82033   0.82460   0.83127
 Alpha virt. eigenvalues --    0.83887   0.83982   0.84696   0.85400   0.86236
 Alpha virt. eigenvalues --    0.86462   0.86708   0.87011   0.87689   0.88381
 Alpha virt. eigenvalues --    0.88904   0.89212   0.89574   0.90020   0.90544
 Alpha virt. eigenvalues --    0.91886   0.92410   0.93235   0.93429   0.93739
 Alpha virt. eigenvalues --    0.94572   0.95268   0.95801   0.96201   0.96773
 Alpha virt. eigenvalues --    0.97470   0.98093   0.99123   0.99545   0.99576
 Alpha virt. eigenvalues --    1.00176   1.01932   1.02835   1.03427   1.04354
 Alpha virt. eigenvalues --    1.04657   1.05175   1.05868   1.06800   1.07259
 Alpha virt. eigenvalues --    1.07685   1.08108   1.08545   1.08884   1.09307
 Alpha virt. eigenvalues --    1.09500   1.10447   1.10998   1.11432   1.11799
 Alpha virt. eigenvalues --    1.13475   1.13723   1.14026   1.14726   1.14768
 Alpha virt. eigenvalues --    1.15381   1.16688   1.17455   1.18480   1.18906
 Alpha virt. eigenvalues --    1.19555   1.20204   1.21180   1.21265   1.21630
 Alpha virt. eigenvalues --    1.22116   1.23060   1.23418   1.23644   1.23923
 Alpha virt. eigenvalues --    1.24217   1.25035   1.25181   1.25496   1.26204
 Alpha virt. eigenvalues --    1.27347   1.27590   1.27944   1.28284   1.28914
 Alpha virt. eigenvalues --    1.29839   1.30011   1.30642   1.30723   1.31359
 Alpha virt. eigenvalues --    1.31506   1.32707   1.33198   1.34707   1.35147
 Alpha virt. eigenvalues --    1.35271   1.35786   1.36631   1.37366   1.38721
 Alpha virt. eigenvalues --    1.39320   1.39616   1.41030   1.41825   1.42584
 Alpha virt. eigenvalues --    1.42881   1.43896   1.44397   1.44704   1.45369
 Alpha virt. eigenvalues --    1.45803   1.46723   1.47275   1.47685   1.48349
 Alpha virt. eigenvalues --    1.49191   1.49505   1.49778   1.50202   1.50335
 Alpha virt. eigenvalues --    1.51170   1.51311   1.51678   1.52381   1.53039
 Alpha virt. eigenvalues --    1.54014   1.54263   1.54709   1.54754   1.55698
 Alpha virt. eigenvalues --    1.56045   1.56622   1.56771   1.57166   1.57911
 Alpha virt. eigenvalues --    1.58616   1.59179   1.59628   1.59924   1.60259
 Alpha virt. eigenvalues --    1.60944   1.61761   1.62196   1.62291   1.62999
 Alpha virt. eigenvalues --    1.63100   1.63284   1.64402   1.64704   1.65904
 Alpha virt. eigenvalues --    1.66035   1.66858   1.67252   1.68358   1.68429
 Alpha virt. eigenvalues --    1.68992   1.69281   1.70312   1.70548   1.71058
 Alpha virt. eigenvalues --    1.71480   1.72252   1.73469   1.73711   1.74044
 Alpha virt. eigenvalues --    1.74846   1.75460   1.76110   1.76313   1.76717
 Alpha virt. eigenvalues --    1.76955   1.77498   1.78393   1.78624   1.79036
 Alpha virt. eigenvalues --    1.79753   1.80052   1.80724   1.82068   1.82976
 Alpha virt. eigenvalues --    1.83223   1.83663   1.85533   1.86302   1.86676
 Alpha virt. eigenvalues --    1.87058   1.88198   1.88428   1.89382   1.89975
 Alpha virt. eigenvalues --    1.90195   1.90938   1.91016   1.91702   1.92314
 Alpha virt. eigenvalues --    1.92804   1.93042   1.93680   1.94652   1.96032
 Alpha virt. eigenvalues --    1.96423   1.96743   1.97203   1.97771   1.98756
 Alpha virt. eigenvalues --    1.99505   1.99957   2.00997   2.02273   2.02374
 Alpha virt. eigenvalues --    2.02745   2.03740   2.04066   2.05890   2.06537
 Alpha virt. eigenvalues --    2.07865   2.08238   2.08489   2.09230   2.09631
 Alpha virt. eigenvalues --    2.10390   2.10960   2.11500   2.12616   2.12753
 Alpha virt. eigenvalues --    2.13344   2.14080   2.15385   2.15697   2.15990
 Alpha virt. eigenvalues --    2.17008   2.17460   2.17703   2.17902   2.18980
 Alpha virt. eigenvalues --    2.19531   2.20311   2.20523   2.21189   2.21892
 Alpha virt. eigenvalues --    2.22880   2.23589   2.23812   2.24333   2.24977
 Alpha virt. eigenvalues --    2.25211   2.25278   2.25513   2.26158   2.27925
 Alpha virt. eigenvalues --    2.28425   2.28579   2.29020   2.29594   2.31012
 Alpha virt. eigenvalues --    2.31472   2.31925   2.32099   2.34080   2.35565
 Alpha virt. eigenvalues --    2.35944   2.36609   2.37116   2.38098   2.39281
 Alpha virt. eigenvalues --    2.40319   2.40835   2.41458   2.41891   2.42441
 Alpha virt. eigenvalues --    2.44233   2.45317   2.46457   2.46667   2.48528
 Alpha virt. eigenvalues --    2.49285   2.50315   2.50520   2.51520   2.52455
 Alpha virt. eigenvalues --    2.53115   2.53648   2.54275   2.54946   2.56249
 Alpha virt. eigenvalues --    2.57088   2.57360   2.57895   2.58328   2.59446
 Alpha virt. eigenvalues --    2.59518   2.59718   2.60390   2.62206   2.62693
 Alpha virt. eigenvalues --    2.62811   2.63597   2.63875   2.64137   2.64625
 Alpha virt. eigenvalues --    2.65435   2.65526   2.66066   2.66365   2.66556
 Alpha virt. eigenvalues --    2.67181   2.67958   2.68931   2.69388   2.70067
 Alpha virt. eigenvalues --    2.70368   2.70644   2.71320   2.71530   2.71837
 Alpha virt. eigenvalues --    2.72180   2.72624   2.73034   2.73785   2.74477
 Alpha virt. eigenvalues --    2.74819   2.75030   2.75507   2.75545   2.76247
 Alpha virt. eigenvalues --    2.76949   2.77181   2.77262   2.77982   2.78286
 Alpha virt. eigenvalues --    2.79307   2.79620   2.79837   2.80460   2.81243
 Alpha virt. eigenvalues --    2.81274   2.81982   2.82876   2.83380   2.83782
 Alpha virt. eigenvalues --    2.84069   2.84342   2.85405   2.85543   2.86301
 Alpha virt. eigenvalues --    2.86556   2.87050   2.87626   2.87803   2.88397
 Alpha virt. eigenvalues --    2.88716   2.88945   2.89371   2.89838   2.90093
 Alpha virt. eigenvalues --    2.90320   2.91621   2.92016   2.92162   2.92353
 Alpha virt. eigenvalues --    2.93559   2.93708   2.93918   2.94607   2.94739
 Alpha virt. eigenvalues --    2.95160   2.95570   2.96338   2.96736   2.97135
 Alpha virt. eigenvalues --    2.97736   2.97989   2.98186   2.99051   2.99227
 Alpha virt. eigenvalues --    3.00916   3.01115   3.01518   3.02541   3.02932
 Alpha virt. eigenvalues --    3.03061   3.03627   3.03836   3.04334   3.04962
 Alpha virt. eigenvalues --    3.05987   3.07188   3.07871   3.08300   3.08622
 Alpha virt. eigenvalues --    3.08989   3.09689   3.10243   3.10383   3.11069
 Alpha virt. eigenvalues --    3.11317   3.12034   3.13082   3.13321   3.13672
 Alpha virt. eigenvalues --    3.13994   3.14741   3.15597   3.15748   3.16058
 Alpha virt. eigenvalues --    3.16565   3.17147   3.17419   3.17970   3.18326
 Alpha virt. eigenvalues --    3.19167   3.19311   3.19949   3.20149   3.20467
 Alpha virt. eigenvalues --    3.20930   3.22067   3.22655   3.23091   3.23353
 Alpha virt. eigenvalues --    3.23766   3.23912   3.24288   3.25190   3.25549
 Alpha virt. eigenvalues --    3.26491   3.27023   3.27371   3.27977   3.28081
 Alpha virt. eigenvalues --    3.28813   3.29636   3.30071   3.30962   3.31502
 Alpha virt. eigenvalues --    3.32297   3.32948   3.33502   3.34204   3.34358
 Alpha virt. eigenvalues --    3.34988   3.35642   3.36488   3.36552   3.36971
 Alpha virt. eigenvalues --    3.37356   3.37459   3.38080   3.38885   3.39247
 Alpha virt. eigenvalues --    3.39594   3.39703   3.40191   3.40776   3.41320
 Alpha virt. eigenvalues --    3.41620   3.42327   3.42899   3.43192   3.43432
 Alpha virt. eigenvalues --    3.43860   3.44044   3.44657   3.45161   3.45699
 Alpha virt. eigenvalues --    3.45794   3.46625   3.47256   3.47487   3.48272
 Alpha virt. eigenvalues --    3.48384   3.48621   3.49118   3.49746   3.50079
 Alpha virt. eigenvalues --    3.51329   3.51620   3.52064   3.52596   3.52903
 Alpha virt. eigenvalues --    3.53364   3.53520   3.54641   3.54771   3.55297
 Alpha virt. eigenvalues --    3.55568   3.56118   3.56648   3.57481   3.57990
 Alpha virt. eigenvalues --    3.58290   3.58511   3.58601   3.59512   3.59857
 Alpha virt. eigenvalues --    3.60118   3.60670   3.60772   3.61508   3.61759
 Alpha virt. eigenvalues --    3.62192   3.62630   3.63411   3.63821   3.64379
 Alpha virt. eigenvalues --    3.65413   3.65974   3.66202   3.66757   3.67105
 Alpha virt. eigenvalues --    3.68070   3.68687   3.69295   3.71764   3.71951
 Alpha virt. eigenvalues --    3.72360   3.73454   3.73770   3.74102   3.75002
 Alpha virt. eigenvalues --    3.75516   3.77264   3.78146   3.78613   3.79688
 Alpha virt. eigenvalues --    3.80584   3.81758   3.82474   3.83882   3.84178
 Alpha virt. eigenvalues --    3.85109   3.85631   3.85896   3.87997   3.88566
 Alpha virt. eigenvalues --    3.90129   3.90489   3.91533   3.92863   3.93515
 Alpha virt. eigenvalues --    3.93715   3.95081   3.95611   3.95980   3.97195
 Alpha virt. eigenvalues --    3.98425   3.98821   3.99269   4.00008   4.01815
 Alpha virt. eigenvalues --    4.02119   4.02548   4.03322   4.03560   4.04381
 Alpha virt. eigenvalues --    4.06127   4.06366   4.07545   4.09564   4.10142
 Alpha virt. eigenvalues --    4.11272   4.11830   4.12726   4.12943   4.13687
 Alpha virt. eigenvalues --    4.14412   4.14837   4.15068   4.16620   4.17269
 Alpha virt. eigenvalues --    4.18252   4.19107   4.20270   4.20536   4.21337
 Alpha virt. eigenvalues --    4.22289   4.22992   4.23851   4.25620   4.26232
 Alpha virt. eigenvalues --    4.26379   4.27221   4.27860   4.28120   4.29206
 Alpha virt. eigenvalues --    4.29701   4.30419   4.30861   4.31322   4.31579
 Alpha virt. eigenvalues --    4.32228   4.32946   4.33333   4.33624   4.34067
 Alpha virt. eigenvalues --    4.34885   4.36710   4.37511   4.37674   4.37991
 Alpha virt. eigenvalues --    4.38670   4.39828   4.41117   4.42473   4.42698
 Alpha virt. eigenvalues --    4.43412   4.44228   4.45183   4.48023   4.48572
 Alpha virt. eigenvalues --    4.49329   4.49759   4.50177   4.52278   4.53283
 Alpha virt. eigenvalues --    4.54888   4.55712   4.56598   4.58273   4.59963
 Alpha virt. eigenvalues --    4.60690   4.61914   4.65009   4.66323   4.66699
 Alpha virt. eigenvalues --    4.68700   4.70293   4.71382   4.72603   4.74016
 Alpha virt. eigenvalues --    4.74744   4.76322   4.76992   4.78169   4.78675
 Alpha virt. eigenvalues --    4.80099   4.83137   4.84015   4.84850   4.85895
 Alpha virt. eigenvalues --    4.87306   4.89424   4.93906   4.95881   4.96230
 Alpha virt. eigenvalues --    4.97289   4.99687   5.02132   5.02229   5.05007
 Alpha virt. eigenvalues --    5.06069   5.07014   5.07313   5.09022   5.11313
 Alpha virt. eigenvalues --    5.11451   5.11989   5.14076   5.16637   5.17092
 Alpha virt. eigenvalues --    5.18525   5.21385   5.25003   5.26016   5.27617
 Alpha virt. eigenvalues --    5.28214   5.32615   5.33070   5.34179   5.37328
 Alpha virt. eigenvalues --    5.39186   5.39666   5.46225   5.46800   5.47089
 Alpha virt. eigenvalues --    5.48964   5.51700   5.54429   5.61721   5.61962
 Alpha virt. eigenvalues --    5.63660   5.64837   5.67422   5.67784   5.69810
 Alpha virt. eigenvalues --    5.71411   5.76148   5.83094   5.85541   5.88295
 Alpha virt. eigenvalues --    5.89440   5.93293   5.94568   5.97728   6.06723
 Alpha virt. eigenvalues --    6.13663   6.13722   6.22700   6.36783   6.49180
 Alpha virt. eigenvalues --    6.55750   6.68780   6.77525   6.93093   7.01515
 Alpha virt. eigenvalues --    7.03788   7.06736   7.06919   7.06973   7.07430
 Alpha virt. eigenvalues --    7.07454   7.07908   7.08507   7.08772   7.18615
 Alpha virt. eigenvalues --    7.22643   7.23736   7.25752   7.26948   7.27372
 Alpha virt. eigenvalues --    7.31445   7.42907   7.44949   7.45049   7.48253
 Alpha virt. eigenvalues --    7.58739   7.59115   7.59130   8.50030   8.53984
 Alpha virt. eigenvalues --    8.54115   8.67730   8.68220   8.73358   9.01694
 Alpha virt. eigenvalues --    9.01909   9.04628   9.04847   9.08976   9.09189
 Alpha virt. eigenvalues --    9.09972   9.15094   9.16914  15.75645  22.30080
 Alpha virt. eigenvalues --   22.42396  22.43929  22.52025  22.54728  22.71110
 Alpha virt. eigenvalues --   22.71785  22.73453  22.74206  22.75203  22.77278
 Alpha virt. eigenvalues --   22.80890  22.82122  22.85682  22.86269  22.92993
 Alpha virt. eigenvalues --   22.98345  23.00610  23.02591  23.08179  23.17217
 Alpha virt. eigenvalues --   23.23920  23.37957  23.42264  23.47419  23.79831
 Alpha virt. eigenvalues --   33.46949  44.42684  57.31294  57.39426  57.44795
          Condensed to atoms (all electrons):
 Mulliken charges:
               1
     1  C   -0.032709
     2  C   -0.198365
     3  C    0.294582
     4  C   -0.036671
     5  C   -0.173974
     6  C   -0.104883
     7  C    0.559795
     8  C   -0.042634
     9  C    0.294234
    10  C   -0.198416
    11  H    0.140333
    12  C   -0.032342
    13  C   -0.105808
    14  C   -0.170010
    15  H    0.112561
    16  H    0.140354
    17  H    0.181839
    18  H    0.105940
    19  H    0.112552
    20  H    0.105902
    21  H    0.181477
    22  N   -0.043024
    23  C    0.096284
    24  C   -0.382457
    25  C   -0.378529
    26  C   -0.185118
    27  C   -0.187021
    28  C   -0.059802
    29  H    0.091396
    30  H    0.132963
    31  C    0.100078
    32  C   -0.305964
    33  C   -0.281422
    34  C   -0.169277
    35  H    0.111800
    36  C   -0.108758
    37  H    0.108236
    38  C    0.596179
    39  H    0.124405
    40  H    0.103299
    41  O   -0.467365
    42  C    0.001158
    43  H    0.094247
    44  H    0.085575
    45  H    0.085594
    46  H    0.092516
    47  B    0.894559
    48  F   -0.471637
    49  F   -0.472509
    50  F   -0.470853
    51  H    0.131690
 Sum of Mulliken charges =  -0.00000
 Mulliken charges with hydrogens summed into heavy atoms:
               1
     1  C    0.079852
     2  C   -0.058010
     3  C    0.294582
     4  C   -0.036671
[...]
 Alpha virt. eigenvalues --    0.57258   0.57902   0.58856   0.59517   0.59667
 Alpha virt. eigenvalues --    0.59868   0.60346   0.60747   0.61321   0.61571
 Alpha virt. eigenvalues --    0.61844   0.62188   0.62400   0.63475   0.63693
 Alpha virt. eigenvalues --    0.64201   0.64369   0.64696   0.65072   0.65347
 Alpha virt. eigenvalues --    0.65535   0.65825   0.65921   0.66079   0.66668
 Alpha virt. eigenvalues --    0.66717   0.67307   0.67814   0.68182   0.68572
 Alpha virt. eigenvalues --    0.68630   0.68739   0.69401   0.69674   0.69976
 Alpha virt. eigenvalues --    0.70136   0.70505   0.70764   0.71212   0.71475
 Alpha virt. eigenvalues --    0.71638   0.72035   0.72288   0.72677   0.73158
 Alpha virt. eigenvalues --    0.73774   0.74026   0.74093   0.74534   0.74927
 Alpha virt. eigenvalues --    0.75318   0.75506   0.76013   0.76198   0.76618
 Alpha virt. eigenvalues --    0.76896   0.77395   0.78068   0.78570   0.79541
 Alpha virt. eigenvalues --    0.79833   0.80291   0.80780   0.81326   0.81557
 Alpha virt. eigenvalues --    0.81823   0.82155   0.82352   0.82955   0.83610
 Alpha virt. eigenvalues --    0.84005   0.84315   0.85142   0.85761   0.86639
 Alpha virt. eigenvalues --    0.86867   0.87103   0.87323   0.88080   0.88636
 Alpha virt. eigenvalues --    0.88819   0.89632   0.89959   0.90336   0.90958
 Alpha virt. eigenvalues --    0.92231   0.92351   0.93538   0.93736   0.94424
 Alpha virt. eigenvalues --    0.95157   0.95595   0.95784   0.96817   0.97396
 Alpha virt. eigenvalues --    0.97994   0.98173   0.99438   0.99708   0.99896
 Alpha virt. eigenvalues --    1.00546   1.02699   1.02947   1.04191   1.04467
 Alpha virt. eigenvalues --    1.05034   1.06112   1.06289   1.07178   1.07387
 Alpha virt. eigenvalues --    1.07974   1.08271   1.08853   1.08969   1.09534
 Alpha virt. eigenvalues --    1.09755   1.11072   1.11290   1.11796   1.12141
 Alpha virt. eigenvalues --    1.13256   1.14120   1.14196   1.14816   1.15516
 Alpha virt. eigenvalues --    1.15836   1.17121   1.18474   1.18648   1.18964
 Alpha virt. eigenvalues --    1.19944   1.20509   1.21768   1.22163   1.22330
 Alpha virt. eigenvalues --    1.23108   1.23711   1.24127   1.24223   1.24548
 Alpha virt. eigenvalues --    1.24964   1.25428   1.25763   1.25986   1.27169
 Alpha virt. eigenvalues --    1.27985   1.28487   1.28790   1.29094   1.29388
 Alpha virt. eigenvalues --    1.29978   1.30592   1.30794   1.31361   1.31837
 Alpha virt. eigenvalues --    1.32411   1.33430   1.34171   1.35047   1.35778
 Alpha virt. eigenvalues --    1.36436   1.36922   1.37253   1.38438   1.39252
 Alpha virt. eigenvalues --    1.39649   1.40880   1.41092   1.42137   1.42745
 Alpha virt. eigenvalues --    1.43481   1.44330   1.44440   1.44903   1.45632
 Alpha virt. eigenvalues --    1.46343   1.46960   1.47276   1.48152   1.48980
 Alpha virt. eigenvalues --    1.49601   1.50449   1.50792   1.50831   1.51084
 Alpha virt. eigenvalues --    1.51698   1.52012   1.52069   1.52966   1.53712
 Alpha virt. eigenvalues --    1.54381   1.54535   1.54922   1.55401   1.56195
 Alpha virt. eigenvalues --    1.56698   1.57247   1.57491   1.58173   1.58623
 Alpha virt. eigenvalues --    1.59177   1.59361   1.60166   1.60429   1.60888
 Alpha virt. eigenvalues --    1.61378   1.62001   1.62421   1.62651   1.62940
 Alpha virt. eigenvalues --    1.63786   1.64101   1.64519   1.64985   1.66606
 Alpha virt. eigenvalues --    1.67058   1.67467   1.67811   1.68237   1.68465
 Alpha virt. eigenvalues --    1.69703   1.69875   1.70270   1.71130   1.72288
 Alpha virt. eigenvalues --    1.72480   1.72715   1.73608   1.74012   1.74601
 Alpha virt. eigenvalues --    1.75357   1.75925   1.76488   1.76635   1.77364
 Alpha virt. eigenvalues --    1.77792   1.77947   1.78923   1.79443   1.79746
 Alpha virt. eigenvalues --    1.80326   1.80573   1.80919   1.82137   1.82888
 Alpha virt. eigenvalues --    1.83608   1.84475   1.85649   1.86663   1.87345
 Alpha virt. eigenvalues --    1.88149   1.88680   1.89174   1.90424   1.90821
 Alpha virt. eigenvalues --    1.90986   1.91308   1.91482   1.92029   1.93037
 Alpha virt. eigenvalues --    1.93180   1.94289   1.94543   1.95891   1.96604
 Alpha virt. eigenvalues --    1.97194   1.97347   1.97731   1.98262   1.99290
 Alpha virt. eigenvalues --    2.00274   2.01188   2.01885   2.03494   2.03581
 Alpha virt. eigenvalues --    2.03768   2.05090   2.05720   2.07067   2.07534
 Alpha virt. eigenvalues --    2.08633   2.09179   2.09542   2.09919   2.10574
 Alpha virt. eigenvalues --    2.10658   2.11742   2.12180   2.13413   2.13563
 Alpha virt. eigenvalues --    2.14030   2.14890   2.15027   2.16400   2.17173
 Alpha virt. eigenvalues --    2.17235   2.18665   2.18861   2.19110   2.19929
 Alpha virt. eigenvalues --    2.20281   2.20893   2.21512   2.21945   2.23747
 Alpha virt. eigenvalues --    2.24241   2.24524   2.24689   2.25367   2.25612
 Alpha virt. eigenvalues --    2.25754   2.26551   2.27102   2.27486   2.29121
 Alpha virt. eigenvalues --    2.29357   2.29879   2.30713   2.31591   2.31936
 Alpha virt. eigenvalues --    2.32780   2.32874   2.33630   2.35073   2.36190
 Alpha virt. eigenvalues --    2.36523   2.38019   2.38445   2.40048   2.40904
 Alpha virt. eigenvalues --    2.41117   2.41673   2.42118   2.43004   2.43500
 Alpha virt. eigenvalues --    2.45602   2.46207   2.46988   2.47849   2.48668
 Alpha virt. eigenvalues --    2.49996   2.51521   2.51700   2.52620   2.53304
 Alpha virt. eigenvalues --    2.54110   2.54426   2.55522   2.55967   2.57375
 Alpha virt. eigenvalues --    2.57953   2.58227   2.58587   2.59169   2.59969
 Alpha virt. eigenvalues --    2.60089   2.60341   2.62414   2.63026   2.63380
 Alpha virt. eigenvalues --    2.63935   2.64375   2.64782   2.65059   2.65705
 Alpha virt. eigenvalues --    2.65901   2.66302   2.66585   2.67544   2.67772
 Alpha virt. eigenvalues --    2.68567   2.69433   2.69792   2.70186   2.71008
 Alpha virt. eigenvalues --    2.71101   2.71553   2.71696   2.72375   2.72824
 Alpha virt. eigenvalues --    2.73296   2.73884   2.74423   2.75186   2.75460
 Alpha virt. eigenvalues --    2.75821   2.76175   2.76414   2.76755   2.77213
 Alpha virt. eigenvalues --    2.77375   2.77744   2.77797   2.78351   2.79460
 Alpha virt. eigenvalues --    2.79854   2.80774   2.81155   2.81325   2.82133
 Alpha virt. eigenvalues --    2.82293   2.82608   2.83604   2.83630   2.84065
 Alpha virt. eigenvalues --    2.84348   2.84801   2.85865   2.86266   2.87113
 Alpha virt. eigenvalues --    2.87583   2.88085   2.88286   2.88502   2.88570
 Alpha virt. eigenvalues --    2.89165   2.89655   2.90404   2.91230   2.91336
 Alpha virt. eigenvalues --    2.91798   2.92559   2.92987   2.93270   2.93570
 Alpha virt. eigenvalues --    2.94190   2.94726   2.95454   2.95628   2.96370
 Alpha virt. eigenvalues --    2.96777   2.97001   2.97070   2.97505   2.98304
 Alpha virt. eigenvalues --    2.98703   2.98959   2.99677   2.99813   3.00354
 Alpha virt. eigenvalues --    3.00978   3.01338   3.01969   3.02180   3.03181
 Alpha virt. eigenvalues --    3.03547   3.03961   3.04605   3.04792   3.05522
 Alpha virt. eigenvalues --    3.06311   3.07940   3.08241   3.08505   3.09115
 Alpha virt. eigenvalues --    3.09923   3.10475   3.10861   3.11257   3.11784
 Alpha virt. eigenvalues --    3.12457   3.12963   3.13344   3.14120   3.14544
 Alpha virt. eigenvalues --    3.15109   3.15632   3.16282   3.16522   3.16923
 Alpha virt. eigenvalues --    3.17172   3.17804   3.18321   3.18688   3.18972
 Alpha virt. eigenvalues --    3.19650   3.19934   3.20223   3.20521   3.20875
 Alpha virt. eigenvalues --    3.21894   3.22398   3.23188   3.23605   3.23877
 Alpha virt. eigenvalues --    3.24483   3.24846   3.25287   3.25822   3.26603
 Alpha virt. eigenvalues --    3.27305   3.27650   3.27954   3.29248   3.29380
 Alpha virt. eigenvalues --    3.30031   3.30352   3.31170   3.32041   3.32294
 Alpha virt. eigenvalues --    3.32524   3.33653   3.34167   3.34551   3.35035
 Alpha virt. eigenvalues --    3.35328   3.36777   3.36975   3.37067   3.37846
 Alpha virt. eigenvalues --    3.38204   3.38882   3.39403   3.39768   3.40024
 Alpha virt. eigenvalues --    3.40508   3.40696   3.41641   3.41858   3.42093
 Alpha virt. eigenvalues --    3.42879   3.43367   3.43717   3.44189   3.44380
 Alpha virt. eigenvalues --    3.45406   3.45493   3.45801   3.46159   3.46966
 Alpha virt. eigenvalues --    3.47130   3.47805   3.48021   3.48184   3.48738
 Alpha virt. eigenvalues --    3.49261   3.49768   3.50497   3.50673   3.51238
 Alpha virt. eigenvalues --    3.52076   3.52782   3.53197   3.53465   3.53992
 Alpha virt. eigenvalues --    3.54318   3.54876   3.55136   3.55547   3.56421
 Alpha virt. eigenvalues --    3.56885   3.57324   3.57757   3.58163   3.58467
 Alpha virt. eigenvalues --    3.59254   3.60074   3.60284   3.60877   3.61138
 Alpha virt. eigenvalues --    3.61235   3.61719   3.61960   3.62519   3.62740
 Alpha virt. eigenvalues --    3.63192   3.63930   3.64440   3.64556   3.64752
 Alpha virt. eigenvalues --    3.66155   3.66380   3.67304   3.67559   3.68694
 Alpha virt. eigenvalues --    3.69977   3.70588   3.71616   3.72888   3.73317
 Alpha virt. eigenvalues --    3.73544   3.73747   3.74555   3.75583   3.76246
 Alpha virt. eigenvalues --    3.76758   3.76977   3.78752   3.80167   3.80980
 Alpha virt. eigenvalues --    3.81607   3.83136   3.84240   3.85037   3.85982
 Alpha virt. eigenvalues --    3.86325   3.87035   3.87887   3.89985   3.90635
 Alpha virt. eigenvalues --    3.91494   3.92079   3.92818   3.93936   3.94871
 Alpha virt. eigenvalues --    3.96492   3.97141   3.97616   3.98353   3.99489
 Alpha virt. eigenvalues --    3.99699   4.00566   4.01400   4.02506   4.03416
 Alpha virt. eigenvalues --    4.04032   4.04473   4.04879   4.05232   4.06205
 Alpha virt. eigenvalues --    4.07866   4.08362   4.09284   4.11242   4.11869
 Alpha virt. eigenvalues --    4.12362   4.13627   4.13738   4.14264   4.15364
 Alpha virt. eigenvalues --    4.15834   4.16363   4.17287   4.18449   4.18926
 Alpha virt. eigenvalues --    4.20881   4.21579   4.21803   4.22018   4.23668
 Alpha virt. eigenvalues --    4.24129   4.24589   4.25521   4.27557   4.28280
 Alpha virt. eigenvalues --    4.29451   4.29831   4.30023   4.30526   4.31594
 Alpha virt. eigenvalues --    4.32063   4.32616   4.33126   4.33675   4.33950
 Alpha virt. eigenvalues --    4.34187   4.35271   4.35648   4.35948   4.36667
 Alpha virt. eigenvalues --    4.36865   4.39141   4.39711   4.40030   4.40325
 Alpha virt. eigenvalues --    4.40957   4.43127   4.43490   4.43741   4.44341
 Alpha virt. eigenvalues --    4.45027   4.45794   4.47269   4.48025   4.51391
 Alpha virt. eigenvalues --    4.51945   4.53172   4.53650   4.54951   4.55488
 Alpha virt. eigenvalues --    4.57435   4.58790   4.58920   4.61560   4.62630
 Alpha virt. eigenvalues --    4.63845   4.64870   4.68080   4.69096   4.69538
 Alpha virt. eigenvalues --    4.71096   4.72371   4.74189   4.75377   4.75759
 Alpha virt. eigenvalues --    4.77692   4.79294   4.79816   4.80158   4.81150
 Alpha virt. eigenvalues --    4.82908   4.85551   4.87237   4.87812   4.88195
 Alpha virt. eigenvalues --    4.89808   4.90511   4.94990   4.97370   4.98410
 Alpha virt. eigenvalues --    4.99248   5.01264   5.03795   5.04082   5.06745
 Alpha virt. eigenvalues --    5.07997   5.08721   5.10568   5.10755   5.12727
 Alpha virt. eigenvalues --    5.13901   5.14322   5.15436   5.19167   5.19878
 Alpha virt. eigenvalues --    5.22886   5.23318   5.27109   5.28847   5.30943
 Alpha virt. eigenvalues --    5.31732   5.35794   5.37136   5.37951   5.39935
 Alpha virt. eigenvalues --    5.42230   5.43799   5.47755   5.48249   5.48819
 Alpha virt. eigenvalues --    5.49682   5.54162   5.56400   5.62263   5.63584
 Alpha virt. eigenvalues --    5.64535   5.67770   5.68415   5.69860   5.70000
 Alpha virt. eigenvalues --    5.73489   5.78770   5.85839   5.88090   5.88653
 Alpha virt. eigenvalues --    5.91216   5.95800   5.98850   6.00606   6.05232
 Alpha virt. eigenvalues --    6.13942   6.17508   6.24106   6.39619   6.49682
 Alpha virt. eigenvalues --    6.61189   6.68957   6.78317   6.93929   7.00826
 Alpha virt. eigenvalues --    7.04403   7.07142   7.07439   7.07496   7.07765
 Alpha virt. eigenvalues --    7.07808   7.08087   7.08505   7.09193   7.19194
 Alpha virt. eigenvalues --    7.20414   7.21737   7.26397   7.27683   7.28351
 Alpha virt. eigenvalues --    7.31718   7.40681   7.44742   7.45396   7.48330
 Alpha virt. eigenvalues --    7.58555   7.59770   7.59792   8.51526   8.53373
 Alpha virt. eigenvalues --    8.53984   8.68132   8.68943   8.75217   8.96899
 Alpha virt. eigenvalues --    8.98698   9.00669   9.04476   9.07569   9.09559
 Alpha virt. eigenvalues --    9.10721   9.17240   9.19108  15.68620  22.33160
 Alpha virt. eigenvalues --   22.43661  22.46978  22.54420  22.60305  22.76402
 Alpha virt. eigenvalues --   22.77100  22.79217  22.80176  22.81901  22.84511
 Alpha virt. eigenvalues --   22.84838  22.88250  22.91311  22.93781  22.98193
 Alpha virt. eigenvalues --   23.06260  23.07015  23.09071  23.14538  23.24931
 Alpha virt. eigenvalues --   23.32830  23.45678  23.48740  23.55364  23.89195
 Alpha virt. eigenvalues --   33.49386  44.42131  57.29339  57.38066  57.43390
          Condensed to atoms (all electrons):
 Mulliken charges:
               1
     1  C   -0.017237
     2  C   -0.189802
     3  C    0.305951
     4  C   -0.034476
     5  C   -0.128136
     6  C   -0.101991
     7  C    0.562534
     8  C   -0.037974
     9  C    0.307020
    10  C   -0.189732
    11  H    0.133931
    12  C   -0.017210
    13  C   -0.101648
    14  C   -0.126492
    15  H    0.105579
    16  H    0.133918
    17  H    0.166572
    18  H    0.097765
    19  H    0.105569
    20  H    0.097799
    21  H    0.165875
    22  N   -0.052827
    23  C    0.011493
    24  C   -0.350026
    25  C   -0.343103
    26  C   -0.190773
    27  C   -0.187876
    28  C   -0.041886
    29  H    0.084338
    30  H    0.114409
    31  C    0.112601
    32  C   -0.317813
    33  C   -0.284556
    34  C   -0.156003
    35  H    0.104874
    36  C   -0.100790
    37  H    0.101230
    38  C    0.611274
    39  H    0.118640
    40  H    0.096381
    41  O   -0.470888
    42  C    0.011198
    43  H    0.090649
    44  H    0.083161
    45  H    0.083174
    46  H    0.082771
    47  B    0.893312
    48  F   -0.483107
    49  F   -0.488498
    50  F   -0.483788
    51  H    0.114615
 Sum of Mulliken charges =  -0.00000
 Mulliken charges with hydrogens summed into heavy atoms:
               1
     1  C    0.088342
     2  C   -0.055884
     3  C    0.305951
     4  C   -0.034476
     5  C    0.038436
     6  C   -0.004226
     7  C    0.562534
     8  C   -0.037974
     9  C    0.307020
    10  C   -0.055801
    12  C    0.088359
    13  C   -0.003849
    14  C    0.039383
    22  N   -0.052827
    23  C    0.011493
    24  C   -0.235412
    25  C   -0.228694
    26  C   -0.108002
    27  C   -0.103538
    28  C   -0.041886
    31  C    0.112601
    32  C   -0.212939
    33  C   -0.183326
    34  C   -0.037363
    36  C   -0.004409
    38  C    0.611274
    41  O   -0.470888
    42  C    0.268183
    47  B    0.893312
    48  F   -0.483107
    49  F   -0.488498
    50  F   -0.483788
 Electronic spatial extent (au):  <R**2>=          19138.9893
 Charge=              0.0000 electrons
 Dipole moment (field-independent basis, Debye):
    X=            -38.5653    Y=              0.1859    Z=              0.8330  Tot=             38.5748
 Quadrupole moment (field-independent basis, Debye-Ang):
   XX=           -346.0922   YY=           -152.7956   ZZ=           -177.4121
   XY=              0.6852   XZ=            -15.1351   YZ=             -1.3938
 Traceless Quadrupole moment (field-independent basis, Debye-Ang):
   XX=           -120.6589   YY=             72.6377   ZZ=             48.0212
   XY=              0.6852   XZ=            -15.1351   YZ=             -1.3938
 Octapole moment (field-independent basis, Debye-Ang**2):
  XXX=          -1966.4566  YYY=              1.7517  ZZZ=             -3.6248  XYY=            -30.7099
  XXY=              8.5027  XXZ=             79.9973  XZZ=            -41.1363  YZZ=             -1.8512
  YYZ=              2.0723  XYZ=            -11.1574
 Hexadecapole moment (field-independent basis, Debye-Ang**3):
 XXXX=         -29177.2895 YYYY=          -2592.2897 ZZZZ=           -720.9750 XXXY=             24.7066
 XXXZ=           -987.4360 YYYX=              6.2723 YYYZ=             32.2205 ZZZX=            -26.8904
 ZZZY=            -17.7216 XXYY=          -4098.2083 XXZZ=          -3511.1429 YYZZ=           -713.0085
 XXYZ=            -40.6723 YYXZ=             21.1173 ZZXY=             -8.7415
 N-N= 2.939031753930D+03 E-N=-9.280787088042D+03  KE= 1.451381646067D+03
 Leave Link  601 at Wed Feb 17 01:32:56 2021, MaxMem=  5242880000 cpu:        10.0
 (Enter /opt/nce/packages/global/g09/l9999.exe)
 1\1\GINC-CN002\SP\RM06L TD-FC\Gen\C26H19B1F3N1O1\PNG4RJV\17-Feb-2021\0
 \\#p m06l chkbasis geom=allcheck Guess=Read int=ultrafine scrf=(SMD,so
 lvent=Acetonitrile) td=(NStates=30)\\Title\\0,1\C,0,1.3412534226,3.599
 5308526,-0.0976475201\C,0,2.0038834442,2.4070259952,0.0079250756\C,0,1
 .2815791322,1.2007428035,0.0287518195\C,0,-0.1436006,1.2252263309,-0.0
 281105873\C,0,-0.7778714588,2.4851756219,-0.1751174896\C,0,-0.05843819
 94,3.6430817813,-0.2060591237\C,0,-0.8686861124,0.0172818321,0.0277872
 876\C,0,-0.1612972331,-1.1989204104,0.1196780782\C,0,1.265110439,-1.19
 10486558,0.1277108192\C,0,1.9714522241,-2.4055538341,0.1845176491\H,0,
 3.0507575877,-2.3986084562,0.16969815\C,0,1.2908415041,-3.589955187,0.
 2629861527\C,0,-0.1127757739,-3.6170827354,0.3068741158\C,0,-0.8165161
 163,-2.4510048578,0.2399053282\H,0,1.9105637838,4.519791239,-0.1125803
 105\H,0,3.0811816089,2.3875871331,0.0724665842\H,0,-1.8527226426,2.513
 8410265,-0.2756536253\H,0,-0.5616373905,4.593254464,-0.3219107912\H,0,
 1.8481151073,-4.5166286006,0.307057966\H,0,-0.6317984957,-4.5610265904
 ,0.4018711982\H,0,-1.895193953,-2.4668647897,0.2908985401\N,0,1.937300
 8132,0.0007756966,0.0910746494\C,0,-2.3383597985,0.0245507201,-0.00955
 76001\C,0,-3.0302343953,-0.6518064456,-1.018312729\C,0,-3.0758467982,0
 .7069730744,0.9607276985\C,0,-4.4136351011,-0.6278016531,-1.0531548126
 \C,0,-4.460351229,0.6952829372,0.9234990456\C,0,-5.1706756965,0.036732
 9422,-0.083143704\H,0,-5.0057562034,1.2204327321,1.7003829308\H,0,-2.5
 537384436,1.228352831,1.7547012693\C,0,3.3836239536,-0.0075336717,0.11
 75332985\C,0,4.08743189,-0.0104935372,-1.0717823906\C,0,4.0460561982,-
 0.010811374,1.3373341196\C,0,5.4737605513,-0.0163952717,-1.0550530074\
 H,0,3.5528293054,-0.0074802215,-2.0133535726\C,0,5.4246446927,-0.01647
 04057,1.3608196588\H,0,3.4787328306,-0.0087981243,2.2593841014\C,0,6.1
 485004447,-0.0189515673,0.1653647474\H,0,6.0169248586,-0.0187252487,-1
 .9888805\H,0,5.9622233212,-0.0184907726,2.2997385886\O,0,7.4904546975,
 -0.0236317722,0.2898768644\C,0,8.2637869802,-0.0236489047,-0.901042194
 7\H,0,9.303378485,-0.0267706391,-0.5861792793\H,0,8.0683508182,-0.9126
 567558,-1.5044069056\H,0,8.0727526095,0.8683807659,-1.5013682811\H,0,-
 4.9214050273,-1.143308879,-1.862060097\B,0,-6.7788218356,0.0030151402,
 -0.1138192207\F,0,-7.3403480628,1.0569990582,0.6464792883\F,0,-7.27057
 3134,-1.2195726027,0.4243644587\F,0,-7.274772103,0.1060927512,-1.43826
 98059\H,0,-2.4713529,-1.1752567649,-1.7854539355\\Version=ES64L-G09Rev
 E.01\State=1-A\HF=-1457.1169215\RMSD=6.026e-09\PG=C01 [X(C26H19B1F3N1O
 1)]\\@


 We're simply so accustomed to the marvels of everyday thought
 that we never wonder about it.
 -- Marvin Minsky in "Why people think computers are smart"
 Job cpu time:       2 days  6 hours 14 minutes 54.5 seconds.
 File lengths (MBytes):  RWF=   4966 Int=      0 D2E=      0 Chk=   1099 Scr=      1
 Normal termination of Gaussian 09 at Wed Feb 17 01:32:59 2021.
