
                                 *****************
                                 * O   R   C   A *
                                 *****************

                                            #,                                       
                                            ###                                      
                                            ####                                     
                                            #####                                    
                                            ######                                   
                                           ########,                                 
                                     ,,################,,,,,                         
                               ,,#################################,,                 
                          ,,##########################################,,             
                       ,#########################################, ''#####,          
                    ,#############################################,,   '####,        
                  ,##################################################,,,,####,       
                ,###########''''           ''''###############################       
              ,#####''   ,,,,##########,,,,          '''####'''          '####       
            ,##' ,,,,###########################,,,                        '##       
           ' ,,###''''                  '''############,,,                           
         ,,##''                                '''############,,,,        ,,,,,,###''
      ,#''                                            '''#######################'''  
     '                                                          ''''####''''         
             ,#######,   #######,   ,#######,      ##                                
            ,#'     '#,  ##    ##  ,#'     '#,    #''#        ######   ,####,        
            ##       ##  ##   ,#'  ##            #'  '#       #        #'  '#        
            ##       ##  #######   ##           ,######,      #####,   #    #        
            '#,     ,#'  ##    ##  '#,     ,#' ,#      #,         ##   #,  ,#        
             '#######'   ##     ##  '#######'  #'      '#     #####' # '####'        



                  #######################################################
                  #                        -***-                        #
                  #          Department of theory and spectroscopy      #
                  #    Directorship and core code : Frank Neese         #
                  #        Max Planck Institute fuer Kohlenforschung    #
                  #                Kaiser Wilhelm Platz 1               #
                  #                 D-45470 Muelheim/Ruhr               #
                  #                      Germany                        #
                  #                                                     #
                  #                  All rights reserved                #
                  #                        -***-                        #
                  #######################################################


                         Program Version 5.0.2 -  RELEASE  -


 With contributions from (in alphabetic order):
   Daniel Aravena         : Magnetic Suceptibility
   Michael Atanasov       : Ab Initio Ligand Field Theory (pilot matlab implementation)
   Alexander A. Auer      : GIAO ZORA, VPT2 properties, NMR spectrum
   Ute Becker             : Parallelization
   Giovanni Bistoni       : ED, misc. LED, open-shell LED, HFLD
   Martin Brehm           : Molecular dynamics
   Dmytro Bykov           : SCF Hessian
   Vijay G. Chilkuri      : MRCI spin determinant printing, contributions to CSF-ICE
   Dipayan Datta          : RHF DLPNO-CCSD density
   Achintya Kumar Dutta   : EOM-CC, STEOM-CC
   Dmitry Ganyushin       : Spin-Orbit,Spin-Spin,Magnetic field MRCI
   Miquel Garcia          : C-PCM and meta-GGA Hessian, CC/C-PCM, Gaussian charge scheme
   Yang Guo               : DLPNO-NEVPT2, F12-NEVPT2, CIM, IAO-localization
   Andreas Hansen         : Spin unrestricted coupled pair/coupled cluster methods
   Benjamin Helmich-Paris : MC-RPA, TRAH-SCF, COSX integrals
   Lee Huntington         : MR-EOM, pCC
   Robert Izsak           : Overlap fitted RIJCOSX, COSX-SCS-MP3, EOM
   Marcus Kettner         : VPT2
   Christian Kollmar      : KDIIS, OOCD, Brueckner-CCSD(T), CCSD density, CASPT2, CASPT2-K
   Simone Kossmann        : Meta GGA functionals, TD-DFT gradient, OOMP2, MP2 Hessian
   Martin Krupicka        : Initial AUTO-CI
   Lucas Lang             : DCDCAS
   Marvin Lechner         : AUTO-CI (C++ implementation), FIC-MRCC
   Dagmar Lenk            : GEPOL surface, SMD
   Dimitrios Liakos       : Extrapolation schemes; Compound Job, initial MDCI parallelization
   Dimitrios Manganas     : Further ROCIS development; embedding schemes
   Dimitrios Pantazis     : SARC Basis sets
   Anastasios Papadopoulos: AUTO-CI, single reference methods and gradients
   Taras Petrenko         : DFT Hessian,TD-DFT gradient, ASA, ECA, R-Raman, ABS, FL, XAS/XES, NRVS
   Peter Pinski           : DLPNO-MP2, DLPNO-MP2 Gradient
   Christoph Reimann      : Effective Core Potentials
   Marius Retegan         : Local ZFS, SOC
   Christoph Riplinger    : Optimizer, TS searches, QM/MM, DLPNO-CCSD(T), (RO)-DLPNO pert. Triples
   Tobias Risthaus        : Range-separated hybrids, TD-DFT gradient, RPA, STAB
   Michael Roemelt        : Original ROCIS implementation
   Masaaki Saitow         : Open-shell DLPNO-CCSD energy and density
   Barbara Sandhoefer     : DKH picture change effects
   Avijit Sen             : IP-ROCIS
   Kantharuban Sivalingam : CASSCF convergence, NEVPT2, FIC-MRCI
   Bernardo de Souza      : ESD, SOC TD-DFT
   Georgi Stoychev        : AutoAux, RI-MP2 NMR, DLPNO-MP2 response
   Willem Van den Heuvel  : Paramagnetic NMR
   Boris Wezisla          : Elementary symmetry handling
   Frank Wennmohs         : Technical directorship


 We gratefully acknowledge several colleagues who have allowed us to
 interface, adapt or use parts of their codes:
   Stefan Grimme, W. Hujo, H. Kruse, P. Pracht,  : VdW corrections, initial TS optimization,
                  C. Bannwarth, S. Ehlert          DFT functionals, gCP, sTDA/sTD-DF
   Ed Valeev, F. Pavosevic, A. Kumar             : LibInt (2-el integral package), F12 methods
   Garnet Chan, S. Sharma, J. Yang, R. Olivares  : DMRG
   Ulf Ekstrom                                   : XCFun DFT Library
   Mihaly Kallay                                 : mrcc  (arbitrary order and MRCC methods)
   Jiri Pittner, Ondrej Demel                    : Mk-CCSD
   Frank Weinhold                                : gennbo (NPA and NBO analysis)
   Christopher J. Cramer and Donald G. Truhlar   : smd solvation model
   Lars Goerigk                                  : TD-DFT with DH, B97 family of functionals
   V. Asgeirsson, H. Jonsson                     : NEB implementation
   FAccTs GmbH                                   : IRC, NEB, NEB-TS, DLPNO-Multilevel, CI-OPT
                                                   MM, QMMM, 2- and 3-layer-ONIOM, Crystal-QMMM,
                                                   LR-CPCM, SF, NACMEs, symmetry and pop. for TD-DFT,
                                                   nearIR, NL-DFT gradient (VV10), updates on ESD,
                                                   ML-optimized integration grids
   S Lehtola, MJT Oliveira, MAL Marques          : LibXC Library
   Liviu Ungur et al                             : ANISO software


 Your calculation uses the libint2 library for the computation of 2-el integrals
 For citations please refer to: http://libint.valeyev.net

 Your ORCA version has been built with support for libXC version: 5.1.0
 For citations please refer to: https://tddft.org/programs/libxc/

 This ORCA versions uses:
   CBLAS   interface :  Fast vector & matrix operations
   LAPACKE interface :  Fast linear algebra routines
   SCALAPACK package :  Parallel linear algebra routines
   Shared memory     :  Shared parallel matrices
   BLAS/LAPACK       :  OpenBLAS 0.3.15  USE64BITINT DYNAMIC_ARCH NO_AFFINITY Zen SINGLE_THREADED
        Core in use  :  Zen
   Copyright (c) 2011-2014, The OpenBLAS Project


Your calculation utilizes the SMD solvation module
Please cite in your paper:
A.V. Marenich, C.J. Cramer, D.G. Truhlar J. Phys. Chem. B, 113, (2009), 6378 

================================================================================

----- Orbital basis set information -----
Your calculation utilizes the basis: def2-TZVP
   F. Weigend and R. Ahlrichs, Phys. Chem. Chem. Phys. 7, 3297 (2005).

----- AuxJ basis set information -----
Your calculation utilizes the auxiliary basis: def2/J
   F. Weigend, Phys. Chem. Chem. Phys. 8, 1057 (2006).

----- AuxC basis set information -----
Your calculation utilizes the auxiliary basis: def2-TZVP/C
  H-La, Hf-Rn : A. Hellweg, C. Hattig, S. Hofener and W. Klopper, Theor. Chem. Acc. 117, 587 (2007).
        Ce-Lu : J. Chmela and M. E. Harding, Mol. Phys. (2018).

================================================================================
                                        WARNINGS
                       Please study these warnings very carefully!
================================================================================

INFO   : Checking CIS options ...
  ===> : (D) CORRECTION FOUND - SETTING MODE=3
  ===> : JK MODE FOUND - ACTIVATING RI-MP2 CODE
  ===> : MP2 AND CIS FOUND - CHECKING
WARNING: CIS(D) and MP2 runs must have the same orbital window
  ===> : adjusting orbital windows

WARNING: No MP2 level density has been requested!
         To caclulate MP2 level properties use
         %mp2 Density relaxed end
         or
         %mp2 Density unrelaxed end
         Otherwise for double-hybrid DFT only the energy is correct!

WARNING: The frozen-core approximation is turned on by default for 
         the MP2 part of double-hybrid DFT.

WARNING:  You are using a Range-Separated Double Hybrid functional with Doubles Correction 
          Changing Mode to RPA_AOINTS 


WARNING: CIS/ROCIS methods need fully converged wavefunctions
  ===> : Setting SCFConvForced true
         You can overwrite this default with %scf ConvForced false 


INFO   : the flag for use of the SHARK integral package has been found!

================================================================================
                                       INPUT FILE
================================================================================
NAME = NCE_4_M06L_def2TZVP_coords.inp
|  1> %maxcore 3200
|  2> %pal
|  3>  nprocs= 8
|  4> end
|  5> ! RI-wB2PLYP def2-TZVP def2/J def2-TZVP/C RIJCOSX CPCM TightSCF
|  6> %TDDFT DCORR 1
|  7>    NROOTS   30
|  8> 
|  9>    TDA      FALSE
| 10> END
| 11> 
| 12> %CPCM
| 13>    SMD          TRUE
| 14>    SMDsolvent   "ACETONITRILE"
| 15> END
| 16>    
| 17> 
| 18> * xyz 0 1
| 19> C                  -9.00401300   -3.45972300   -0.95086600
| 20> C                  -7.63854400   -3.40735100   -0.97340000
| 21> C                  -6.95389500   -2.21556700   -0.64148600
| 22> C                  -7.70513900   -1.05535000   -0.28362600
| 23> C                  -9.11792300   -1.15104000   -0.26657500
| 24> C                  -9.74916800   -2.32061600   -0.59211100
| 25> C                  -5.55570300   -2.15492800   -0.64922400
| 26> C                  -7.01965200    0.14399700    0.04387500
| 27> C                  -5.62670900    0.17139900    0.01531000
| 28> C                  -4.87926900   -0.99966300   -0.32608000
| 29> C                  -3.43028800   -0.93425200   -0.31586000
| 30> C                  -2.81588900    0.27267600    0.01639600
| 31> C                  -4.91696300    1.41973000    0.32027700
| 32> H                  -5.01294700   -3.05174000   -0.91711200
| 33> H                  -9.51776700   -4.37785300   -1.20633100
| 34> H                  -7.05396000   -4.27837900   -1.24399600
| 35> H                  -9.70304400   -0.28369000    0.00875100
| 36> H                 -10.83022900   -2.37250100   -0.57316100
| 37> C                  -7.84321600    1.32148000    0.42166800
| 38> C                  -8.38948100    2.14727900   -0.55716900
| 39> C                  -8.14010300    1.57038100    1.75912000
| 40> C                  -9.19175300    3.22134600   -0.20252800
| 41> H                  -8.17503100    1.94984300   -1.60101800
| 42> C                  -8.94472400    2.64251400    2.11256800
| 43> H                  -7.72762800    0.92387800    2.52492700
| 44> C                  -9.46957000    3.47480000    1.13340700
| 45> H                  -9.60365900    3.86060600   -0.97368900
| 46> H                  -9.16347200    2.82748400    3.15704900
| 47> H                 -10.09701500    4.31279200    1.40975300
| 48> O                  -5.40871200    2.49020500    0.57314400
| 49> O                  -3.54524600    1.38704900    0.31393300
| 50> C                  -2.58393500   -2.01262300   -0.60955500
| 51> C                  -1.44256000    0.42432200    0.06252500
| 52> C                  -0.61704600   -0.66201200   -0.23175200
| 53> C                  -1.21572600   -1.88930600   -0.57136500
| 54> H                  -0.58751800   -2.73888200   -0.80183500
| 55> H                  -3.01173700   -2.97047400   -0.87121700
| 56> H                  -1.02387000    1.38546400    0.32733300
| 57> C                   0.78795100   -0.53255300   -0.18824000
| 58> C                   1.99485100   -0.42870200   -0.15181500
| 59> C                   3.40088500   -0.30477700   -0.10835300
| 60> C                   4.22813300   -1.40394500   -0.38212200
| 61> C                   4.00369500    0.92121100    0.20958800
| 62> C                   5.60160600   -1.28010300   -0.34635600
| 63> H                   3.77994100   -2.35487600   -0.63826100
| 64> C                   5.37705100    1.04135200    0.25641400
| 65> H                   3.38056600    1.77679800    0.43406600
| 66> C                   6.18823500   -0.05717800   -0.02432500
| 67> H                   6.22870100   -2.12889600   -0.58459500
| 68> H                   5.82923800    1.98597700    0.52769800
| 69> C                   8.33542200    1.07760200   -0.58644300
| 70> C                   8.46761900   -0.79231100    0.66957800
| 71> C                   7.91100400    2.13350700   -1.38413300
| 72> C                   9.70363400    0.85995300   -0.31755900
| 73> C                   8.19385500   -1.91247800    1.44530000
| 74> C                   9.78748000   -0.32788100    0.48471100
| 75> C                   8.87793600    2.98718500   -1.88994000
| 76> H                   6.86458600    2.28489900   -1.61243800
| 77> C                  10.65501700    1.73353200   -0.83791600
| 78> C                   9.26662900   -2.57791800    2.01623200
| 79> H                   7.18052000   -2.25367000    1.60895300
| 80> C                  10.84763600   -1.01612300    1.06899600
| 81> C                  10.23547800    2.79720300   -1.61748300
| 82> H                   8.57118400    3.81803900   -2.51274700
| 83> H                  11.70778900    1.57538200   -0.63724800
| 84> C                  10.58109700   -2.14214400    1.82802900
| 85> H                   9.07782700   -3.45405700    2.62371400
| 86> H                  11.86443400   -0.66773200    0.93358800
| 87> H                  10.96298100    3.48587300   -2.02740000
| 88> H                  11.39482600   -2.68834900    2.28742000
| 89> N                   7.59046600    0.06835900    0.01641700
| 90> *
| 91> 
| 92> 
| 93>                          ****END OF INPUT****
================================================================================

                       ****************************
                       * Single Point Calculation *
                       ****************************

---------------------------------
CARTESIAN COORDINATES (ANGSTROEM)
---------------------------------
  C     -9.004013   -3.459723   -0.950866
  C     -7.638544   -3.407351   -0.973400
  C     -6.953895   -2.215567   -0.641486
  C     -7.705139   -1.055350   -0.283626
  C     -9.117923   -1.151040   -0.266575
  C     -9.749168   -2.320616   -0.592111
  C     -5.555703   -2.154928   -0.649224
  C     -7.019652    0.143997    0.043875
  C     -5.626709    0.171399    0.015310
  C     -4.879269   -0.999663   -0.326080
  C     -3.430288   -0.934252   -0.315860
  C     -2.815889    0.272676    0.016396
  C     -4.916963    1.419730    0.320277
  H     -5.012947   -3.051740   -0.917112
  H     -9.517767   -4.377853   -1.206331
  H     -7.053960   -4.278379   -1.243996
  H     -9.703044   -0.283690    0.008751
  H    -10.830229   -2.372501   -0.573161
  C     -7.843216    1.321480    0.421668
  C     -8.389481    2.147279   -0.557169
  C     -8.140103    1.570381    1.759120
  C     -9.191753    3.221346   -0.202528
  H     -8.175031    1.949843   -1.601018
  C     -8.944724    2.642514    2.112568
  H     -7.727628    0.923878    2.524927
  C     -9.469570    3.474800    1.133407
  H     -9.603659    3.860606   -0.973689
  H     -9.163472    2.827484    3.157049
  H    -10.097015    4.312792    1.409753
  O     -5.408712    2.490205    0.573144
  O     -3.545246    1.387049    0.313933
  C     -2.583935   -2.012623   -0.609555
  C     -1.442560    0.424322    0.062525
  C     -0.617046   -0.662012   -0.231752
  C     -1.215726   -1.889306   -0.571365
  H     -0.587518   -2.738882   -0.801835
  H     -3.011737   -2.970474   -0.871217
  H     -1.023870    1.385464    0.327333
  C      0.787951   -0.532553   -0.188240
  C      1.994851   -0.428702   -0.151815
  C      3.400885   -0.304777   -0.108353
  C      4.228133   -1.403945   -0.382122
  C      4.003695    0.921211    0.209588
  C      5.601606   -1.280103   -0.346356
  H      3.779941   -2.354876   -0.638261
  C      5.377051    1.041352    0.256414
  H      3.380566    1.776798    0.434066
  C      6.188235   -0.057178   -0.024325
  H      6.228701   -2.128896   -0.584595
  H      5.829238    1.985977    0.527698
  C      8.335422    1.077602   -0.586443
  C      8.467619   -0.792311    0.669578
  C      7.911004    2.133507   -1.384133
  C      9.703634    0.859953   -0.317559
  C      8.193855   -1.912478    1.445300
  C      9.787480   -0.327881    0.484711
  C      8.877936    2.987185   -1.889940
  H      6.864586    2.284899   -1.612438
  C     10.655017    1.733532   -0.837916
  C      9.266629   -2.577918    2.016232
  H      7.180520   -2.253670    1.608953
  C     10.847636   -1.016123    1.068996
  C     10.235478    2.797203   -1.617483
  H      8.571184    3.818039   -2.512747
  H     11.707789    1.575382   -0.637248
  C     10.581097   -2.142144    1.828029
  H      9.077827   -3.454057    2.623714
  H     11.864434   -0.667732    0.933588
  H     10.962981    3.485873   -2.027400
  H     11.394826   -2.688349    2.287420
  N      7.590466    0.068359    0.016417

----------------------------
CARTESIAN COORDINATES (A.U.)
----------------------------
  NO LB      ZA    FRAG     MASS         X           Y           Z
   0 C     6.0000    0    12.011  -17.015119   -6.537929   -1.796876
   1 C     6.0000    0    12.011  -14.434756   -6.438960   -1.839459
   2 C     6.0000    0    12.011  -13.140957   -4.186815   -1.212233
   3 C     6.0000    0    12.011  -14.560603   -1.994322   -0.535975
   4 C     6.0000    0    12.011  -17.230377   -2.175150   -0.503754
   5 C     6.0000    0    12.011  -18.423258   -4.385329   -1.118928
   6 C     6.0000    0    12.011  -10.498757   -4.072224   -1.226856
   7 C     6.0000    0    12.011  -13.265220    0.272115    0.082912
   8 C     6.0000    0    12.011  -10.632939    0.323897    0.028932
   9 C     6.0000    0    12.011   -9.220482   -1.889089   -0.616202
  10 C     6.0000    0    12.011   -6.482305   -1.765480   -0.596889
  11 C     6.0000    0    12.011   -5.321259    0.515283    0.030984
  12 C     6.0000    0    12.011   -9.291713    2.682901    0.605236
  13 H     1.0000    0     1.008   -9.473097   -5.766953   -1.733091
  14 H     1.0000    0     1.008  -17.985973   -8.272943   -2.279635
  15 H     1.0000    0     1.008  -13.330053   -8.084965   -2.350812
  16 H     1.0000    0     1.008  -18.336096   -0.536096    0.016537
  17 H     1.0000    0     1.008  -20.466167   -4.483377   -1.083117
  18 C     6.0000    0    12.011  -14.821530    2.497235    0.796837
  19 C     6.0000    0    12.011  -15.853821    4.057769   -1.052897
  20 C     6.0000    0    12.011  -15.382565    2.967590    3.324255
  21 C     6.0000    0    12.011  -17.369896    6.087462   -0.382722
  22 H     1.0000    0     1.008  -15.448570    3.684669   -3.025486
  23 C     6.0000    0    12.011  -16.903079    4.993628    3.992175
  24 H     1.0000    0     1.008  -14.603101    1.745876    4.771421
  25 C     6.0000    0    12.011  -17.894894    6.566420    2.141829
  26 H     1.0000    0     1.008  -18.148285    7.295488   -1.840006
  27 H     1.0000    0     1.008  -17.316453    5.343170    5.965958
  28 H     1.0000    0     1.008  -19.080593    8.149996    2.664047
  29 O     8.0000    0    15.999  -10.220984    4.705805    1.083085
  30 O     8.0000    0    15.999   -6.699544    2.621143    0.593247
  31 C     6.0000    0    12.011   -4.882929   -3.803306   -1.151892
  32 C     6.0000    0    12.011   -2.726043    0.801852    0.118155
  33 C     6.0000    0    12.011   -1.166048   -1.251021   -0.437948
  34 C     6.0000    0    12.011   -2.297389   -3.570271   -1.079723
  35 H     1.0000    0     1.008   -1.110248   -5.175737   -1.515249
  36 H     1.0000    0     1.008   -5.691358   -5.613382   -1.646362
  37 H     1.0000    0     1.008   -1.934834    2.618148    0.618570
  38 C     6.0000    0    12.011    1.489012   -1.006379   -0.355722
  39 C     6.0000    0    12.011    3.769722   -0.810129   -0.286889
  40 C     6.0000    0    12.011    6.426741   -0.575945   -0.204757
  41 C     6.0000    0    12.011    7.990013   -2.653072   -0.722106
  42 C     6.0000    0    12.011    7.565887    1.740837    0.396064
  43 C     6.0000    0    12.011   10.585501   -2.419044   -0.654518
  44 H     1.0000    0     1.008    7.143053   -4.450071   -1.206138
  45 C     6.0000    0    12.011   10.161154    1.967870    0.484552
  46 H     1.0000    0     1.008    6.388344    3.357662    0.820266
  47 C     6.0000    0    12.011   11.694069   -0.108051   -0.045968
  48 H     1.0000    0     1.008   11.770539   -4.023030   -1.104724
  49 H     1.0000    0     1.008   11.015663    3.752953    0.997205
  50 C     6.0000    0    12.011   15.751665    2.036373   -1.108217
  51 C     6.0000    0    12.011   16.001481   -1.497251    1.265319
  52 C     6.0000    0    12.011   14.949631    4.031744   -2.615632
  53 C     6.0000    0    12.011   18.337211    1.625076   -0.600100
  54 C     6.0000    0    12.011   15.484142   -3.614060    2.731221
  55 C     6.0000    0    12.011   18.495657   -0.619605    0.915971
  56 C     6.0000    0    12.011   16.776868    5.644962   -3.571469
  57 H     1.0000    0     1.008   12.972188    4.317833   -3.047066
  58 C     6.0000    0    12.011   20.135064    3.275901   -1.583432
  59 C     6.0000    0    12.011   17.511391   -4.871559    3.810126
  60 H     1.0000    0     1.008   13.569216   -4.258819    3.040481
  61 C     6.0000    0    12.011   20.499061   -1.920194    2.020110
  62 C     6.0000    0    12.011   19.342250    5.285948   -3.056600
  63 H     1.0000    0     1.008   16.197190    7.215048   -4.748404
  64 H     1.0000    0     1.008   22.124515    2.977041   -1.204224
  65 C     6.0000    0    12.011   19.995376   -4.048065    3.454474
  66 H     1.0000    0     1.008   17.154607   -6.527222    4.958101
  67 H     1.0000    0     1.008   22.420531   -1.261831    1.764226
  68 H     1.0000    0     1.008   20.717032    6.587345   -3.831231
  69 H     1.0000    0     1.008   21.533100   -5.080243    4.322597
  70 N     7.0000    0    14.007   14.343902    0.129180    0.031024

--------------------------------
INTERNAL COORDINATES (ANGSTROEM)
--------------------------------
 C      0   0   0     0.000000000000     0.00000000     0.00000000
 C      1   0   0     1.366658771421     0.00000000     0.00000000
 C      2   1   0     1.413952000336   120.81164335     0.00000000
 C      3   2   1     1.427772675962   119.27403473   359.79389062
 C      4   3   2     1.416123562178   118.23134278     0.45967053
 C      5   4   3     1.368339123572   121.00587731   359.59488566
 C      3   2   1     1.399527718135   121.26316670   179.39048065
 C      4   3   2     1.419712139336   119.35651834   180.29345846
 C      8   4   3     1.393505303211   119.63833894   359.82193708
 C      7   3   2     1.377179081063   121.71900967   180.07663308
 C     10   7   3     1.450492669986   122.01519180   179.21746919
 C     11  10   7     1.394473154249   118.74067785   179.73545508
 C      9   8   4     1.468017214193   119.71858629   178.44531744
 H      7   3   2     1.081951856334   117.81520781   359.94332908
 H      1   2   3     1.082667186000   120.18011311   180.03618284
 H      2   1   3     1.083351478079   120.82682068   179.87327268
 H      5   4   3     1.081881238130   119.23893487   179.58865329
 H      6   5   4     1.082471265875   119.83643200   180.02373706
 C      8   4   3     1.485749450020   117.42079621   180.53532051
 C     19   8   4     1.392289952271   120.58232470   276.37586074
 C     19   8   4     1.392433643257   120.27086574    92.80291618
 C     20  19   8     1.386733760083   120.43659738   177.99808138
 H     20  19   8     1.083785269967   119.43587982   357.41988213
 C     21  19   8     1.386293479763   120.45673930   182.13904950
 H     21  19   8     1.083772169731   119.40187181     2.78355838
 C     22  20  19     1.387855734516   120.22698675   359.30958629
 H     22  20  19     1.083055487201   119.67581627   179.49818479
 H     24  21  19     1.083053621833   119.68220034   180.31110513
 H     26  22  20     1.082721077566   120.20085245   180.07592897
 O     13   9   8     1.204854980616   126.99786256   357.87785562
 O     12  11  10     1.364667389127   121.54943580   359.22288404
 C     11  10   7     1.401946563630   124.53474156   359.21707323
 C     12  11  10     1.382445997570   122.72323744   179.45362209
 C     33  12  11     1.395777158604   119.67809133     0.00000000
 C     32  11  10     1.374285787698   121.74813837   180.56919077
 H     35  32  11     1.081453231508   120.12641993   179.93893966
 H     32  11  10     1.081184577974   119.55641632     0.39785298
 H     33  12  11     1.081304090961   119.36230360   180.02658007
 C     34  33  12     1.411619458931   120.71618473   180.15223984
 C     39  34  33     1.211907348285   179.65095555   171.95438302
 C     40  39  34     1.412153660274   179.87420699   191.93415605
 C     41  40  39     1.402661402866   120.82643788   175.04354063
 C     41  40  39     1.402680630694   120.76853451   355.03289211
 C     42  41  40     1.379508655083   120.78254089   179.65332787
 H     42  41  40     1.082013411629   119.38033082     0.56011933
 C     43  41  40     1.379395968130   120.77672871   179.78430036
 H     43  41  40     1.081993178210   119.38447146     0.67024351
 C     44  42  41     1.394052762354   120.24567650     0.57128799
 H     44  42  41     1.081875924954   120.06351623   181.59006204
 H     46  43  41     1.081843095023   120.04700824   181.56917106
 C     48  44  42     2.492812529512   135.21159880   208.44594120
 C     51  48  44     2.256466136865    63.10914948   293.71792207
 C     51  48  44     1.389739307874   102.25425175   111.72047456
 C     51  48  44     1.411266725180   136.21198760   293.66193789
 C     52  51  48     1.389771728331   165.25842536   352.57897961
 C     52  51  48     1.411348324089    73.09301817   180.19595795
 C     53  51  48     1.385483432437   117.68190584   180.35732994
 H     53  51  48     1.081680794603   121.52872957   359.88933777
 C     54  51  48     1.392494628133   119.63216297   179.05168509
 C     55  52  56     1.385502723671   117.68430870   358.87030180
 H     55  52  56     1.081684846662   121.54857549   178.35264473
 C     56  52  51     1.392478637583   119.62927582   178.94059756
 C     59  54  51     1.383883548660   119.04960821   359.64585061
 H     57  53  51     1.082729753017   119.01872212   180.09710023
 H     59  54  51     1.083331875608   120.20840567   179.98959560
 C     62  56  52     1.383870451325   119.05646862   359.65102596
 H     60  55  52     1.082728092759   119.00144309   180.07396398
 H     62  56  52     1.083323491922   120.21152803   180.02617165
 H     63  59  54     1.082385758775   119.90783134   179.88114165
 H     66  62  56     1.082374647868   119.90762208   179.92052033
 N     52  51  48     1.391678672047    35.83881876     0.09986271

---------------------------
INTERNAL COORDINATES (A.U.)
---------------------------
 C      0   0   0     0.000000000000     0.00000000     0.00000000
 C      1   0   0     2.582610796506     0.00000000     0.00000000
 C      2   1   0     2.671982047144   120.81164335     0.00000000
 C      3   2   1     2.698099339065   119.27403473   359.79389062
 C      4   3   2     2.676085704310   118.23134278     0.45967053
 C      5   4   3     2.585786201880   121.00587731   359.59488566
 C      3   2   1     2.644724104107   121.26316670   179.39048065
 C      4   3   2     2.682867132349   119.35651834   180.29345846
 C      8   4   3     2.633343389236   119.63833894   359.82193708
 C      7   3   2     2.602491300574   121.71900967   180.07663308
 C     10   7   3     2.741033905533   122.01519180   179.21746919
 C     11  10   7     2.635172362636   118.74067785   179.73545508
 C      9   8   4     2.774150494706   119.71858629   178.44531744
 H      7   3   2     2.044592698558   117.81520781   359.94332908
 H      1   2   3     2.045944475723   120.18011311   180.03618284
 H      2   1   3     2.047237600348   120.82682068   179.87327268
 H      5   4   3     2.044459249493   119.23893487   179.58865329
 H      6   5   4     2.045574240344   119.83643200   180.02373706
 C      8   4   3     2.807659564161   117.42079621   180.53532051
 C     19   8   4     2.631046708803   120.58232470   276.37586074
 C     19   8   4     2.631318245414   120.27086574    92.80291618
 C     20  19   8     2.620547027220   120.43659738   177.99808138
 H     20  19   8     2.048057348215   119.43587982   357.41988213
 C     21  19   8     2.619715017993   120.45673930   182.13904950
 H     21  19   8     2.048032592357   119.40187181     2.78355838
 C     22  20  19     2.622667251628   120.22698675   359.30958629
 H     22  20  19     2.046678258651   119.67581627   179.49818479
 H     24  21  19     2.046674733615   119.68220034   180.31110513
 H     26  22  20     2.046046316023   120.20085245   180.07592897
 O     13   9   8     2.276845944455   126.99786256   357.87785562
 O     12  11  10     2.578847629344   121.54943580   359.22288404
 C     11  10   7     2.649295059653   124.53474156   359.21707323
 C     12  11  10     2.612444330343   122.72323744   179.45362209
 C     33  12  11     2.637636573745   119.67809133     0.00000000
 C     32  11  10     2.597023768490   121.74813837   180.56919077
 H     35  32  11     2.043650434195   120.12641993   179.93893966
 H     32  11  10     2.043142752590   119.55641632     0.39785298
 H     33  12  11     2.043368599404   119.36230360   180.02658007
 C     34  33  12     2.667574182695   120.71618473   180.15223984
 C     39  34  33     2.290172987944   179.65095555   171.95438302
 C     40  39  34     2.668583676932   179.87420699   191.93415605
 C     41  40  39     2.650645910038   120.82643788   175.04354063
 C     41  40  39     2.650682245368   120.76853451   355.03289211
 C     42  41  40     2.606893557481   120.78254089   179.65332787
 H     42  41  40     2.044709021209   119.38033082     0.56011933
 C     43  41  40     2.606680610001   120.77672871   179.78430036
 H     43  41  40     2.044670785589   119.38447146     0.67024351
 C     44  42  41     2.634377937086   120.24567650     0.57128799
 H     44  42  41     2.044449209046   120.06351623   181.59006204
 H     46  43  41     2.044387169468   120.04700824   181.56917106
 C     48  44  42     4.710732983986   135.21159880   208.44594120
 C     51  48  44     4.264103029142    63.10914948   293.71792207
 C     51  48  44     2.626226689426   102.25425175   111.72047456
 C     51  48  44     2.666907612507   136.21198760   293.66193789
 C     52  51  48     2.626287955213   165.25842536   352.57897961
 C     52  51  48     2.667061812098    73.09301817   180.19595795
 C     53  51  48     2.618184250391   117.68190584   180.35732994
 H     53  51  48     2.044080466122   121.52872957   359.88933777
 C     54  51  48     2.631433490128   119.63216297   179.05168509
 C     55  52  56     2.618220705540   117.68430870   358.87030180
 H     55  52  56     2.044088123404   121.54857549   178.35264473
 C     56  52  51     2.631403272368   119.62927582   178.94059756
 C     59  54  51     2.615160908206   119.04960821   359.64585061
 H     57  53  51     2.046062710251   119.01872212   180.09710023
 H     59  54  51     2.047200557046   120.20840567   179.98959560
 C     62  56  52     2.615136157831   119.05646862   359.65102596
 H     60  55  52     2.046059572817   119.00144309   180.07396398
 H     62  56  52     2.047184714175   120.21152803   180.02617165
 H     63  59  54     2.045412655340   119.90783134   179.88114165
 H     66  62  56     2.045391658770   119.90762208   179.92052033
 N     52  51  48     2.629891556588    35.83881876     0.09986271

---------------------
BASIS SET INFORMATION
---------------------
There are 4 groups of distinct atoms

 Group   1 Type C   : 11s6p2d1f contracted to 5s3p2d1f pattern {62111/411/11/1}
 Group   2 Type H   : 5s1p contracted to 3s1p pattern {311/1}
 Group   3 Type O   : 11s6p2d1f contracted to 5s3p2d1f pattern {62111/411/11/1}
 Group   4 Type N   : 11s6p2d1f contracted to 5s3p2d1f pattern {62111/411/11/1}

Atom   0C    basis set group =>   1
Atom   1C    basis set group =>   1
Atom   2C    basis set group =>   1
Atom   3C    basis set group =>   1
Atom   4C    basis set group =>   1
Atom   5C    basis set group =>   1
Atom   6C    basis set group =>   1
Atom   7C    basis set group =>   1
Atom   8C    basis set group =>   1
Atom   9C    basis set group =>   1
Atom  10C    basis set group =>   1
Atom  11C    basis set group =>   1
Atom  12C    basis set group =>   1
Atom  13H    basis set group =>   2
Atom  14H    basis set group =>   2
Atom  15H    basis set group =>   2
Atom  16H    basis set group =>   2
Atom  17H    basis set group =>   2
Atom  18C    basis set group =>   1
Atom  19C    basis set group =>   1
Atom  20C    basis set group =>   1
Atom  21C    basis set group =>   1
Atom  22H    basis set group =>   2
Atom  23C    basis set group =>   1
Atom  24H    basis set group =>   2
Atom  25C    basis set group =>   1
Atom  26H    basis set group =>   2
Atom  27H    basis set group =>   2
Atom  28H    basis set group =>   2
Atom  29O    basis set group =>   3
Atom  30O    basis set group =>   3
Atom  31C    basis set group =>   1
Atom  32C    basis set group =>   1
Atom  33C    basis set group =>   1
Atom  34C    basis set group =>   1
Atom  35H    basis set group =>   2
Atom  36H    basis set group =>   2
Atom  37H    basis set group =>   2
Atom  38C    basis set group =>   1
Atom  39C    basis set group =>   1
Atom  40C    basis set group =>   1
Atom  41C    basis set group =>   1
Atom  42C    basis set group =>   1
Atom  43C    basis set group =>   1
Atom  44H    basis set group =>   2
Atom  45C    basis set group =>   1
Atom  46H    basis set group =>   2
Atom  47C    basis set group =>   1
Atom  48H    basis set group =>   2
Atom  49H    basis set group =>   2
Atom  50C    basis set group =>   1
Atom  51C    basis set group =>   1
Atom  52C    basis set group =>   1
Atom  53C    basis set group =>   1
Atom  54C    basis set group =>   1
Atom  55C    basis set group =>   1
Atom  56C    basis set group =>   1
Atom  57H    basis set group =>   2
Atom  58C    basis set group =>   1
Atom  59C    basis set group =>   1
Atom  60H    basis set group =>   2
Atom  61C    basis set group =>   1
Atom  62C    basis set group =>   1
Atom  63H    basis set group =>   2
Atom  64H    basis set group =>   2
Atom  65C    basis set group =>   1
Atom  66H    basis set group =>   2
Atom  67H    basis set group =>   2
Atom  68H    basis set group =>   2
Atom  69H    basis set group =>   2
Atom  70N    basis set group =>   4
---------------------------------
AUXILIARY/J BASIS SET INFORMATION
---------------------------------
There are 4 groups of distinct atoms

 Group   1 Type C   : 12s5p4d2f1g contracted to 6s4p3d1f1g pattern {711111/2111/211/2/1}
 Group   2 Type H   : 5s2p1d contracted to 3s1p1d pattern {311/2/1}
 Group   3 Type O   : 12s5p4d2f1g contracted to 6s4p3d1f1g pattern {711111/2111/211/2/1}
 Group   4 Type N   : 12s5p4d2f1g contracted to 6s4p3d1f1g pattern {711111/2111/211/2/1}

Atom   0C    basis set group =>   1
Atom   1C    basis set group =>   1
Atom   2C    basis set group =>   1
Atom   3C    basis set group =>   1
Atom   4C    basis set group =>   1
Atom   5C    basis set group =>   1
Atom   6C    basis set group =>   1
Atom   7C    basis set group =>   1
Atom   8C    basis set group =>   1
Atom   9C    basis set group =>   1
Atom  10C    basis set group =>   1
Atom  11C    basis set group =>   1
Atom  12C    basis set group =>   1
Atom  13H    basis set group =>   2
Atom  14H    basis set group =>   2
Atom  15H    basis set group =>   2
Atom  16H    basis set group =>   2
Atom  17H    basis set group =>   2
Atom  18C    basis set group =>   1
Atom  19C    basis set group =>   1
Atom  20C    basis set group =>   1
Atom  21C    basis set group =>   1
Atom  22H    basis set group =>   2
Atom  23C    basis set group =>   1
Atom  24H    basis set group =>   2
Atom  25C    basis set group =>   1
Atom  26H    basis set group =>   2
Atom  27H    basis set group =>   2
Atom  28H    basis set group =>   2
Atom  29O    basis set group =>   3
Atom  30O    basis set group =>   3
Atom  31C    basis set group =>   1
Atom  32C    basis set group =>   1
Atom  33C    basis set group =>   1
Atom  34C    basis set group =>   1
Atom  35H    basis set group =>   2
Atom  36H    basis set group =>   2
Atom  37H    basis set group =>   2
Atom  38C    basis set group =>   1
Atom  39C    basis set group =>   1
Atom  40C    basis set group =>   1
Atom  41C    basis set group =>   1
Atom  42C    basis set group =>   1
Atom  43C    basis set group =>   1
Atom  44H    basis set group =>   2
Atom  45C    basis set group =>   1
Atom  46H    basis set group =>   2
Atom  47C    basis set group =>   1
Atom  48H    basis set group =>   2
Atom  49H    basis set group =>   2
Atom  50C    basis set group =>   1
Atom  51C    basis set group =>   1
Atom  52C    basis set group =>   1
Atom  53C    basis set group =>   1
Atom  54C    basis set group =>   1
Atom  55C    basis set group =>   1
Atom  56C    basis set group =>   1
Atom  57H    basis set group =>   2
Atom  58C    basis set group =>   1
Atom  59C    basis set group =>   1
Atom  60H    basis set group =>   2
Atom  61C    basis set group =>   1
Atom  62C    basis set group =>   1
Atom  63H    basis set group =>   2
Atom  64H    basis set group =>   2
Atom  65C    basis set group =>   1
Atom  66H    basis set group =>   2
Atom  67H    basis set group =>   2
Atom  68H    basis set group =>   2
Atom  69H    basis set group =>   2
Atom  70N    basis set group =>   4
---------------------------------
AUXILIARY/C BASIS SET INFORMATION
---------------------------------
There are 4 groups of distinct atoms

 Group   1 Type C   : 8s6p5d3f1g contracted to 8s6p4d3f1g pattern {11111111/111111/2111/111/1}
 Group   2 Type H   : 4s3p2d contracted to 4s2p1d pattern {1111/21/2}
 Group   3 Type O   : 8s6p5d3f1g contracted to 8s6p4d3f1g pattern {11111111/111111/2111/111/1}
 Group   4 Type N   : 8s6p5d3f1g contracted to 8s6p4d3f1g pattern {11111111/111111/2111/111/1}

Atom   0C    basis set group =>   1
Atom   1C    basis set group =>   1
Atom   2C    basis set group =>   1
Atom   3C    basis set group =>   1
Atom   4C    basis set group =>   1
Atom   5C    basis set group =>   1
Atom   6C    basis set group =>   1
Atom   7C    basis set group =>   1
Atom   8C    basis set group =>   1
Atom   9C    basis set group =>   1
Atom  10C    basis set group =>   1
Atom  11C    basis set group =>   1
Atom  12C    basis set group =>   1
Atom  13H    basis set group =>   2
Atom  14H    basis set group =>   2
Atom  15H    basis set group =>   2
Atom  16H    basis set group =>   2
Atom  17H    basis set group =>   2
Atom  18C    basis set group =>   1
Atom  19C    basis set group =>   1
Atom  20C    basis set group =>   1
Atom  21C    basis set group =>   1
Atom  22H    basis set group =>   2
Atom  23C    basis set group =>   1
Atom  24H    basis set group =>   2
Atom  25C    basis set group =>   1
Atom  26H    basis set group =>   2
Atom  27H    basis set group =>   2
Atom  28H    basis set group =>   2
Atom  29O    basis set group =>   3
Atom  30O    basis set group =>   3
Atom  31C    basis set group =>   1
Atom  32C    basis set group =>   1
Atom  33C    basis set group =>   1
Atom  34C    basis set group =>   1
Atom  35H    basis set group =>   2
Atom  36H    basis set group =>   2
Atom  37H    basis set group =>   2
Atom  38C    basis set group =>   1
Atom  39C    basis set group =>   1
Atom  40C    basis set group =>   1
Atom  41C    basis set group =>   1
Atom  42C    basis set group =>   1
Atom  43C    basis set group =>   1
Atom  44H    basis set group =>   2
Atom  45C    basis set group =>   1
Atom  46H    basis set group =>   2
Atom  47C    basis set group =>   1
Atom  48H    basis set group =>   2
Atom  49H    basis set group =>   2
Atom  50C    basis set group =>   1
Atom  51C    basis set group =>   1
Atom  52C    basis set group =>   1
Atom  53C    basis set group =>   1
Atom  54C    basis set group =>   1
Atom  55C    basis set group =>   1
Atom  56C    basis set group =>   1
Atom  57H    basis set group =>   2
Atom  58C    basis set group =>   1
Atom  59C    basis set group =>   1
Atom  60H    basis set group =>   2
Atom  61C    basis set group =>   1
Atom  62C    basis set group =>   1
Atom  63H    basis set group =>   2
Atom  64H    basis set group =>   2
Atom  65C    basis set group =>   1
Atom  66H    basis set group =>   2
Atom  67H    basis set group =>   2
Atom  68H    basis set group =>   2
Atom  69H    basis set group =>   2
Atom  70N    basis set group =>   4


           ************************************************************
           *        Program running with 8 parallel MPI-processes     *
           *              working on a common directory               *
           ************************************************************
------------------------------------------------------------------------------
                           ORCA GTO INTEGRAL CALCULATION
                           -- RI-GTO INTEGRALS CHOSEN --
------------------------------------------------------------------------------
------------------------------------------------------------------------------
                   ___                                                        
                  /   \      - P O W E R E D   B Y -                         
                 /     \                                                     
                 |  |  |   _    _      __       _____    __    __             
                 |  |  |  | |  | |    /  \     |  _  \  |  |  /  |          
                  \  \/   | |  | |   /    \    | | | |  |  | /  /          
                 / \  \   | |__| |  /  /\  \   | |_| |  |  |/  /          
                |  |  |   |  __  | /  /__\  \  |    /   |      \           
                |  |  |   | |  | | |   __   |  |    \   |  |\   \          
                \     /   | |  | | |  |  |  |  | |\  \  |  | \   \       
                 \___/    |_|  |_| |__|  |__|  |_| \__\ |__|  \__/        
                                                                              
                      - O R C A' S   B I G   F R I E N D -                    
                                      &                                       
                       - I N T E G R A L  F E E D E R -                       
                                                                              
 v1 FN, 2020, v2 2021                                                         
------------------------------------------------------------------------------


Reading SHARK input file NCE_4_M06L_def2TZVP_coords.SHARKINP.tmp ... ok
----------------------
SHARK INTEGRAL PACKAGE
----------------------

Number of atoms                             ...     71
Number of basis functions                   ...   1576
Number of shells                            ...    606
Maximum angular momentum                    ...      3
Integral batch strategy                     ... SHARK/LIBINT Hybrid
RI-J (if used) integral strategy            ... SPLIT-RIJ (Revised 2003 algorithm where possible)
Printlevel                                  ...      1
Contraction scheme used                     ... SEGMENTED contraction
Coulomb Range Separation                    ... NOT USED
Exchange Range Separation                   ... Long Range
   Mu parameter                             ...  0.300000
   Scaling (regular/separated)              ...  0.530000  0.470000
Finite Nucleus Model                        ... NOT USED
Auxiliary Coulomb fitting basis             ... AVAILABLE
   # of basis functions in Aux-J            ...   2529
   # of shells in Aux-J                     ...    815
   Maximum angular momentum in Aux-J        ...      4
Auxiliary J/K fitting basis                 ... NOT available
Auxiliary Correlation fitting basis         ... AVAILABLE
   # of basis functions in Aux-C            ...   3871
   # of shells in Aux-C                     ...   1187
   Maximum angular momentum in Aux-C        ...      4
Auxiliary 'external' fitting basis          ... NOT available
Integral threshold                          ...     2.500000e-11
Primitive cut-off                           ...     2.500000e-12
Primitive pair pre-selection threshold      ...     2.500000e-12

Calculating pre-screening integrals         ... done (  0.1 sec) Dimension = 606
Organizing shell pair data                  ... done (  1.2 sec)
Shell pair information
Total number of shell pairs                 ...    183921
Shell pairs after pre-screening             ...     74145
Total number of primitive shell pairs       ...    574072
Primitive shell pairs kept                  ...    149813
          la=0 lb=0:  17791 shell pairs
          la=1 lb=0:  21276 shell pairs
          la=1 lb=1:   6341 shell pairs
          la=2 lb=0:  10708 shell pairs
          la=2 lb=1:   6436 shell pairs
          la=2 lb=2:   1666 shell pairs
          la=3 lb=0:   4988 shell pairs
          la=3 lb=1:   3052 shell pairs
          la=3 lb=2:   1509 shell pairs
          la=3 lb=3:    378 shell pairs

Calculating one electron integrals          ... done (  0.1 sec)
Calculating RI/J V-Matrix + Cholesky decomp.... done (  0.3 sec)
Calculating RI/C V-Matrix + Cholesky decomp.... done (  0.7 sec)
Calculating Nuclear repulsion               ... done (  0.0 sec) ENN=   4439.469813025385 Eh

SHARK setup successfully completed in   3.3 seconds

Maximum memory used throughout the entire GTOINT-calculation: 153.9 MB


           ************************************************************
           *        Program running with 8 parallel MPI-processes     *
           *              working on a common directory               *
           ************************************************************
-------------------------------------------------------------------------------
                                 ORCA SCF
-------------------------------------------------------------------------------

------------
SCF SETTINGS
------------
Hamiltonian:
 Density Functional     Method          .... DFT(GTOs)
 Exchange Functional    Exchange        .... WB88
 Correlation Functional Correlation     .... LYP
 LDA part of GGA corr.  LDAOpt          .... VWN-3
 Gradients option       PostSCFGGA      .... off
 Hybrid DFT is turned on
   Fraction HF Exchange ScalHFX         ....  0.530000
   Scaling of DF-GGA-X  ScalDFX         ....  0.000000
   Scaling of DF-GGA-C  ScalDFC         ....  0.730000
   Scaling of DF-LDA-C  ScalLDAC        ....  0.730000
   Perturbative correction              ....  0.270000
   Density functional embedding theory  .... OFF
 Long-range corrected/Screened/Range-Separated Hybrid DFT is turned on
   Amount of maximum screened exact exchange              ....  0.470000
   Range separation parameter mu (erf(mu*r12)/r12)        ....  0.300000
 RI-approximation to the Coulomb term is turned on
   Number of AuxJ basis functions       .... 2529
   RIJ-COSX (HFX calculated with COS-X)).... on


General Settings:
 Integral files         IntName         .... NCE_4_M06L_def2TZVP_coords
 Hartree-Fock type      HFTyp           .... RHF
 Total Charge           Charge          ....    0
 Multiplicity           Mult            ....    1
 Number of Electrons    NEL             ....  306
 Basis Dimension        Dim             .... 1576
 Nuclear Repulsion      ENuc            ....   4439.4698130254 Eh

Convergence Acceleration:
 DIIS                   CNVDIIS         .... on
   Start iteration      DIISMaxIt       ....    12
   Startup error        DIISStart       ....  0.200000
   # of expansion vecs  DIISMaxEq       ....     5
   Bias factor          DIISBfac        ....   1.050
   Max. coefficient     DIISMaxC        ....  10.000
 Trust-Rad. Augm. Hess. CNVTRAH         .... auto
   Auto Start mean grad. ratio tolernc. ....  1.125000
   Auto Start start iteration           ....    20
   Auto Start num. interpolation iter.  ....    10
   Max. Number of Micro iterations      ....    16
   Max. Number of Macro iterations      .... Maxiter - #DIIS iter
   Number of Davidson start vectors     ....     2
   Converg. threshold I  (grad. norm)   ....   1.000e-05
   Converg. threshold II (energy diff.) ....   1.000e-08
   Grad. Scal. Fac. for Micro threshold ....   0.100
   Minimum threshold for Micro iter.    ....   0.010
   NR start threshold (gradient norm)   ....   0.001
   Initial trust radius                 ....   0.400
   Minimum AH scaling param. (alpha)    ....   1.000
   Maximum AH scaling param. (alpha)    .... 1000.000
   Orbital update algorithm             .... Taylor
   White noise on init. David. guess    .... on
   Maximum white noise                  ....   0.010
   Quad. conv. algorithm                .... NR
 SOSCF                  CNVSOSCF        .... on
   Start iteration      SOSCFMaxIt      ....   150
   Startup grad/error   SOSCFStart      ....  0.003300
 Level Shifting         CNVShift        .... on
   Level shift para.    LevelShift      ....    0.2500
   Turn off err/grad.   ShiftErr        ....    0.0010
 Zerner damping         CNVZerner       .... off
 Static damping         CNVDamp         .... on
   Fraction old density DampFac         ....    0.7000
   Max. Damping (<1)    DampMax         ....    0.9800
   Min. Damping (>=0)   DampMin         ....    0.0000
   Turn off err/grad.   DampErr         ....    0.1000
 Fernandez-Rico         CNVRico         .... off

SCF Procedure:
 Maximum # iterations   MaxIter         ....   125
 SCF integral mode      SCFMode         .... Direct
   Integral package                     .... SHARK and LIBINT hybrid scheme
 Reset frequency        DirectResetFreq ....    20
 Integral Threshold     Thresh          ....  2.500e-11 Eh
 Primitive CutOff       TCut            ....  2.500e-12 Eh

Convergence Tolerance:
 Convergence Check Mode ConvCheckMode   .... Total+1el-Energy
 Convergence forced     ConvForced      .... 1
 Energy Change          TolE            ....  1.000e-08 Eh
 1-El. energy change                    ....  1.000e-05 Eh
 Orbital Gradient       TolG            ....  1.000e-05
 Orbital Rotation angle TolX            ....  1.000e-05
 DIIS Error             TolErr          ....  5.000e-07


Diagonalization of the overlap matrix:
Smallest eigenvalue                        ... 2.583e-06
Time for diagonalization                   ...    0.402 sec
Threshold for overlap eigenvalues          ... 1.000e-08
Number of eigenvalues below threshold      ... 0
Time for construction of square roots      ...    0.224 sec
Total time needed                          ...    0.634 sec

Time for model grid setup =    0.785 sec

------------------------------
INITIAL GUESS: MODEL POTENTIAL
------------------------------
Loading Hartree-Fock densities                     ... done
Calculating cut-offs                               ... done
Initializing the effective Hamiltonian             ... done
Setting up the integral package (SHARK)            ... done
Starting the Coulomb interaction                   ... done (   1.5 sec)
Reading the grid                                   ... done
Mapping shells                                     ... done
Starting the XC term evaluation                    ... done (   0.5 sec)
  promolecular density results
     # of electrons  =    305.998899439
     EX              =   -250.372280675
     EC              =     -3.506654296
     EX+EC           =   -253.878934971
Transforming the Hamiltonian                       ... done (   0.2 sec)
Diagonalizing the Hamiltonian                      ... done (   0.3 sec)
Back transforming the eigenvectors                 ... done (   0.1 sec)
Now organizing SCF variables                       ... done
                      ------------------
                      INITIAL GUESS DONE (   3.3 sec)
                      ------------------
-------------------
DFT GRID GENERATION
-------------------

General Integration Accuracy     IntAcc      ... 4.388
Radial Grid Type                 RadialGrid  ... OptM3 with GC (2021)
Angular Grid (max. ang.)         AngularGrid ... 4 (Lebedev-302)
Angular grid pruning method      GridPruning ... 4 (adaptive)
Weight generation scheme         WeightScheme... Becke
Basis function cutoff            BFCut       ... 1.0000e-11
Integration weight cutoff        WCut        ... 1.0000e-14
Angular grids for H and He will be reduced by one unit
Partially contracted basis set               ... off
Rotationally invariant grid construction     ... off

Total number of grid points                  ...   353462
Total number of batches                      ...     5561
Average number of points per batch           ...       63
Average number of grid points per atom       ...     4978
Time for grid setup =    2.910 sec

--------------------
COSX GRID GENERATION
--------------------

GRIDX 1
-------
General Integration Accuracy     IntAcc      ... 3.816
Radial Grid Type                 RadialGrid  ... OptM3 with GC (2021)
Angular Grid (max. ang.)         AngularGrid ... 1 (Lebedev-50)
Angular grid pruning method      GridPruning ... 4 (adaptive)
Weight generation scheme         WeightScheme... Becke
Basis function cutoff            BFCut       ... 1.0000e-11
Integration weight cutoff        WCut        ... 1.0000e-14
Angular grids for H and He will be reduced by one unit
Partially contracted basis set               ... on
Rotationally invariant grid construction     ... off

Total number of grid points                  ...    44868
Total number of batches                      ...      728
Average number of points per batch           ...       61
Average number of grid points per atom       ...      632
UseSFitting                                  ... on

GRIDX 2
-------
General Integration Accuracy     IntAcc      ... 4.020
Radial Grid Type                 RadialGrid  ... OptM3 with GC (2021)
Angular Grid (max. ang.)         AngularGrid ... 2 (Lebedev-110)
Angular grid pruning method      GridPruning ... 4 (adaptive)
Weight generation scheme         WeightScheme... Becke
Basis function cutoff            BFCut       ... 1.0000e-11
Integration weight cutoff        WCut        ... 1.0000e-14
Angular grids for H and He will be reduced by one unit
Partially contracted basis set               ... on
Rotationally invariant grid construction     ... off

Total number of grid points                  ...    98648
Total number of batches                      ...     1576
Average number of points per batch           ...       62
Average number of grid points per atom       ...     1389
UseSFitting                                  ... on

GRIDX 3
-------
General Integration Accuracy     IntAcc      ... 4.338
Radial Grid Type                 RadialGrid  ... OptM3 with GC (2021)
Angular Grid (max. ang.)         AngularGrid ... 3 (Lebedev-194)
Angular grid pruning method      GridPruning ... 4 (adaptive)
Weight generation scheme         WeightScheme... Becke
Basis function cutoff            BFCut       ... 1.0000e-11
Integration weight cutoff        WCut        ... 1.0000e-14
Angular grids for H and He will be reduced by one unit
Partially contracted basis set               ... on
Rotationally invariant grid construction     ... off

Total number of grid points                  ...   215863
Total number of batches                      ...     3405
Average number of points per batch           ...       63
Average number of grid points per atom       ...     3040
UseSFitting                                  ... on

Time for X-Grid setup             =    4.137 sec


--------------------
CPCM SOLVATION MODEL
--------------------
CPCM parameters:
  Epsilon                                         ...      35.6880
  Refrac                                          ...       1.3442
  Rsolv                                           ...       1.3000
  Surface type                                    ... GAUSSIAN VDW
  Epsilon function type                           ...         CPCM
Solvent:                                     ... ACETONITRILE
SMD-CDS solvent descriptors:
  Soln                                       ...    1.3442
  Soln25                                     ...    1.3416
  Sola                                       ...    0.0700
  Solb                                       ...    0.3200
  Solg                                       ...   41.2500
  Solc                                       ...    0.0000
  Solh                                       ...    0.0000
Radii:
 Radius for C  used is    3.4960 Bohr (=   1.8500 Ang.)
 Radius for H  used is    2.2677 Bohr (=   1.2000 Ang.)
 Radius for O  used is    4.0969 Bohr (=   2.1680 Ang.)
 Radius for N  used is    3.5716 Bohr (=   1.8900 Ang.)
Calculating surface                               ...        done! (  0.0s)
GEPOL surface points                              ...         3968
GEPOL Volume                                      ...    4050.1337
GEPOL Surface-area                                ...    2120.9224
Calculating surface distance matrix               ...        done! (  0.1s)
Performing Cholesky decomposition & store         ...        done! (  0.6s)
Overall time for CPCM initialization              ...                 0.7s
--------------
SCF ITERATIONS
--------------
ITER       Energy         Delta-E        Max-DP      RMS-DP      [F,P]     Damp
               ***  Starting incremental Fock matrix formation  ***
  0  -1852.5521098414   0.000000000000 0.07292143  0.00058983  0.2945082 0.7000
  1  -1852.9674892037  -0.415379362347 0.07356328  0.00050247  0.1554658 0.7000
                               ***Turning on DIIS***
  2  -1853.2119363634  -0.244447159639 0.13095207  0.00112712  0.0710007 0.0000
  3  -1853.6706306044  -0.458694241014 0.06855781  0.00032110  0.0630561 0.0000
  4  -1853.7029670927  -0.032336488290 0.01138284  0.00008666  0.0181293 0.0000
  5  -1853.7046227750  -0.001655682306 0.01766891  0.00006535  0.0119711 0.0000
                      *** Initiating the SOSCF procedure ***
                           *** Shutting down DIIS ***
                      *** Re-Reading the Fockian *** 
                      *** Removing any level shift *** 
ITER      Energy       Delta-E        Grad      Rot      Max-DP    RMS-DP
  6  -1853.70508206  -0.0004592872  0.001113  0.001113  0.006025  0.000025
               *** Restarting incremental Fock matrix formation ***
  7  -1853.70492687   0.0001551896  0.000561  0.001542  0.033166  0.000222
  8  -1853.70497683  -0.0000499571  0.000299  0.001467  0.013348  0.000092
  9  -1853.70498929  -0.0000124553  0.000144  0.000348  0.012131  0.000079
 10  -1853.70499278  -0.0000034915  0.000038  0.000125  0.000814  0.000007
 11  -1853.70499299  -0.0000002107  0.000025  0.000073  0.000504  0.000003
 12  -1853.70499313  -0.0000001380  0.000008  0.000055  0.000341  0.000002
 13  -1853.70499311   0.0000000114  0.000003  0.000025  0.000309  0.000002
                  ***Gradient check signals convergence***
              ***Rediagonalizing the Fockian in SOSCF/NRSCF***

               *****************************************************
               *                     SUCCESS                       *
               *           SCF CONVERGED AFTER  14 CYCLES          *
               *****************************************************

Old exchange energy                            =   -157.827023717 Eh
New exchange energy                            =   -157.827033176 Eh
Exchange energy change after final integration =     -0.000009459 Eh
Total energy after final integration           =  -1853.705002611 Eh
Final COS-X integration done in                =   128.970 sec

SMD CDS free energy correction energy :               -11.13972     Kcal/mol
Total Energy after SMD CDS correction =             -1853.722754882 Eh

----------------
TOTAL SCF ENERGY
----------------

Total Energy       :        -1853.72275488 Eh          -50442.36060 eV

Components:
Nuclear Repulsion  :         4439.46981303 Eh          120804.11517 eV
Electronic Energy  :        -6293.19256791 Eh         -171246.47578 eV
One Electron Energy:       -11346.08165181 Eh         -308742.57792 eV
Two Electron Energy:         5052.88908390 Eh          137496.10214 eV
Max COSX asymmetry :            0.00000325 Eh               0.00009 eV
CPCM Dielectric    :           -0.04429877 Eh              -1.20543 eV
SMD CDS (Gcds)     :           -0.01775227 Eh              -0.48306 eV

Virial components:
Potential Energy   :        -3701.29832246 Eh         -100717.44773 eV
Kinetic Energy     :         1847.57556757 Eh           50275.08713 eV
Virial Ratio       :            2.00332716


DFT components:
N(Alpha)           :      152.999789570805 electrons
N(Beta)            :      152.999789570805 electrons
N(Total)           :      305.999579141611 electrons
E(X)               :      -95.943785046521 Eh       
E(C)               :       -7.660297661421 Eh       
E(XC)              :     -103.604082707941 Eh       
DFET-embed. en.    :        0.000000000000 Eh       
CPCM Solvation Model Properties:
Surface-charge          :           -0.09499543
Charge-correction       :            0.00042295 Eh               0.01151 eV
Free-energy (cav+disp)  :           -0.01775227 Eh              -0.48306 eV

---------------
SCF CONVERGENCE
---------------

  Last Energy change         ...   -3.8652e-08  Tolerance :   1.0000e-08
  Last MAX-Density change    ...    2.6645e-15  Tolerance :   1.0000e-07
  Last RMS-Density change    ...    1.1087e-17  Tolerance :   5.0000e-09
  Last Orbital Gradient      ...    1.4681e-06  Tolerance :   1.0000e-05
  Last Orbital Rotation      ...    6.2264e-06  Tolerance :   1.0000e-05

             **** THE GBW FILE WAS UPDATED (NCE_4_M06L_def2TZVP_coords.gbw) ****
             **** DENSITY NCE_4_M06L_def2TZVP_coords.scfp WAS UPDATED ****
             **** ENERGY FILE WAS UPDATED (NCE_4_M06L_def2TZVP_coords.en.tmp) ****
             **** THE GBW FILE WAS UPDATED (NCE_4_M06L_def2TZVP_coords.gbw) ****
             **** DENSITY NCE_4_M06L_def2TZVP_coords.scfp WAS UPDATED ****
----------------
ORBITAL ENERGIES
----------------

  NO   OCC          E(Eh)            E(eV) 
   0   2.0000     -19.865394      -540.5649 
   1   2.0000     -19.788772      -538.4799 
   2   2.0000     -14.959233      -407.0614 
   3   2.0000     -10.844638      -295.0976 
   4   2.0000     -10.771389      -293.1044 
   5   2.0000     -10.745577      -292.4020 
   6   2.0000     -10.732562      -292.0479 
   7   2.0000     -10.732524      -292.0468 
   8   2.0000     -10.730026      -291.9788 
   9   2.0000     -10.729129      -291.9544 
  10   2.0000     -10.723629      -291.8048 
  11   2.0000     -10.721426      -291.7448 
  12   2.0000     -10.720794      -291.7276 
  13   2.0000     -10.715530      -291.5844 
  14   2.0000     -10.712326      -291.4972 
  15   2.0000     -10.710302      -291.4421 
  16   2.0000     -10.702249      -291.2230 
  17   2.0000     -10.702237      -291.2227 
  18   2.0000     -10.702177      -291.2211 
  19   2.0000     -10.701934      -291.2144 
  20   2.0000     -10.701852      -291.2122 
  21   2.0000     -10.701128      -291.1925 
  22   2.0000     -10.698623      -291.1243 
  23   2.0000     -10.697658      -291.0981 
  24   2.0000     -10.697147      -291.0842 
  25   2.0000     -10.696187      -291.0581 
  26   2.0000     -10.696123      -291.0563 
  27   2.0000     -10.695360      -291.0355 
  28   2.0000     -10.694402      -291.0095 
  29   2.0000     -10.692486      -290.9573 
  30   2.0000     -10.692472      -290.9570 
  31   2.0000     -10.691904      -290.9415 
  32   2.0000     -10.691526      -290.9312 
  33   2.0000     -10.690669      -290.9079 
  34   2.0000     -10.690601      -290.9060 
  35   2.0000     -10.688764      -290.8560 
  36   2.0000     -10.688731      -290.8552 
  37   2.0000     -10.687759      -290.8287 
  38   2.0000     -10.687724      -290.8278 
  39   2.0000     -10.686005      -290.7810 
  40   2.0000     -10.685857      -290.7769 
  41   2.0000     -10.684989      -290.7533 
  42   2.0000     -10.684840      -290.7493 
  43   2.0000     -10.683916      -290.7241 
  44   2.0000     -10.680674      -290.6359 
  45   2.0000     -10.680614      -290.6343 
  46   2.0000      -1.359293       -36.9883 
  47   2.0000      -1.263613       -34.3847 
  48   2.0000      -1.219241       -33.1772 
  49   2.0000      -1.113530       -30.3007 
  50   2.0000      -1.093223       -29.7481 
  51   2.0000      -1.090335       -29.6695 
  52   2.0000      -1.070034       -29.1171 
  53   2.0000      -1.061053       -28.8727 
  54   2.0000      -1.060404       -28.8551 
  55   2.0000      -1.052992       -28.6534 
  56   2.0000      -1.014785       -27.6137 
  57   2.0000      -1.002610       -27.2824 
  58   2.0000      -0.989058       -26.9136 
  59   2.0000      -0.974393       -26.5146 
  60   2.0000      -0.965291       -26.2669 
  61   2.0000      -0.959194       -26.1010 
  62   2.0000      -0.956445       -26.0262 
  63   2.0000      -0.946785       -25.7633 
  64   2.0000      -0.944168       -25.6921 
  65   2.0000      -0.939555       -25.5666 
  66   2.0000      -0.934772       -25.4364 
  67   2.0000      -0.915374       -24.9086 
  68   2.0000      -0.911048       -24.7909 
  69   2.0000      -0.899157       -24.4673 
  70   2.0000      -0.858878       -23.3713 
  71   2.0000      -0.838759       -22.8238 
  72   2.0000      -0.826579       -22.4924 
  73   2.0000      -0.817935       -22.2571 
  74   2.0000      -0.799583       -21.7578 
  75   2.0000      -0.799511       -21.7558 
  76   2.0000      -0.791867       -21.5478 
  77   2.0000      -0.783394       -21.3172 
  78   2.0000      -0.773829       -21.0570 
  79   2.0000      -0.771143       -20.9839 
  80   2.0000      -0.756707       -20.5910 
  81   2.0000      -0.745854       -20.2957 
  82   2.0000      -0.742270       -20.1982 
  83   2.0000      -0.740110       -20.1394 
  84   2.0000      -0.723627       -19.6909 
  85   2.0000      -0.700891       -19.0722 
  86   2.0000      -0.689294       -18.7566 
  87   2.0000      -0.683840       -18.6082 
  88   2.0000      -0.681700       -18.5500 
  89   2.0000      -0.670803       -18.2535 
  90   2.0000      -0.659731       -17.9522 
  91   2.0000      -0.655709       -17.8428 
  92   2.0000      -0.642858       -17.4930 
  93   2.0000      -0.639707       -17.4073 
  94   2.0000      -0.639020       -17.3886 
  95   2.0000      -0.631493       -17.1838 
  96   2.0000      -0.618541       -16.8314 
  97   2.0000      -0.612557       -16.6685 
  98   2.0000      -0.610694       -16.6178 
  99   2.0000      -0.606560       -16.5053 
 100   2.0000      -0.600763       -16.3476 
 101   2.0000      -0.599468       -16.3124 
 102   2.0000      -0.598573       -16.2880 
 103   2.0000      -0.591310       -16.0904 
 104   2.0000      -0.584594       -15.9076 
 105   2.0000      -0.580886       -15.8067 
 106   2.0000      -0.576975       -15.7003 
 107   2.0000      -0.573964       -15.6184 
 108   2.0000      -0.572585       -15.5808 
 109   2.0000      -0.569134       -15.4869 
 110   2.0000      -0.567265       -15.4361 
 111   2.0000      -0.561983       -15.2923 
 112   2.0000      -0.558125       -15.1873 
 113   2.0000      -0.557795       -15.1784 
 114   2.0000      -0.555906       -15.1270 
 115   2.0000      -0.544529       -14.8174 
 116   2.0000      -0.543164       -14.7802 
 117   2.0000      -0.539892       -14.6912 
 118   2.0000      -0.533309       -14.5121 
 119   2.0000      -0.528746       -14.3879 
 120   2.0000      -0.526540       -14.3279 
 121   2.0000      -0.513434       -13.9713 
 122   2.0000      -0.501862       -13.6564 
 123   2.0000      -0.497855       -13.5473 
 124   2.0000      -0.495407       -13.4807 
 125   2.0000      -0.494112       -13.4455 
 126   2.0000      -0.492532       -13.4025 
 127   2.0000      -0.492009       -13.3882 
 128   2.0000      -0.488928       -13.3044 
 129   2.0000      -0.483293       -13.1511 
 130   2.0000      -0.478102       -13.0098 
 131   2.0000      -0.475690       -12.9442 
 132   2.0000      -0.469279       -12.7697 
 133   2.0000      -0.467983       -12.7345 
 134   2.0000      -0.463739       -12.6190 
 135   2.0000      -0.460013       -12.5176 
 136   2.0000      -0.454752       -12.3744 
 137   2.0000      -0.434037       -11.8107 
 138   2.0000      -0.433206       -11.7881 
 139   2.0000      -0.406124       -11.0512 
 140   2.0000      -0.397239       -10.8094 
 141   2.0000      -0.394963       -10.7475 
 142   2.0000      -0.383985       -10.4488 
 143   2.0000      -0.364216        -9.9108 
 144   2.0000      -0.358169        -9.7463 
 145   2.0000      -0.353123        -9.6090 
 146   2.0000      -0.348978        -9.4962 
 147   2.0000      -0.346409        -9.4263 
 148   2.0000      -0.340172        -9.2566 
 149   2.0000      -0.325437        -8.8556 
 150   2.0000      -0.305065        -8.3012 
 151   2.0000      -0.297947        -8.1076 
 152   2.0000      -0.280892        -7.6434 
 153   0.0000       0.004155         0.1131 
 154   0.0000       0.016279         0.4430 
 155   0.0000       0.048502         1.3198 
 156   0.0000       0.051837         1.4105 
 157   0.0000       0.076639         2.0855 
 158   0.0000       0.078278         2.1300 
 159   0.0000       0.085505         2.3267 
 160   0.0000       0.087243         2.3740 
 161   0.0000       0.091484         2.4894 
 162   0.0000       0.097654         2.6573 
 163   0.0000       0.111883         3.0445 
 164   0.0000       0.123166         3.3515 
 165   0.0000       0.127110         3.4589 
 166   0.0000       0.129508         3.5241 
 167   0.0000       0.130987         3.5643 
 168   0.0000       0.137952         3.7539 
 169   0.0000       0.142519         3.8781 
 170   0.0000       0.146086         3.9752 
 171   0.0000       0.147230         4.0063 
 172   0.0000       0.150536         4.0963 
 173   0.0000       0.150655         4.0995 
 174   0.0000       0.151565         4.1243 
 175   0.0000       0.154300         4.1987 
 176   0.0000       0.157518         4.2863 
 177   0.0000       0.161416         4.3924 
 178   0.0000       0.166445         4.5292 
 179   0.0000       0.167931         4.5696 
 180   0.0000       0.169884         4.6228 
 181   0.0000       0.173956         4.7336 
 182   0.0000       0.177155         4.8206 
 183   0.0000       0.179138         4.8746 
 184   0.0000       0.183825         5.0021 
 185   0.0000       0.186684         5.0799 
 186   0.0000       0.189568         5.1584 
 187   0.0000       0.193548         5.2667 
 188   0.0000       0.194410         5.2902 
 189   0.0000       0.197205         5.3662 
 190   0.0000       0.199868         5.4387 
 191   0.0000       0.201074         5.4715 
 192   0.0000       0.206102         5.6083 
 193   0.0000       0.209833         5.7099 
 194   0.0000       0.213062         5.7977 
 195   0.0000       0.218068         5.9339 
 196   0.0000       0.221341         6.0230 
 197   0.0000       0.229092         6.2339 
 198   0.0000       0.229547         6.2463 
 199   0.0000       0.231645         6.3034 
 200   0.0000       0.234299         6.3756 
 201   0.0000       0.237847         6.4722 
 202   0.0000       0.242786         6.6065 
 203   0.0000       0.250874         6.8266 
 204   0.0000       0.252887         6.8814 
 205   0.0000       0.256064         6.9679 
 206   0.0000       0.261509         7.1160 
 207   0.0000       0.262501         7.1430 
 208   0.0000       0.266498         7.2518 
 209   0.0000       0.267695         7.2844 
 210   0.0000       0.268139         7.2964 
 211   0.0000       0.273456         7.4411 
 212   0.0000       0.279353         7.6016 
 213   0.0000       0.280819         7.6415 
 214   0.0000       0.281970         7.6728 
 215   0.0000       0.283335         7.7099 
 216   0.0000       0.284501         7.7417 
 217   0.0000       0.288101         7.8396 
 218   0.0000       0.290387         7.9018 
 219   0.0000       0.293305         7.9812 
 220   0.0000       0.297854         8.1050 
 221   0.0000       0.298990         8.1359 
 222   0.0000       0.302204         8.2234 
 223   0.0000       0.303064         8.2468 
 224   0.0000       0.305244         8.3061 
 225   0.0000       0.306267         8.3340 
 226   0.0000       0.307430         8.3656 
 227   0.0000       0.311021         8.4633 
 228   0.0000       0.311998         8.4899 
 229   0.0000       0.312605         8.5064 
 230   0.0000       0.313857         8.5405 
 231   0.0000       0.318482         8.6663 
 232   0.0000       0.320896         8.7320 
 233   0.0000       0.325368         8.8537 
 234   0.0000       0.326112         8.8740 
 235   0.0000       0.327773         8.9191 
 236   0.0000       0.329548         8.9675 
 237   0.0000       0.333802         9.0832 
 238   0.0000       0.334979         9.1153 
 239   0.0000       0.336188         9.1481 
 240   0.0000       0.339311         9.2331 
 241   0.0000       0.340354         9.2615 
 242   0.0000       0.341728         9.2989 
 243   0.0000       0.346469         9.4279 
 244   0.0000       0.349623         9.5137 
 245   0.0000       0.351976         9.5778 
 246   0.0000       0.352495         9.5919 
 247   0.0000       0.355283         9.6677 
 248   0.0000       0.358329         9.7506 
 249   0.0000       0.358864         9.7652 
 250   0.0000       0.363015         9.8781 
 251   0.0000       0.368185        10.0188 
 252   0.0000       0.369067        10.0428 
 253   0.0000       0.372791        10.1442 
 254   0.0000       0.374240        10.1836 
 255   0.0000       0.375902        10.2288 
 256   0.0000       0.380638        10.3577 
 257   0.0000       0.383122        10.4253 
 258   0.0000       0.385309        10.4848 
 259   0.0000       0.389178        10.5901 
 260   0.0000       0.389662        10.6033 
 261   0.0000       0.393292        10.7020 
 262   0.0000       0.394422        10.7328 
 263   0.0000       0.394690        10.7401 
 264   0.0000       0.395963        10.7747 
 265   0.0000       0.398756        10.8507 
 266   0.0000       0.401973        10.9382 
 267   0.0000       0.407026        11.0757 
 268   0.0000       0.408394        11.1130 
 269   0.0000       0.410064        11.1584 
 270   0.0000       0.416969        11.3463 
 271   0.0000       0.420993        11.4558 
 272   0.0000       0.422878        11.5071 
 273   0.0000       0.423608        11.5269 
 274   0.0000       0.424515        11.5516 
 275   0.0000       0.425083        11.5671 
 276   0.0000       0.426537        11.6067 
 277   0.0000       0.430152        11.7050 
 278   0.0000       0.432974        11.7818 
 279   0.0000       0.437278        11.8989 
 280   0.0000       0.438351        11.9281 
 281   0.0000       0.442140        12.0312 
 282   0.0000       0.444424        12.0934 
 283   0.0000       0.447648        12.1811 
 284   0.0000       0.449329        12.2269 
 285   0.0000       0.453614        12.3435 
 286   0.0000       0.455993        12.4082 
 287   0.0000       0.458604        12.4792 
 288   0.0000       0.460637        12.5346 
 289   0.0000       0.461378        12.5547 
 290   0.0000       0.464576        12.6418 
 291   0.0000       0.467181        12.7126 
 292   0.0000       0.470141        12.7932 
 293   0.0000       0.472993        12.8708 
 294   0.0000       0.474682        12.9168 
 295   0.0000       0.478157        13.0113 
 296   0.0000       0.478936        13.0325 
 297   0.0000       0.486919        13.2497 
 298   0.0000       0.487558        13.2671 
 299   0.0000       0.489150        13.3104 
 300   0.0000       0.490261        13.3407 
 301   0.0000       0.491546        13.3756 
 302   0.0000       0.495351        13.4792 
 303   0.0000       0.496539        13.5115 
 304   0.0000       0.499389        13.5891 
 305   0.0000       0.499718        13.5980 
 306   0.0000       0.501056        13.6344 
 307   0.0000       0.503978        13.7139 
 308   0.0000       0.505438        13.7537 
 309   0.0000       0.508086        13.8257 
 310   0.0000       0.510604        13.8942 
 311   0.0000       0.513504        13.9732 
 312   0.0000       0.517582        14.0841 
 313   0.0000       0.518170        14.1001 
 314   0.0000       0.519561        14.1380 
 315   0.0000       0.520005        14.1501 
 316   0.0000       0.522869        14.2280 
 317   0.0000       0.525243        14.2926 
 318   0.0000       0.526446        14.3253 
 319   0.0000       0.528154        14.3718 
 320   0.0000       0.528840        14.3905 
 321   0.0000       0.530977        14.4486 
 322   0.0000       0.532991        14.5034 
 323   0.0000       0.536146        14.5893 
 324   0.0000       0.536405        14.5963 
 325   0.0000       0.537989        14.6394 
 326   0.0000       0.541432        14.7331 
 327   0.0000       0.544546        14.8179 
 328   0.0000       0.545929        14.8555 
 329   0.0000       0.549499        14.9526 
 330   0.0000       0.552047        15.0220 
 331   0.0000       0.556363        15.1394 
 332   0.0000       0.560003        15.2385 
 333   0.0000       0.562484        15.3060 
 334   0.0000       0.564162        15.3516 
 335   0.0000       0.565018        15.3749 
 336   0.0000       0.567118        15.4321 
 337   0.0000       0.572893        15.5892 
 338   0.0000       0.573843        15.6151 
 339   0.0000       0.577066        15.7028 
 340   0.0000       0.577292        15.7089 
 341   0.0000       0.578134        15.7318 
 342   0.0000       0.582421        15.8485 
 343   0.0000       0.583393        15.8749 
 344   0.0000       0.587300        15.9812 
[...]
   147a -> 175a  :     0.055389 
   147a -> 176a  :     0.011614 
   149a -> 172a  :     0.010743 
   149a -> 173a  :     0.030729 
   149a -> 175a  :     0.122241 
   149a -> 176a  :     0.025176 
   151a -> 175a  :     0.014239 
   152a -> 170a  :     0.017568 
   152a -> 172a  :     0.021463 
   152a -> 173a  :     0.061245 
   152a -> 175a  :     0.240568 
   152a -> 176a  :     0.047786 

STATE 20:  E=   0.211447 au      5.754 eV    46407.2 cm**-1 <S**2> =   0.000000
   122a -> 154a  :     0.024054 
   131a -> 154a  :     0.012066 
   138a -> 154a  :     0.240540 
   138a -> 156a  :     0.017073 
   138a -> 162a  :     0.016473 
   138a -> 163a  :     0.014486 
   138a -> 174a  :     0.058489 
   146a -> 159a  :     0.012211 
   146a -> 160a  :     0.014463 
   148a -> 153a  :     0.127028 
   148a -> 154a  :     0.158499 
   148a -> 156a  :     0.012966 
   148a -> 159a  :     0.039549 
   148a -> 162a  :     0.012818 

STATE 21:  E=   0.217506 au      5.919 eV    47737.0 cm**-1 <S**2> =   0.000000
   138a -> 154a  :     0.012726 
   139a -> 153a  :     0.018782 
   139a -> 154a  :     0.027239 
   141a -> 155a  :     0.019437 
   142a -> 154a  :     0.043494 
   144a -> 161a  :     0.031546 
   145a -> 154a  :     0.022667 
   147a -> 153a  :     0.010904 
   147a -> 156a  :     0.018615 
   149a -> 162a  :     0.014096 
   150a -> 161a  :     0.328828 
   150a -> 166a  :     0.019445 
   151a -> 155a  :     0.022873 
   151a -> 163a  :     0.063593 
   152a -> 155a  :     0.045523 
   152a -> 164a  :     0.052061 

STATE 22:  E=   0.216439 au      5.890 eV    47502.9 cm**-1 <S**2> =   0.000000
   143a -> 153a  :     0.181486 
   143a -> 154a  :     0.027799 
   143a -> 156a  :     0.162898 
   143a -> 160a  :     0.011176 
   143a -> 164a  :     0.012519 
   144a -> 153a  :     0.010085 
   144a -> 155a  :     0.059396 
   144a -> 164a  :     0.010493 
   150a -> 155a  :     0.022548 
   151a -> 157a  :     0.045553 
   151a -> 158a  :     0.014781 
   151a -> 161a  :     0.040850 
   151a -> 166a  :     0.013407 
   152a -> 157a  :     0.164180 
   152a -> 158a  :     0.039486 
   152a -> 161a  :     0.055316 
   152a -> 166a  :     0.012873 

STATE 23:  E=   0.217185 au      5.910 eV    47666.5 cm**-1 <S**2> =   0.000000
   139a -> 153a  :     0.028822 
   139a -> 154a  :     0.029410 
   142a -> 153a  :     0.014860 
   143a -> 157a  :     0.060847 
   143a -> 158a  :     0.017036 
   145a -> 158a  :     0.015378 
   146a -> 153a  :     0.013421 
   146a -> 154a  :     0.036501 
   146a -> 160a  :     0.018709 
   147a -> 153a  :     0.010224 
   147a -> 156a  :     0.050344 
   147a -> 158a  :     0.012935 
   149a -> 156a  :     0.022232 
   149a -> 160a  :     0.011334 
   149a -> 162a  :     0.026713 
   149a -> 163a  :     0.013093 
   150a -> 161a  :     0.137834 
   151a -> 153a  :     0.094298 
   151a -> 154a  :     0.015743 
   151a -> 156a  :     0.013385 
   151a -> 164a  :     0.017872 
   152a -> 153a  :     0.042675 
   152a -> 155a  :     0.014760 
   152a -> 156a  :     0.044590 
   152a -> 163a  :     0.022147 

STATE 24:  E=   0.213890 au      5.820 eV    46943.5 cm**-1 <S**2> =   0.000000
   137a -> 154a  :     0.012748 
   142a -> 154a  :     0.101715 
   145a -> 154a  :     0.084107 
   146a -> 154a  :     0.024324 
   147a -> 163a  :     0.017772 
   149a -> 153a  :     0.101728 
   149a -> 162a  :     0.010850 
   149a -> 163a  :     0.013340 
   150a -> 161a  :     0.104904 
   151a -> 153a  :     0.057325 
   151a -> 156a  :     0.025461 
   151a -> 160a  :     0.017178 
   151a -> 162a  :     0.032325 
   152a -> 153a  :     0.014272 
   152a -> 154a  :     0.036498 
   152a -> 155a  :     0.024132 
   152a -> 156a  :     0.088120 
   152a -> 164a  :     0.010751 

STATE 25:  E=   0.217592 au      5.921 eV    47756.0 cm**-1 <S**2> =   0.000000
   143a -> 153a  :     0.027904 
   143a -> 155a  :     0.014726 
   143a -> 156a  :     0.024424 
   144a -> 153a  :     0.016364 
   144a -> 155a  :     0.250231 
   150a -> 153a  :     0.238464 
   150a -> 154a  :     0.028987 
   150a -> 156a  :     0.138374 
   150a -> 160a  :     0.012126 
   150a -> 162a  :     0.012554 
   151a -> 166a  :     0.032034 
   152a -> 157a  :     0.036277 
   152a -> 165a  :     0.010063 
   152a -> 166a  :     0.031648 

STATE 26:  E=   0.216279 au      5.885 eV    47467.9 cm**-1 <S**2> =   0.000000
   139a -> 154a  :     0.019202 
   143a -> 157a  :     0.042287 
   143a -> 158a  :     0.012423 
   145a -> 153a  :     0.062082 
   145a -> 154a  :     0.012969 
   146a -> 153a  :     0.014577 
   146a -> 154a  :     0.526316 
   146a -> 156a  :     0.011637 
   151a -> 153a  :     0.014852 
   152a -> 153a  :     0.014669 
   152a -> 156a  :     0.021580 
   152a -> 158a  :     0.010866 
   152a -> 160a  :     0.012554 

STATE 27:  E=   0.226767 au      6.171 eV    49769.6 cm**-1 <S**2> =   0.000000
   139a -> 153a  :     0.019834 
   141a -> 155a  :     0.038336 
   142a -> 154a  :     0.017205 
   142a -> 156a  :     0.012631 
   143a -> 157a  :     0.028030 
   144a -> 161a  :     0.063579 
   145a -> 154a  :     0.078426 
   147a -> 163a  :     0.013576 
   149a -> 153a  :     0.029080 
   149a -> 162a  :     0.012511 
   149a -> 164a  :     0.017208 
   150a -> 161a  :     0.112960 
   150a -> 165a  :     0.011672 
   150a -> 166a  :     0.044451 
   151a -> 153a  :     0.027508 
   151a -> 163a  :     0.046392 
   151a -> 164a  :     0.050779 
   152a -> 153a  :     0.019036 
   152a -> 154a  :     0.013738 
   152a -> 155a  :     0.027629 
   152a -> 160a  :     0.018301 
   152a -> 162a  :     0.014788 
   152a -> 163a  :     0.023975 
   152a -> 164a  :     0.043824 

STATE 28:  E=   0.227171 au      6.182 eV    49858.2 cm**-1 <S**2> =   0.000000
   137a -> 153a  :     0.013576 
   139a -> 154a  :     0.023629 
   142a -> 158a  :     0.012050 
   143a -> 157a  :     0.074108 
   143a -> 158a  :     0.022133 
   145a -> 154a  :     0.155535 
   145a -> 157a  :     0.021623 
   145a -> 158a  :     0.061502 
   145a -> 160a  :     0.019041 
   146a -> 153a  :     0.044750 
   146a -> 154a  :     0.097510 
   146a -> 157a  :     0.013128 
   146a -> 158a  :     0.037130 
   146a -> 160a  :     0.018424 
   147a -> 158a  :     0.023870 
   147a -> 160a  :     0.029572 
   149a -> 163a  :     0.027734 
   151a -> 164a  :     0.027231 
   152a -> 156a  :     0.012187 
   152a -> 160a  :     0.010084 
   152a -> 163a  :     0.017588 

STATE 29:  E=   0.231204 au      6.291 eV    50743.4 cm**-1 <S**2> =   0.000000
   139a -> 153a  :     0.021818 
   139a -> 154a  :     0.036387 
   141a -> 155a  :     0.023692 
   142a -> 156a  :     0.032967 
   143a -> 157a  :     0.117580 
   143a -> 158a  :     0.034037 
   144a -> 157a  :     0.015083 
   144a -> 161a  :     0.015640 
   145a -> 154a  :     0.045434 
   145a -> 160a  :     0.038408 
   146a -> 153a  :     0.018542 
   146a -> 157a  :     0.011459 
   146a -> 158a  :     0.035318 
   147a -> 153a  :     0.028689 
   147a -> 158a  :     0.016691 
   148a -> 159a  :     0.011223 
   149a -> 153a  :     0.028888 
   150a -> 161a  :     0.020987 
   150a -> 166a  :     0.024224 
   151a -> 156a  :     0.026003 
   151a -> 158a  :     0.010158 
   151a -> 164a  :     0.016516 
   152a -> 156a  :     0.094622 
   152a -> 162a  :     0.020412 

STATE 30:  E=   0.226062 au      6.151 eV    49614.9 cm**-1 <S**2> =   0.000000
   139a -> 153a  :     0.060407 
   139a -> 154a  :     0.042149 
   139a -> 156a  :     0.040595 
   139a -> 162a  :     0.010140 
   142a -> 153a  :     0.023511 
   142a -> 156a  :     0.022860 
   142a -> 163a  :     0.011064 
   145a -> 153a  :     0.041509 
   145a -> 154a  :     0.047432 
   145a -> 159a  :     0.019237 
   145a -> 160a  :     0.010163 
   145a -> 163a  :     0.013232 
   146a -> 154a  :     0.026501 
   146a -> 158a  :     0.016146 
   146a -> 159a  :     0.033708 
   147a -> 154a  :     0.015756 
   147a -> 160a  :     0.011577 
   148a -> 153a  :     0.133020 
   148a -> 154a  :     0.048122 
   148a -> 156a  :     0.051374 
   148a -> 159a  :     0.010690 
   149a -> 158a  :     0.012755 
   149a -> 162a  :     0.010672 
   149a -> 174a  :     0.011325 


-------------------------
TD-DFT-EXCITATION SPECTRA
-------------------------

Center of mass = ( -0.0167,  0.0108,  0.0011)
Calculating the Dipole integrals                  ... done
Transforming integrals                            ... done
Calculating the Linear Momentum integrals         ... done
Transforming integrals                            ... done
Calculating angular momentum integrals            ... done
Transforming integrals                            ... done

-----------------------------------------------------------------------------
         ABSORPTION SPECTRUM VIA TRANSITION ELECTRIC DIPOLE MOMENTS
-----------------------------------------------------------------------------
State   Energy    Wavelength  fosc         T2        TX        TY        TZ  
        (cm-1)      (nm)                 (au**2)    (au)      (au)      (au) 
-----------------------------------------------------------------------------
   1   30563.4    327.2   1.895944977  20.42209  -4.44467  -0.78509  -0.22513
   2   30956.3    323.0   0.324782081   3.45397  -1.75052   0.59261   0.19610
   3   34712.6    288.1   0.476623647   4.52027   2.11988  -0.15345  -0.05336
   4   34665.7    288.5   0.036437477   0.34604  -0.58333  -0.07188  -0.02443
   5   38768.9    257.9   0.318207883   2.70211  -0.09776   1.32848  -0.96318
   6   37245.3    268.5   0.119316404   1.05464   0.90316   0.48070   0.08874
   7   38480.6    259.9   0.122189179   1.04536  -0.99583  -0.22986  -0.02914
   8   38204.4    261.8   0.002057101   0.01773  -0.04726  -0.11392  -0.05014
   9   39035.3    256.2   0.001218380   0.01028  -0.01817   0.05142   0.08545
  10   43146.5    231.8   0.107832133   0.82277   0.49100   0.73667   0.19752
  11   41692.8    239.8   0.492486980   3.88874  -1.02321  -1.62706  -0.44096
  12   42653.7    234.4   0.173818464   1.34158   0.05082  -0.87932   0.75219
  13   42704.3    234.2   0.000725723   0.00559   0.00123   0.01468  -0.07333
  14   43275.8    231.1   0.246098002   1.87214   1.18186  -0.65318  -0.22070
  15   46641.6    214.4   0.420297898   2.96660   1.64334   0.50038   0.12515
  16   47461.9    210.7   0.074878127   0.51938  -0.69879   0.17592   0.01122
  17   46570.1    214.7   0.367573388   2.59844  -0.24363  -1.52067  -0.47606
  18   45765.4    218.5   0.746854925   5.37248   0.11261  -1.69569   1.57621
  19   50316.8    198.7   0.006076624   0.03976  -0.15923   0.10766   0.05304
  20   46407.2    215.5   0.033923940   0.24066  -0.42303  -0.19971  -0.14770
  21   47737.0    209.5   0.404838593   2.79192  -1.66916   0.04461   0.06195
  22   47502.9    210.5   0.693827066   4.80847   0.19992  -2.15251   0.36773
  23   47666.5    209.8   0.021622894   0.14934  -0.33952  -0.17880  -0.04575
  24   46943.5    213.0   0.084245929   0.59081  -0.61566  -0.44608  -0.11309
  25   47756.0    209.4   0.028335838   0.19534  -0.02711   0.34455   0.27548
  26   47467.9    210.7   0.154471271   1.07133  -0.76781  -0.61818  -0.31569
  27   49769.6    200.9   0.334936963   2.21551  -1.39423   0.51662   0.06886
  28   49858.2    200.6   0.524815197   3.46534   1.80586   0.44968  -0.04468
  29   50743.4    197.1   0.544326532   3.53147   1.60213  -0.96170  -0.19945
  30   49614.9    201.6   0.095330634   0.63255  -0.12688   0.72531  -0.30064

-----------------------------------------------------------------------------
         ABSORPTION SPECTRUM VIA TRANSITION VELOCITY DIPOLE MOMENTS
-----------------------------------------------------------------------------
State   Energy    Wavelength   fosc        P2         PX        PY        PZ  
        (cm-1)      (nm)                 (au**2)     (au)      (au)      (au) 
-----------------------------------------------------------------------------
   1   30563.4    327.2   1.920712457   0.40121   0.62283   0.11076   0.03192
   2   30956.3    323.0   0.374161455   0.07916   0.26458  -0.09088  -0.03000
   3   34712.6    288.1   0.509250098   0.12082  -0.34646   0.02637   0.00909
   4   34665.7    288.5   0.044840556   0.01062   0.10220   0.01271   0.00424
   5   38768.9    257.9   0.325820579   0.08633   0.01748  -0.23749   0.17212
   6   37245.3    268.5   0.135654913   0.03453  -0.16441  -0.08519  -0.01558
   7   38480.6    259.9   0.135607436   0.03566   0.18389   0.04264   0.00555
   8   38204.4    261.8   0.002359689   0.00062   0.00912   0.02205   0.00682
   9   39035.3    256.2   0.001603046   0.00043   0.00354  -0.01182  -0.01660
  10   43146.5    231.8   0.109704988   0.03235  -0.09762  -0.14596  -0.03894
  11   41692.8    239.8   0.539072412   0.15361   0.20395   0.32298   0.08773
  12   42653.7    234.4   0.193124623   0.05630  -0.01050   0.18049  -0.15366
  13   42704.3    234.2   0.000883045   0.00026  -0.00023  -0.00322   0.01573
  14   43275.8    231.1   0.276247176   0.08171  -0.24682   0.13660   0.04613
  15   46641.6    214.4   0.436549399   0.13916  -0.35607  -0.10803  -0.02653
  16   47461.9    210.7   0.078050258   0.02532   0.15367  -0.04122  -0.00236
  17   46570.1    214.7   0.405879194   0.12918   0.05188   0.33938   0.10637
  18   45765.4    218.5   0.844371073   0.26411  -0.02499   0.37586  -0.34958
  19   50316.8    198.7   0.005867779   0.00202   0.03598  -0.02415  -0.01183
  20   46407.2    215.5   0.038996616   0.01237   0.09529   0.04468   0.03595
  21   47737.0    209.5   0.442224459   0.14428   0.37944  -0.00953  -0.01450
  22   47502.9    210.5   0.778787115   0.25284  -0.04579   0.49351  -0.08478
  23   47666.5    209.8   0.024326933   0.00793   0.07852   0.04056   0.01068
  24   46943.5    213.0   0.099690562   0.03198   0.14279   0.10442   0.02630
  25   47756.0    209.4   0.032753555   0.01069   0.00631  -0.08004  -0.06515
  26   47467.9    210.7   0.181108921   0.05876   0.17854   0.14609   0.07439
  27   49769.6    200.9   0.372112164   0.12657   0.33357  -0.12265  -0.01614
  28   49858.2    200.6   0.573243672   0.19534  -0.42849  -0.10776   0.01080
  29   50743.4    197.1   0.596225290   0.20677  -0.38759   0.23288   0.04811
  30   49614.9    201.6   0.111730547   0.03789   0.03259  -0.17707   0.07398

-------------------------------------------------------------------
                             CD SPECTRUM
-------------------------------------------------------------------
State  Energy     Wavelength     R         MX        MY        MZ   
       (cm-1)       (nm)     (1e40*cgs)   (au)      (au)      (au)  
-------------------------------------------------------------------
   1   30563.4    327.2     28.32281  -0.01880   0.01939   0.03668
   2   30956.3    323.0      8.68235  -0.01457   0.34902  -1.09086
   3   34712.6    288.1     32.21542   0.03262  -0.18281   0.54121
   4   34665.7    288.5     -4.03402   0.01543   0.00848  -0.04316
   5   38768.9    257.9    -28.43321  -0.04795   1.48708   2.11855
   6   37245.3    268.5    -23.92602  -0.03234  -0.03359  -0.06075
   7   38480.6    259.9    -20.03075   0.04181  -0.03503   0.30551
   8   38204.4    261.8     -6.93656  -0.07748   0.09865   0.14235
   9   39035.3    256.2     -9.09765   0.01151  -0.16563  -0.12372
  10   43146.5    231.8      8.57963   0.04056   0.23461  -0.88371
  11   41692.8    239.8     12.12648  -0.04015  -0.52435   1.96957
  12   42653.7    234.4    -68.07932   0.05301  -1.39535  -1.82674
  13   42704.3    234.2     -0.43610  -0.07493  -0.19381  -0.02745
  14   43275.8    231.1     25.15701   0.06263  -0.38615   1.23643
  15   46641.6    214.4    -22.79394  -0.00283   0.16157  -0.99515
  16   47461.9    210.7    -31.90243   0.04352  -0.22400   0.19151
  17   46570.1    214.7    -85.79107  -0.00769  -0.19414   1.00630
  18   45765.4    218.5    -338.97549   0.10235  -3.03756  -3.73128
  19   50316.8    198.7     -4.48149  -0.00922   0.05797  -0.32458
  20   46407.2    215.5     22.81923   0.10246  -0.42539  -0.04599
  21   47737.0    209.5     -2.40742  -0.02478   0.37675  -1.02127
  22   47502.9    210.5    214.19245  -0.01307  -0.65501  -2.59154
  23   47666.5    209.8      2.24448   0.03058  -0.17925   0.36956
  24   46943.5    213.0     -4.53300  -0.00289  -0.08869   0.45058
  25   47756.0    209.4    151.57970  -0.06753   0.12652   1.00222
  26   47467.9    210.7     83.17228  -0.09076  -0.43504   0.51378
  27   49769.6    200.9     14.73207  -0.02354   0.09828  -0.76023
  28   49858.2    200.6    -196.55112  -0.12054  -0.42562   0.17541
  29   50743.4    197.1     50.09640   0.06736  -0.34571   1.67528
  30   49614.9    201.6     -2.37444  -0.36715  -0.63314  -1.35578

Total run time:    33215.860 sec

           *** ORCA-CIS/TD-DFT FINISHED WITHOUT ERROR ***

Maximum memory used throughout the entire CIS-calculation: 4941.6 MB

-----------------------
CIS/TD-DFT TOTAL ENERGY
-----------------------

    E(SCF)  =  -1853.722754882 Eh
    DE(CIS) =      0.139256922 Eh (Root  1)
    ----------------------------- ---------
    E(tot)  =  -1853.583497960 Eh


-------------------------   --------------------
FINAL SINGLE POINT ENERGY     -1853.583497960121
-------------------------   --------------------


                            ***************************************
                            *     ORCA property calculations      *
                            ***************************************


  WARNING: The energy has been calculated at the MP2 level but the densities
           used in the property calculations are still SCF densities
           MP2 response densities have not been calculated 
           use %mp2 Density relaxed end
           or  %mp2 Density unrelaxed end

                                    ---------------------
                                    Active property flags
                                    ---------------------
   (+) Dipole Moment


------------------------------------------------------------------------------
                       ORCA ELECTRIC PROPERTIES CALCULATION
------------------------------------------------------------------------------

Dipole Moment Calculation                       ... on
Quadrupole Moment Calculation                   ... off
Polarizability Calculation                      ... off
GBWName                                         ... NCE_4_M06L_def2TZVP_coords.gbw
Electron density                                ... NCE_4_M06L_def2TZVP_coords.scfp
The origin for moment calculation is the CENTER OF MASS  = (-0.016740,  0.010778  0.001099)

-------------
DIPOLE MOMENT
-------------
                                X             Y             Z
Electronic contribution:     -5.89078       0.71630      -0.29829
Nuclear contribution   :      5.12236      -3.29801      -0.33612
                        -----------------------------------------
Total Dipole Moment    :     -0.76843      -2.58171      -0.63441
                        -----------------------------------------
Magnitude (a.u.)       :      2.76734
Magnitude (Debye)      :      7.03403



--------------------
Rotational spectrum 
--------------------
 
Rotational constants in cm-1:     0.006763     0.000541     0.000516 
Rotational constants in MHz :   202.744715    16.225406    15.465508 

 Dipole components along the rotational axes: 
x,y,z [a.u.] :    -0.767557    -2.584310    -0.624809 
x,y,z [Debye]:    -1.950975    -6.568795    -1.588138 

 

Timings for individual modules:

Sum of individual times         ...    36424.621 sec (= 607.077 min)
GTO integral calculation        ...        3.703 sec (=   0.062 min)   0.0 %
SCF iterations                  ...      872.126 sec (=  14.535 min)   2.4 %
MP2 module                      ...     2329.257 sec (=  38.821 min)   6.4 %
CIS module                      ...    33219.535 sec (= 553.659 min)  91.2 %
                             ****ORCA TERMINATED NORMALLY****
TOTAL RUN TIME: 0 days 10 hours 7 minutes 16 seconds 570 msec
