 Entering Gaussian System, Link 0=g09
 Input=/home/png4rjv/fotokatalizis/benchmark/OPCs/Eos_Y_M062X_def2TZVP.gjf
 Output=/home/png4rjv/fotokatalizis/benchmark/OPCs/Eos_Y_M062X_def2TZVP.log
 Initial command:
 /opt/nce/packages/global/g09/l1.exe "/home/png4rjv/fotokatalizis/benchmark/OPCs/Eos_Y_M062X_def2TZVP/Gau-31241.inp" -scrdir="/home/png4rjv/fotokatalizis/benchmark/OPCs/Eos_Y_M062X_def2TZVP/"
 Default is to use a total of  12 processors:
                               12 via shared-memory
                                1 via Linda
 Entering Link 1 = /opt/nce/packages/global/g09/l1.exe PID=     31242.
  
 Copyright (c) 1988,1990,1992,1993,1995,1998,2003,2009,2015,
            Gaussian, Inc.  All Rights Reserved.
  
 This is part of the Gaussian(R) 09 program.  It is based on
 the Gaussian(R) 03 system (copyright 2003, Gaussian, Inc.),
 the Gaussian(R) 98 system (copyright 1998, Gaussian, Inc.),
 the Gaussian(R) 94 system (copyright 1995, Gaussian, Inc.),
 the Gaussian 92(TM) system (copyright 1992, Gaussian, Inc.),
 the Gaussian 90(TM) system (copyright 1990, Gaussian, Inc.),
 the Gaussian 88(TM) system (copyright 1988, Gaussian, Inc.),
 the Gaussian 86(TM) system (copyright 1986, Carnegie Mellon
 University), and the Gaussian 82(TM) system (copyright 1983,
 Carnegie Mellon University). Gaussian is a federally registered
 trademark of Gaussian, Inc.
  
 This software contains proprietary and confidential information,
 including trade secrets, belonging to Gaussian, Inc.
  
 This software is provided under written license and may be
 used, copied, transmitted, or stored only in accord with that
 written license.
  
 The following legend is applicable only to US Government
 contracts under FAR:
  
                    RESTRICTED RIGHTS LEGEND
  
 Use, reproduction and disclosure by the US Government is
 subject to restrictions as set forth in subparagraphs (a)
 and (c) of the Commercial Computer Software - Restricted
 Rights clause in FAR 52.227-19.
  
 Gaussian, Inc.
 340 Quinnipiac St., Bldg. 40, Wallingford CT 06492
  
  
 ---------------------------------------------------------------
 Warning -- This program may not be used in any manner that
 competes with the business of Gaussian, Inc. or will provide
 assistance to any competitor of Gaussian, Inc.  The licensee
 of this program is prohibited from giving any competitor of
 Gaussian, Inc. access to this program.  By using this program,
 the user acknowledges that Gaussian, Inc. is engaged in the
 business of creating and licensing software in the field of
 computational chemistry and represents and warrants to the
 licensee that it is not a competitor of Gaussian, Inc. and that
 it will not use this program in any manner prohibited above.
 ---------------------------------------------------------------
  

 Cite this work as:
 Gaussian 09, Revision E.01,
 M. J. Frisch, G. W. Trucks, H. B. Schlegel, G. E. Scuseria, 
 M. A. Robb, J. R. Cheeseman, G. Scalmani, V. Barone, B. Mennucci, 
 G. A. Petersson, H. Nakatsuji, M. Caricato, X. Li, H. P. Hratchian, 
 A. F. Izmaylov, J. Bloino, G. Zheng, J. L. Sonnenberg, M. Hada, 
 M. Ehara, K. Toyota, R. Fukuda, J. Hasegawa, M. Ishida, T. Nakajima, 
 Y. Honda, O. Kitao, H. Nakai, T. Vreven, J. A. Montgomery, Jr., 
 J. E. Peralta, F. Ogliaro, M. Bearpark, J. J. Heyd, E. Brothers, 
 K. N. Kudin, V. N. Staroverov, T. Keith, R. Kobayashi, J. Normand, 
 K. Raghavachari, A. Rendell, J. C. Burant, S. S. Iyengar, J. Tomasi, 
 M. Cossi, N. Rega, J. M. Millam, M. Klene, J. E. Knox, J. B. Cross, 
 V. Bakken, C. Adamo, J. Jaramillo, R. Gomperts, R. E. Stratmann, 
 O. Yazyev, A. J. Austin, R. Cammi, C. Pomelli, J. W. Ochterski, 
 R. L. Martin, K. Morokuma, V. G. Zakrzewski, G. A. Voth, 
 P. Salvador, J. J. Dannenberg, S. Dapprich, A. D. Daniels, 
 O. Farkas, J. B. Foresman, J. V. Ortiz, J. Cioslowski, 
 and D. J. Fox, Gaussian, Inc., Wallingford CT, 2013.
 
 ******************************************
 Gaussian 09:  ES64L-G09RevE.01 30-Nov-2015
                12-Feb-2022 
 ******************************************
 %chk=cp.chk
 Default route:  MaxDisk=500GB
 ----------------------------------------------------------------------
 #p m062x/def2TZVP opt freq=noraman nosymm int=ultrafine scrf=(SMD,solv
 ent=Acetonitrile)
 ----------------------------------------------------------------------
 1/14=-1,18=20,19=15,26=4,38=1/1,3;
 2/9=110,12=2,15=1,17=6,18=5,40=1/2;
 3/5=44,7=101,11=2,16=1,25=1,30=1,70=32201,71=1,72=2,74=-55,75=-5/1,2,3;
 4//1;
 5/5=2,38=5,53=2/2;
 6/7=2,8=2,9=2,10=2,28=1/1;
 7/30=1/1,2,3,16;
 1/14=-1,18=20,19=15,26=4/3(2);
 2/9=110,15=1/2;
 99//99;
 2/9=110,15=1/2;
 3/5=44,7=101,11=2,16=1,25=1,30=1,70=32205,71=1,72=2,74=-55,75=-5/1,2,3;
 4/5=5,16=3,69=1/1;
 5/5=2,38=5,53=2/2;
 7/30=1/1,2,3,16;
 1/14=-1,18=20,19=15,26=4/3(-5);
 2/9=110,15=1/2;
 6/7=2,8=2,9=2,10=2,19=2,28=1/1;
 99/9=1/99;
 Leave Link    1 at Sat Feb 12 00:52:01 2022, MaxMem=           0 cpu:         1.1
 (Enter /opt/nce/packages/global/g09/l101.exe)
 -----
 Title
 -----
 Symbolic Z-matrix:
 Charge = -2 Multiplicity = 1
 C                    -5.05215  -2.32081   1.50778 
 C                    -3.70021  -1.93846   1.20194 
 C                    -3.37787  -0.92916   0.31539 
 C                    -4.39089  -0.19756  -0.3626 
 C                    -5.74108  -0.53738  -0.09423 
 C                    -6.04093  -1.53576   0.78707 
 C                    -4.01955   0.84188  -1.2404 
 C                    -2.64896   1.06062  -1.49012 
 C                    -1.68291   0.2979   -0.77865 
 C                    -0.33039   0.50475  -0.96957 
 C                     0.19914   1.48028  -1.88353 
 C                    -0.83577   2.22499  -2.5818 
 C                    -2.17579   2.03648  -2.40368 
 H                    -6.53906   0.02356  -0.60861 
 H                    -2.91229   2.6386   -2.96139 
 O                    -2.06058  -0.65933   0.11083 
 O                     1.43305   1.67022  -2.06542 
 O                    -5.35203  -3.24338   2.31457 
 C                    -5.04453   1.5098   -2.08094 
 C                    -5.39268   0.91225  -3.29986 
 C                    -5.66596   2.70743  -1.69653 
 C                    -6.34908   1.50141  -4.12682 
 H                    -4.90185  -0.0293   -3.6007 
 C                    -6.62311   3.2886   -2.53224 
 C                    -6.96782   2.69389  -3.74324 
 H                    -6.61291   1.02131  -5.08374 
 H                    -7.08663   4.23011  -2.19101 
 H                    -7.7241    3.15999  -4.39663 
 C                    -5.29443   3.35931  -0.38487 
 O                    -5.87482   4.4384   -0.07157 
 O                    -4.41424   2.75328   0.29923 
 Br                   -2.29595  -2.9093    2.08413 
 Br                    0.93836  -0.5528    0.01275 
 Br                   -0.20975   3.55333  -3.83527 
 Br                   -7.88531  -1.98472   1.14043 
 
 NAtoms=     35 NQM=       35 NQMF=       0 NMMI=      0 NMMIF=      0
                NMic=       0 NMicF=      0.
                    Isotopes and Nuclear Properties:
 (Nuclear quadrupole moments (NQMom) in fm**2, nuclear magnetic moments (NMagM)
  in nuclear magnetons)

  Atom         1           2           3           4           5           6           7           8           9          10
 IAtWgt=          12          12          12          12          12          12          12          12          12          12
 AtmWgt=  12.0000000  12.0000000  12.0000000  12.0000000  12.0000000  12.0000000  12.0000000  12.0000000  12.0000000  12.0000000
 NucSpn=           0           0           0           0           0           0           0           0           0           0
 AtZEff=   0.0000000   0.0000000   0.0000000   0.0000000   0.0000000   0.0000000   0.0000000   0.0000000   0.0000000   0.0000000
 NQMom=    0.0000000   0.0000000   0.0000000   0.0000000   0.0000000   0.0000000   0.0000000   0.0000000   0.0000000   0.0000000
 NMagM=    0.0000000   0.0000000   0.0000000   0.0000000   0.0000000   0.0000000   0.0000000   0.0000000   0.0000000   0.0000000
 AtZNuc=   6.0000000   6.0000000   6.0000000   6.0000000   6.0000000   6.0000000   6.0000000   6.0000000   6.0000000   6.0000000

  Atom        11          12          13          14          15          16          17          18          19          20
 IAtWgt=          12          12          12           1           1          16          16          16          12          12
 AtmWgt=  12.0000000  12.0000000  12.0000000   1.0078250   1.0078250  15.9949146  15.9949146  15.9949146  12.0000000  12.0000000
 NucSpn=           0           0           0           1           1           0           0           0           0           0
 AtZEff=   0.0000000   0.0000000   0.0000000   0.0000000   0.0000000   0.0000000   0.0000000   0.0000000   0.0000000   0.0000000
 NQMom=    0.0000000   0.0000000   0.0000000   0.0000000   0.0000000   0.0000000   0.0000000   0.0000000   0.0000000   0.0000000
 NMagM=    0.0000000   0.0000000   0.0000000   2.7928460   2.7928460   0.0000000   0.0000000   0.0000000   0.0000000   0.0000000
 AtZNuc=   6.0000000   6.0000000   6.0000000   1.0000000   1.0000000   8.0000000   8.0000000   8.0000000   6.0000000   6.0000000

  Atom        21          22          23          24          25          26          27          28          29          30
 IAtWgt=          12          12           1          12          12           1           1           1          12          16
 AtmWgt=  12.0000000  12.0000000   1.0078250  12.0000000  12.0000000   1.0078250   1.0078250   1.0078250  12.0000000  15.9949146
 NucSpn=           0           0           1           0           0           1           1           1           0           0
 AtZEff=   0.0000000   0.0000000   0.0000000   0.0000000   0.0000000   0.0000000   0.0000000   0.0000000   0.0000000   0.0000000
 NQMom=    0.0000000   0.0000000   0.0000000   0.0000000   0.0000000   0.0000000   0.0000000   0.0000000   0.0000000   0.0000000
 NMagM=    0.0000000   0.0000000   2.7928460   0.0000000   0.0000000   2.7928460   2.7928460   2.7928460   0.0000000   0.0000000
 AtZNuc=   6.0000000   6.0000000   1.0000000   6.0000000   6.0000000   1.0000000   1.0000000   1.0000000   6.0000000   8.0000000

  Atom        31          32          33          34          35
 IAtWgt=          16          79          79          79          79
 AtmWgt=  15.9949146  78.9183361  78.9183361  78.9183361  78.9183361
 NucSpn=           0           3           3           3           3
 AtZEff=   0.0000000   0.0000000   0.0000000   0.0000000   0.0000000
 NQMom=    0.0000000  31.3000000  31.3000000  31.3000000  31.3000000
 NMagM=    0.0000000   2.1063990   2.1063990   2.1063990   2.1063990
 AtZNuc=   8.0000000  35.0000000  35.0000000  35.0000000  35.0000000
 Leave Link  101 at Sat Feb 12 00:52:01 2022, MaxMem=  5242880000 cpu:         5.0
 (Enter /opt/nce/packages/global/g09/l103.exe)

 GradGradGradGradGradGradGradGradGradGradGradGradGradGradGradGradGradGrad
 Berny optimization.
 Initialization pass.
                           ----------------------------
                           !    Initial Parameters    !
                           ! (Angstroms and Degrees)  !
 --------------------------                            --------------------------
 ! Name  Definition              Value          Derivative Info.                !
 --------------------------------------------------------------------------------
 ! R1    R(1,2)                  1.4379         estimate D2E/DX2                !
 ! R2    R(1,6)                  1.4538         estimate D2E/DX2                !
 ! R3    R(1,18)                 1.2617         estimate D2E/DX2                !
 ! R4    R(2,3)                  1.3815         estimate D2E/DX2                !
 ! R5    R(2,32)                 1.9216         estimate D2E/DX2                !
 ! R6    R(3,4)                  1.4217         estimate D2E/DX2                !
 ! R7    R(3,16)                 1.3601         estimate D2E/DX2                !
 ! R8    R(4,5)                  1.4179         estimate D2E/DX2                !
 ! R9    R(4,7)                  1.4103         estimate D2E/DX2                !
 ! R10   R(5,6)                  1.365          estimate D2E/DX2                !
 ! R11   R(5,14)                 1.1027         estimate D2E/DX2                !
 ! R12   R(6,35)                 1.9308         estimate D2E/DX2                !
 ! R13   R(7,8)                  1.4102         estimate D2E/DX2                !
 ! R14   R(7,19)                 1.4843         estimate D2E/DX2                !
 ! R15   R(8,9)                  1.4217         estimate D2E/DX2                !
 ! R16   R(8,13)                 1.418          estimate D2E/DX2                !
 ! R17   R(9,10)                 1.3815         estimate D2E/DX2                !
 ! R18   R(9,16)                 1.3602         estimate D2E/DX2                !
 ! R19   R(10,11)                1.4378         estimate D2E/DX2                !
 ! R20   R(10,33)                1.9217         estimate D2E/DX2                !
 ! R21   R(11,12)                1.4537         estimate D2E/DX2                !
 ! R22   R(11,17)                1.2616         estimate D2E/DX2                !
 ! R23   R(12,13)                1.3649         estimate D2E/DX2                !
 ! R24   R(12,34)                1.9307         estimate D2E/DX2                !
 ! R25   R(13,15)                1.1027         estimate D2E/DX2                !
 ! R26   R(19,20)                1.4014         estimate D2E/DX2                !
 ! R27   R(19,21)                1.403          estimate D2E/DX2                !
 ! R28   R(20,22)                1.3949         estimate D2E/DX2                !
 ! R29   R(20,23)                1.1036         estimate D2E/DX2                !
 ! R30   R(21,24)                1.3972         estimate D2E/DX2                !
 ! R31   R(21,29)                1.5111         estimate D2E/DX2                !
 ! R32   R(22,25)                1.3971         estimate D2E/DX2                !
 ! R33   R(22,26)                1.1026         estimate D2E/DX2                !
 ! R34   R(24,25)                1.3925         estimate D2E/DX2                !
 ! R35   R(24,27)                1.1035         estimate D2E/DX2                !
 ! R36   R(25,28)                1.1028         estimate D2E/DX2                !
 ! R37   R(29,30)                1.2647         estimate D2E/DX2                !
 ! R38   R(29,31)                1.2689         estimate D2E/DX2                !
 ! A1    A(2,1,6)              112.9833         estimate D2E/DX2                !
 ! A2    A(2,1,18)             123.6354         estimate D2E/DX2                !
 ! A3    A(6,1,18)             123.3811         estimate D2E/DX2                !
 ! A4    A(1,2,3)              123.377          estimate D2E/DX2                !
 ! A5    A(1,2,32)             117.0712         estimate D2E/DX2                !
 ! A6    A(3,2,32)             119.5511         estimate D2E/DX2                !
 ! A7    A(2,3,4)              121.0476         estimate D2E/DX2                !
 ! A8    A(2,3,16)             117.8676         estimate D2E/DX2                !
 ! A9    A(4,3,16)             121.0847         estimate D2E/DX2                !
 ! A10   A(3,4,5)              117.7054         estimate D2E/DX2                !
 ! A11   A(3,4,7)              119.2429         estimate D2E/DX2                !
 ! A12   A(5,4,7)              123.0368         estimate D2E/DX2                !
 ! A13   A(4,5,6)              120.4407         estimate D2E/DX2                !
 ! A14   A(4,5,14)             118.6119         estimate D2E/DX2                !
 ! A15   A(6,5,14)             120.9469         estimate D2E/DX2                !
 ! A16   A(1,6,5)              124.4457         estimate D2E/DX2                !
 ! A17   A(1,6,35)             115.6839         estimate D2E/DX2                !
 ! A18   A(5,6,35)             119.8704         estimate D2E/DX2                !
 ! A19   A(4,7,8)              118.715          estimate D2E/DX2                !
 ! A20   A(4,7,19)             120.153          estimate D2E/DX2                !
 ! A21   A(8,7,19)             120.07           estimate D2E/DX2                !
 ! A22   A(7,8,9)              119.247          estimate D2E/DX2                !
 ! A23   A(7,8,13)             123.0336         estimate D2E/DX2                !
 ! A24   A(9,8,13)             117.7025         estimate D2E/DX2                !
 ! A25   A(8,9,10)             121.0485         estimate D2E/DX2                !
 ! A26   A(8,9,16)             121.074          estimate D2E/DX2                !
 ! A27   A(10,9,16)            117.8775         estimate D2E/DX2                !
 ! A28   A(9,10,11)            123.366          estimate D2E/DX2                !
 ! A29   A(9,10,33)            119.559          estimate D2E/DX2                !
 ! A30   A(11,10,33)           117.0743         estimate D2E/DX2                !
 ! A31   A(10,11,12)           112.9988         estimate D2E/DX2                !
 ! A32   A(10,11,17)           123.6403         estimate D2E/DX2                !
 ! A33   A(12,11,17)           123.3607         estimate D2E/DX2                !
 ! A34   A(11,12,13)           124.4382         estimate D2E/DX2                !
 ! A35   A(11,12,34)           115.6883         estimate D2E/DX2                !
 ! A36   A(13,12,34)           119.8734         estimate D2E/DX2                !
 ! A37   A(8,13,12)            120.4457         estimate D2E/DX2                !
 ! A38   A(8,13,15)            118.6028         estimate D2E/DX2                !
 ! A39   A(12,13,15)           120.9512         estimate D2E/DX2                !
 ! A40   A(3,16,9)             120.4569         estimate D2E/DX2                !
 ! A41   A(7,19,20)            118.1776         estimate D2E/DX2                !
 ! A42   A(7,19,21)            122.3334         estimate D2E/DX2                !
 ! A43   A(20,19,21)           119.489          estimate D2E/DX2                !
 ! A44   A(19,20,22)           120.3898         estimate D2E/DX2                !
 ! A45   A(19,20,23)           119.3656         estimate D2E/DX2                !
 ! A46   A(22,20,23)           120.2446         estimate D2E/DX2                !
 ! A47   A(19,21,24)           119.6444         estimate D2E/DX2                !
 ! A48   A(19,21,29)           119.814          estimate D2E/DX2                !
 ! A49   A(24,21,29)           120.5415         estimate D2E/DX2                !
 ! A50   A(20,22,25)           120.0922         estimate D2E/DX2                !
 ! A51   A(20,22,26)           119.6474         estimate D2E/DX2                !
 ! A52   A(25,22,26)           120.2603         estimate D2E/DX2                !
 ! A53   A(21,24,25)           120.8036         estimate D2E/DX2                !
 ! A54   A(21,24,27)           117.2366         estimate D2E/DX2                !
 ! A55   A(25,24,27)           121.9598         estimate D2E/DX2                !
 ! A56   A(22,25,24)           119.5811         estimate D2E/DX2                !
 ! A57   A(22,25,28)           120.1189         estimate D2E/DX2                !
 ! A58   A(24,25,28)           120.3001         estimate D2E/DX2                !
 ! A59   A(21,29,30)           118.0528         estimate D2E/DX2                !
 ! A60   A(21,29,31)           115.6261         estimate D2E/DX2                !
 ! A61   A(30,29,31)           126.3211         estimate D2E/DX2                !
 ! D1    D(6,1,2,3)              0.0288         estimate D2E/DX2                !
 ! D2    D(6,1,2,32)          -179.6607         estimate D2E/DX2                !
 ! D3    D(18,1,2,3)           179.8598         estimate D2E/DX2                !
 ! D4    D(18,1,2,32)            0.1703         estimate D2E/DX2                !
 ! D5    D(2,1,6,5)              0.1188         estimate D2E/DX2                !
 ! D6    D(2,1,6,35)          -179.9863         estimate D2E/DX2                !
 ! D7    D(18,1,6,5)          -179.7127         estimate D2E/DX2                !
 ! D8    D(18,1,6,35)            0.1823         estimate D2E/DX2                !
 ! D9    D(1,2,3,4)             -0.1745         estimate D2E/DX2                !
 ! D10   D(1,2,3,16)           179.9138         estimate D2E/DX2                !
 ! D11   D(32,2,3,4)           179.5077         estimate D2E/DX2                !
 ! D12   D(32,2,3,16)           -0.404          estimate D2E/DX2                !
 ! D13   D(2,3,4,5)              0.1741         estimate D2E/DX2                !
 ! D14   D(2,3,4,7)            178.813          estimate D2E/DX2                !
 ! D15   D(16,3,4,5)          -179.917          estimate D2E/DX2                !
 ! D16   D(16,3,4,7)            -1.2781         estimate D2E/DX2                !
 ! D17   D(2,3,16,9)           178.1509         estimate D2E/DX2                !
 ! D18   D(4,3,16,9)            -1.7608         estimate D2E/DX2                !
 ! D19   D(3,4,5,6)             -0.0326         estimate D2E/DX2                !
 ! D20   D(3,4,5,14)           179.7349         estimate D2E/DX2                !
 ! D21   D(7,4,5,6)           -178.6159         estimate D2E/DX2                !
 ! D22   D(7,4,5,14)             1.1516         estimate D2E/DX2                !
 ! D23   D(3,4,7,8)              4.4239         estimate D2E/DX2                !
 ! D24   D(3,4,7,19)           172.6504         estimate D2E/DX2                !
 ! D25   D(5,4,7,8)           -177.0136         estimate D2E/DX2                !
 ! D26   D(5,4,7,19)            -8.7871         estimate D2E/DX2                !
 ! D27   D(4,5,6,1)             -0.1177         estimate D2E/DX2                !
 ! D28   D(4,5,6,35)           179.9915         estimate D2E/DX2                !
 ! D29   D(14,5,6,1)          -179.8797         estimate D2E/DX2                !
 ! D30   D(14,5,6,35)            0.2295         estimate D2E/DX2                !
 ! D31   D(4,7,8,9)             -4.6167         estimate D2E/DX2                !
 ! D32   D(4,7,8,13)           176.9109         estimate D2E/DX2                !
 ! D33   D(19,7,8,9)          -172.8532         estimate D2E/DX2                !
 ! D34   D(19,7,8,13)            8.6744         estimate D2E/DX2                !
 ! D35   D(4,7,19,20)          -84.3157         estimate D2E/DX2                !
 ! D36   D(4,7,19,21)           95.7615         estimate D2E/DX2                !
 ! D37   D(8,7,19,20)           83.7506         estimate D2E/DX2                !
 ! D38   D(8,7,19,21)          -96.1722         estimate D2E/DX2                !
 ! D39   D(7,8,9,10)          -178.3726         estimate D2E/DX2                !
 ! D40   D(7,8,9,16)             1.6787         estimate D2E/DX2                !
 ! D41   D(13,8,9,10)            0.181          estimate D2E/DX2                !
 ! D42   D(13,8,9,16)         -179.7677         estimate D2E/DX2                !
 ! D43   D(7,8,13,12)          178.4682         estimate D2E/DX2                !
 ! D44   D(7,8,13,15)           -1.3324         estimate D2E/DX2                !
 ! D45   D(9,8,13,12)           -0.0263         estimate D2E/DX2                !
 ! D46   D(9,8,13,15)         -179.827          estimate D2E/DX2                !
 ! D47   D(8,9,10,11)           -0.2166         estimate D2E/DX2                !
 ! D48   D(8,9,10,33)         -179.8976         estimate D2E/DX2                !
 ! D49   D(16,9,10,11)         179.7337         estimate D2E/DX2                !
 ! D50   D(16,9,10,33)           0.0527         estimate D2E/DX2                !
 ! D51   D(8,9,16,3)             1.5591         estimate D2E/DX2                !
 ! D52   D(10,9,16,3)         -178.3912         estimate D2E/DX2                !
 ! D53   D(9,10,11,12)           0.0869         estimate D2E/DX2                !
 ! D54   D(9,10,11,17)        -179.7389         estimate D2E/DX2                !
 ! D55   D(33,10,11,12)        179.7753         estimate D2E/DX2                !
 ! D56   D(33,10,11,17)         -0.0505         estimate D2E/DX2                !
 ! D57   D(10,11,12,13)          0.0738         estimate D2E/DX2                !
 ! D58   D(10,11,12,34)       -179.7855         estimate D2E/DX2                !
 ! D59   D(17,11,12,13)        179.9001         estimate D2E/DX2                !
 ! D60   D(17,11,12,34)          0.0408         estimate D2E/DX2                !
 ! D61   D(11,12,13,8)          -0.1027         estimate D2E/DX2                !
 ! D62   D(11,12,13,15)        179.6933         estimate D2E/DX2                !
 ! D63   D(34,12,13,8)         179.7511         estimate D2E/DX2                !
 ! D64   D(34,12,13,15)         -0.453          estimate D2E/DX2                !
 ! D65   D(7,19,20,22)        -179.9102         estimate D2E/DX2                !
 ! D66   D(7,19,20,23)           0.0154         estimate D2E/DX2                !
 ! D67   D(21,19,20,22)          0.0149         estimate D2E/DX2                !
 ! D68   D(21,19,20,23)        179.9405         estimate D2E/DX2                !
 ! D69   D(7,19,21,24)         179.9389         estimate D2E/DX2                !
 ! D70   D(7,19,21,29)           0.0265         estimate D2E/DX2                !
 ! D71   D(20,19,21,24)          0.0171         estimate D2E/DX2                !
 ! D72   D(20,19,21,29)       -179.8954         estimate D2E/DX2                !
 ! D73   D(19,20,22,25)         -0.0324         estimate D2E/DX2                !
 ! D74   D(19,20,22,26)        179.935          estimate D2E/DX2                !
 ! D75   D(23,20,22,25)       -179.9573         estimate D2E/DX2                !
 ! D76   D(23,20,22,26)          0.01           estimate D2E/DX2                !
 ! D77   D(19,21,24,25)         -0.032          estimate D2E/DX2                !
 ! D78   D(19,21,24,27)        179.9994         estimate D2E/DX2                !
 ! D79   D(29,21,24,25)        179.8797         estimate D2E/DX2                !
 ! D80   D(29,21,24,27)         -0.0888         estimate D2E/DX2                !
 ! D81   D(19,21,29,30)        179.97           estimate D2E/DX2                !
 ! D82   D(19,21,29,31)          0.0008         estimate D2E/DX2                !
 ! D83   D(24,21,29,30)          0.0584         estimate D2E/DX2                !
 ! D84   D(24,21,29,31)       -179.9108         estimate D2E/DX2                !
 ! D85   D(20,22,25,24)          0.0175         estimate D2E/DX2                !
 ! D86   D(20,22,25,28)       -179.9915         estimate D2E/DX2                !
 ! D87   D(26,22,25,24)       -179.9496         estimate D2E/DX2                !
 ! D88   D(26,22,25,28)          0.0414         estimate D2E/DX2                !
 ! D89   D(21,24,25,22)          0.0147         estimate D2E/DX2                !
 ! D90   D(21,24,25,28)       -179.9763         estimate D2E/DX2                !
 ! D91   D(27,24,25,22)        179.9818         estimate D2E/DX2                !
 ! D92   D(27,24,25,28)         -0.0092         estimate D2E/DX2                !
 --------------------------------------------------------------------------------
 Trust Radius=3.00D-01 FncErr=1.00D-07 GrdErr=1.00D-06
 Number of steps in this run=    201 maximum allowed number of steps=    210.
 GradGradGradGradGradGradGradGradGradGradGradGradGradGradGradGradGradGrad

 Leave Link  103 at Sat Feb 12 00:52:01 2022, MaxMem=  5242880000 cpu:         0.3
 (Enter /opt/nce/packages/global/g09/l202.exe)
                          Input orientation:                          
 ---------------------------------------------------------------------
 Center     Atomic      Atomic             Coordinates (Angstroms)
 Number     Number       Type             X           Y           Z
 ---------------------------------------------------------------------
      1          6           0       -5.052153   -2.320807    1.507777
      2          6           0       -3.700210   -1.938461    1.201937
      3          6           0       -3.377874   -0.929158    0.315392
      4          6           0       -4.390886   -0.197557   -0.362596
      5          6           0       -5.741081   -0.537380   -0.094230
      6          6           0       -6.040930   -1.535757    0.787073
      7          6           0       -4.019552    0.841877   -1.240402
      8          6           0       -2.648956    1.060620   -1.490122
      9          6           0       -1.682911    0.297895   -0.778646
     10          6           0       -0.330386    0.504747   -0.969566
     11          6           0        0.199144    1.480283   -1.883534
     12          6           0       -0.835770    2.224989   -2.581797
     13          6           0       -2.175791    2.036482   -2.403680
     14          1           0       -6.539062    0.023564   -0.608609
     15          1           0       -2.912291    2.638598   -2.961387
     16          8           0       -2.060582   -0.659327    0.110831
     17          8           0        1.433047    1.670221   -2.065425
     18          8           0       -5.352028   -3.243376    2.314573
     19          6           0       -5.044528    1.509797   -2.080938
     20          6           0       -5.392678    0.912246   -3.299863
     21          6           0       -5.665964    2.707429   -1.696532
     22          6           0       -6.349075    1.501411   -4.126822
     23          1           0       -4.901852   -0.029299   -3.600698
     24          6           0       -6.623111    3.288596   -2.532240
     25          6           0       -6.967819    2.693892   -3.743243
     26          1           0       -6.612914    1.021309   -5.083737
     27          1           0       -7.086631    4.230106   -2.191009
     28          1           0       -7.724100    3.159988   -4.396626
     29          6           0       -5.294425    3.359314   -0.384873
     30          8           0       -5.874817    4.438404   -0.071567
     31          8           0       -4.414236    2.753275    0.299228
     32         35           0       -2.295953   -2.909301    2.084126
     33         35           0        0.938360   -0.552799    0.012752
     34         35           0       -0.209750    3.553334   -3.835271
     35         35           0       -7.885310   -1.984720    1.140429
 ---------------------------------------------------------------------
                    Distance matrix (angstroms):
                    1          2          3          4          5
     1  C    0.000000
     2  C    1.437872   0.000000
     3  C    2.482273   1.381505   0.000000
     4  C    2.905815   2.440398   1.421654   0.000000
     5  C    2.494326   2.794321   2.430232   1.417930   0.000000
     6  C    1.453753   2.411069   2.771698   2.415608   1.365050
     7  C    4.315243   3.714469   2.443115   1.410268   2.485905
     8  C    5.118281   4.164949   2.783957   2.426653   3.750114
     9  C    4.841190   3.604649   2.361245   2.784187   4.199387
    10  C    6.034573   4.694721   3.604772   4.165250   5.579235
    11  C    7.316105   6.034311   4.841047   5.118279   6.523714
    12  C    7.427433   6.313159   4.980426   4.840706   6.154734
    13  C    6.523720   5.578934   4.199211   3.750147   4.966852
    14  H    3.490854   3.897012   3.428493   2.173494   1.102732
    15  H    7.010573   6.237271   4.866511   4.121132   5.129277
    16  O    3.696143   2.348420   1.360115   2.422330   3.688224
    17  O    8.411534   7.074501   5.964061   6.348733   7.760620
    18  O    1.261736   2.381022   3.640002   4.167498   3.643639
    19  C    5.249044   4.947216   3.803766   2.508985   2.936516
    20  C    5.803619   5.590812   4.529931   3.295874   3.535376
    21  C    5.993957   5.818041   4.744255   3.441533   3.619641
    22  C    6.931094   6.873491   5.871028   4.570601   4.559399
    23  H    5.600903   5.306048   4.297443   3.282484   3.641122
    24  C    7.089080   7.057588   6.035729   4.673697   4.621684
    25  C    7.509340   7.522684   6.518183   5.140996   5.026062
    26  H    7.553395   7.533511   6.589416   5.358378   5.299508
    27  H    7.793239   7.812244   6.830441   5.496757   5.379211
    28  H    8.487661   8.574951   7.603546   6.217461   6.009451
    29  C    5.992044   5.755511   4.749161   3.669906   3.932963
    30  O    6.989852   6.856758   5.932553   4.876360   4.977633
    31  O    5.254887   4.830849   3.825522   3.024230   3.569837
    32  Br   2.876655   1.921647   2.867044   4.210552   4.715946
    33  Br   6.422398   4.985033   4.343169   5.354246   6.680315
    34  Br   9.300675   8.229009   6.881697   6.603829   7.831025
    35  Br   2.876574   4.185808   4.702327   4.202860   2.866513
                    6          7          8          9         10
     6  C    0.000000
     7  C    3.721528   0.000000
     8  C    4.840690   1.410228   0.000000
     9  C    4.980571   2.443159   1.421686   0.000000
    10  C    6.313458   3.714425   2.440439   1.381507   0.000000
    11  C    7.427460   4.314925   2.905609   2.482126   1.437849
    12  C    7.251633   3.721399   2.415606   2.771767   2.411210
    13  C    6.154762   2.485911   1.418020   2.430299   2.794354
    14  H    2.151173   2.723367   4.121344   4.866865   6.237747
    15  H    6.423751   2.723238   2.173472   3.428502   3.897038
    16  O    4.131417   2.813718   2.422282   1.360176   2.348596
    17  O    8.618316   5.576527   4.167174   3.639818   2.380952
    18  O    2.392447   5.576973   6.348755   5.964145   7.074665
    19  C    4.300431   1.484316   2.507905   3.803306   4.946555
    20  C    4.807910   2.476248   3.290165   4.527288   5.587767
    21  C    4.930874   2.529627   3.443388   4.744795   5.817962
    22  C    5.784955   3.767371   4.564796   5.867863   6.869223
    23  H    4.776971   2.666158   3.273835   4.293322   5.301543
    24  C    5.884824   3.799184   4.673735   6.035309   7.056214
    25  C    6.266803   4.287943   5.137773   6.516125   7.519385
    26  H    6.429009   4.639930   5.350568   6.584988   7.527509
    27  H    6.573252   4.668053   5.498167   6.830611   7.811342
    28  H    7.194013   5.390646   6.213871   7.601139   8.571001
    29  C    5.088462   2.948681   3.674789   4.750829   5.756049
    30  O    6.037835   4.212267   4.881383   5.934295   6.857170
    31  O    4.613017   2.485896   3.030358   3.827642   4.831516
    32  Br   4.194499   5.300435   5.353516   4.342510   4.984397
    33  Br   7.090576   5.300604   4.210770   2.867238   1.921736
    34  Br   9.014853   5.347891   4.202746   4.702238   4.185774
    35  Br   1.930846   5.348092   6.604036   6.882073   8.229605
                   11         12         13         14         15
    11  C    0.000000
    12  C    1.453687   0.000000
    13  C    2.494038   1.364887   0.000000
    14  H    7.010769   6.423962   5.129547   0.000000
    15  H    3.490629   2.151070   1.102730   5.052468   0.000000
    16  O    3.696185   4.131548   3.688282   4.587016   4.586964
    17  O    1.261617   2.392057   3.643113   8.269723   4.541196
    18  O    8.411455   8.618239   7.760625   4.541689   8.269564
    19  C    5.247469   4.298372   2.934487   2.571045   2.568232
    20  C    5.796303   4.796282   3.523551   3.057254   3.040917
    21  C    5.995027   4.934290   3.623746   3.024733   3.031058
    22  C    6.921847   5.771239   4.546627   3.820726   3.803014
    23  H    5.589960   4.759516   3.623770   3.411136   3.388915
    24  C    7.087593   5.884474   4.622010   3.790495   3.791682
    25  C    7.503114   6.258662   5.018979   4.140098   4.130577
    26  H    7.540298   6.409676   5.282172   4.585599   4.562302
    27  H    7.793496   6.576205   5.382710   4.527562   4.533376
    28  H    8.480262   7.184491   6.001486   5.058710   5.048293
    29  C    5.996336   5.098311   3.943519   3.567409   3.582236
    30  O    6.994763   6.049170   4.989065   4.496715   4.512973
    31  O    5.260060   4.624371   3.581918   3.576363   3.591740
    32  Br   6.421548   7.089704   6.679492   5.818633   7.524378
    33  Br   2.876763   4.194679   4.716085   7.525299   5.818765
    34  Br   2.876458   1.930699   2.866289   7.932894   2.983981
    35  Br   9.301021   9.015133   7.831308   2.984078   7.932899
                   16         17         18         19         20
    16  O    0.000000
    17  O    4.729517   0.000000
    18  O    4.729419   9.453310   0.000000
    19  C    4.291024   6.479580   6.481337   0.000000
    20  C    5.020512   6.977742   6.985180   1.401447   0.000000
    21  C    5.253607   7.183860   7.183286   1.402952   2.422403
    22  C    6.404503   8.052284   8.062176   2.426428   1.394873
    23  H    4.716482   6.736199   6.747102   2.167682   1.103594
    24  C    6.587002   8.230355   8.232491   2.420687   2.783927
    25  C    7.083709   8.627718   8.634759   2.804351   2.419074
    26  H    7.108572   8.617934   8.632054   3.422756   2.164042
    27  H    7.380121   8.896836   8.897306   3.403290   3.886802
    28  H    8.184117   9.565942   9.574445   3.907128   3.419176
    29  C    5.181982   7.136958   7.133431   2.521864   3.807225
    30  O    6.369342   8.064935   8.060814   3.647422   4.805012
    31  O    4.149823   6.399633   6.395381   2.758386   4.159350
    32  Br   3.001945   7.217772   3.082906   6.665647   7.292549
    33  Br   3.002436   3.083075   7.218488   6.665792   7.293958
    34  Br   6.061667   3.062230  10.509942   5.534330   5.841639
    35  Br   6.061699  10.510370   3.062735   5.537048   5.858483
                   21         22         23         24         25
    21  C    0.000000
    22  C    2.797754   0.000000
    23  H    3.420438   2.171252   0.000000
    24  C    1.397245   2.410771   3.887514   0.000000
    25  C    2.425703   1.397136   3.421156   1.392489   0.000000
    26  H    3.900368   1.102631   2.496180   3.413331   2.172652
    27  H    2.140408   3.425951   4.990292   1.103508   2.187121
    28  H    3.425090   2.171259   4.332452   2.169021   1.102776
    29  C    1.511107   4.308860   4.688106   2.526181   3.810733
    30  O    2.383360   5.029507   5.775967   2.817253   4.209416
    31  O    2.356265   4.990059   4.815590   3.630828   4.781829
    32  Br   7.562936   8.628908   6.884936   8.857147   9.337041
    33  Br   7.560941   8.629169   6.887608   8.854894   9.335747
    34  Br   5.921151   6.479715   5.908139   6.549746   6.813120
    35  Br   5.915244   6.500543   5.933210   6.549008   6.825061
                   26         27         28         29         30
    26  H    0.000000
    27  H    4.346109   0.000000
    28  H    2.506153   2.533035   0.000000
    29  C    5.411470   2.689314   4.694381   0.000000
    30  O    6.110906   2.450289   4.874457   1.264694   0.000000
    31  O    6.067141   3.940051   5.759484   1.268862   2.260629
    32  Br   9.244680   9.602005  10.406786   7.374437   8.452458
    33  Br   9.245202   9.598605  10.405076   7.369555   8.446218
    34  Br   6.997880   7.103035   7.545548   6.147911   6.858703
    35  Br   7.028189   7.096508   7.559959   6.131715   6.838680
                   31         32         33         34         35
    31  O    0.000000
    32  Br   6.303789   0.000000
    33  Br   6.297815   4.506048   0.000000
    34  Br   5.950788   9.008727   5.743324   0.000000
    35  Br   5.933344   5.743372   9.009950  10.693075   0.000000
 Symmetry turned off by external request.
 Stoichiometry    C20H6Br4O5(2-)
 Framework group  C1[X(C20H6Br4O5)]
 Deg. of freedom    99
 Full point group                 C1      NOp   1
 Rotational constants (GHZ):      0.1054773      0.0679215      0.0443189
 Leave Link  202 at Sat Feb 12 00:52:02 2022, MaxMem=  5242880000 cpu:         0.2
 (Enter /opt/nce/packages/global/g09/l301.exe)
 Standard basis: def2TZVP (5D, 7F)
 Ernie: Thresh=  0.10000D-02 Tol=  0.10000D-05 Strict=F.
  1003 basis functions,  1779 primitive gaussians,  1156 cartesian basis functions
   154 alpha electrons      154 beta electrons
       nuclear repulsion energy      4965.8720953234 Hartrees.
 IExCor= 4336 DFT=T Ex+Corr=M062X ExCW=0 ScaHFX=  0.540000
 ScaDFX=  1.000000  1.000000  1.000000  1.000000 ScalE2=  1.000000  1.000000
 IRadAn=      5 IRanWt=     -1 IRanGd=            0 ICorTp=0 IEmpDi=  4
 NAtoms=   35 NActive=   35 NUniq=   35 SFac= 1.00D+00 NAtFMM=   60 NAOKFM=F Big=F
 Integral buffers will be    131072 words long.
 Raffenetti 2 integral format.
 Two-electron integral symmetry is turned off.
 ------------------------------------------------------------------------------
 Polarizable Continuum Model (PCM)
 =================================
 Model                : PCM (using non-symmetric T matrix).
 Atomic radii         : SMD-Coulomb.
 Polarization charges : Total charges.
 Charge compensation  : None.
 Solution method      : On-the-fly selection.
 Cavity type          : VdW (van der Waals Surface) (Alpha=1.000).
 Cavity algorithm     : GePol (No added spheres)
                        Default sphere list used, NSphG=   35.
                        Lebedev-Laikov grids with approx.  5.0 points / Ang**2.
                        Smoothing algorithm: York/Karplus (Gamma=1.0000).
                        Polarization charges: spherical gaussians, with
                                              point-specific exponents (IZeta= 3).
                        Self-potential: point-specific (ISelfS= 7).
                        Self-field    : sphere-specific E.n sum rule (ISelfD= 2).
 1st derivatives      : Analytical E(r).r(x)/FMM algorithm (CHGder, D1EAlg=3).
                        Cavity 1st derivative terms included.
 Solvent              : Acetonitrile, Eps=  35.688000 Eps(inf)=   1.806874
 ------------------------------------------------------------------------------
 GePol: Number of generator spheres                  =      35
 GePol: Total number of spheres                      =      35
 GePol: Number of exposed spheres                    =      35 (100.00%)
 GePol: Number of points                             =    3584
 GePol: Average weight of points                     =       0.16
 GePol: Minimum weight of points                     =   0.29D-11
 GePol: Maximum weight of points                     =    0.22025
 GePol: Number of points with low weight             =     139
 GePol: Fraction of low-weight points (<1% of avg)   =       3.88%
 GePol: Cavity surface area                          =    557.368 Ang**2
 GePol: Cavity volume                                =    692.371 Ang**3
 ------------------------------------------------------------------------------
 Atomic radii for non-electrostatic terms: SMD-CDS.
 ------------------------------------------------------------------------------
 PCM non-electrostatic energy =        -0.0145827753 Hartrees.
 Nuclear repulsion after PCM non-electrostatic terms =     4965.8575125481 Hartrees.
 Leave Link  301 at Sat Feb 12 00:52:02 2022, MaxMem=  5242880000 cpu:         2.2
 (Enter /opt/nce/packages/global/g09/l302.exe)
 NPDir=0 NMtPBC=     1 NCelOv=     1 NCel=       1 NClECP=     1 NCelD=      1
         NCelK=      1 NCelE2=     1 NClLst=     1 CellRange=     0.0.
 One-electron integrals computed using PRISM.
   1 Symmetry operations used in ECPInt.
 ECPInt:  NShTT=   66066 NPrTT=  240610 LenC2=   54169 LenP2D=  126310.
 LDataN:  DoStor=T MaxTD1= 6 Len=  172
 NBasis=  1003 RedAO= T EigKep=  5.08D-06  NBF=  1003
 NBsUse=  1003 1.00D-06 EigRej= -1.00D+00 NBFU=  1003
 Precomputing XC quadrature grid using
 IXCGrd= 4 IRadAn=           5 IRanWt=          -1 IRanGd=           0 AccXCQ= 0.00D+00.
 Generated NRdTot=       0 NPtTot=           0 NUsed=           0 NTot=          32
 NSgBfM=  1106  1106  1106  1106  1106 MxSgAt=    35 MxSgA2=    35.
 Leave Link  302 at Sat Feb 12 00:52:04 2022, MaxMem=  5242880000 cpu:        25.8
 (Enter /opt/nce/packages/global/g09/l303.exe)
 DipDrv:  MaxL=1.
 Leave Link  303 at Sat Feb 12 00:52:04 2022, MaxMem=  5242880000 cpu:         2.7
 (Enter /opt/nce/packages/global/g09/l401.exe)
 ExpMin= 9.52D-02 ExpMax= 5.65D+05 ExpMxC= 5.46D+03 IAcc=3 IRadAn=         5 AccDes= 0.00D+00
 Harris functional with IExCor= 1009 and IRadAn=       5 diagonalized for initial guess.
 HarFok:  IExCor= 1009 AccDes= 0.00D+00 IRadAn=         5 IDoV= 1 UseB2=F ITyADJ=14
 ICtDFT=  3500011 ScaDFX=  1.000000  1.000000  1.000000  1.000000
 FoFCou: FMM=F IPFlag=           0 FMFlag=      100000 FMFlg1=           0
         NFxFlg=           0 DoJE=T BraDBF=F KetDBF=T FulRan=T
         wScrn=  0.000000 ICntrl=     500 IOpCl=  0 I1Cent=   200000004 NGrid=           0
         NMat0=    1 NMatS0=      1 NMatT0=    0 NMatD0=    1 NMtDS0=    0 NMtDT0=    0
 Symmetry not used in FoFCou.
 Harris En= -11436.7686243015    
 JPrj=0 DoOrth=F DoCkMO=F.
 Leave Link  401 at Sat Feb 12 00:52:14 2022, MaxMem=  5242880000 cpu:       113.8
 (Enter /opt/nce/packages/global/g09/l502.exe)
 Closed shell SCF:
 Using DIIS extrapolation, IDIIS=  1040.
 Two-electron integral symmetry not used.
 IVT=     4048436 IEndB=     4048436 NGot=  5242880000 MDV=  5240185697
 LenX=  5240185697 LenY=  5238848205
 Requested convergence on RMS density matrix=1.00D-08 within 128 cycles.
 Requested convergence on MAX density matrix=1.00D-06.
 Requested convergence on             energy=1.00D-06.
 No special actions if energy rises.
 Fock matrices will be formed incrementally for  20 cycles.

 Cycle   1  Pass 1  IDiag  1:
 FoFJK:  IHMeth= 1 ICntrl=       0 DoSepK=F KAlg= 0 I1Cent=   0 FoldK=F
 IRaf= 720000000 NMat=   1 IRICut=       1 DoRegI=T DoRafI=F ISym2E= 0.
 FoFCou: FMM=F IPFlag=           0 FMFlag=      100000 FMFlg1=           0
         NFxFlg=           0 DoJE=F BraDBF=F KetDBF=F FulRan=T
         wScrn=  0.000000 ICntrl=       0 IOpCl=  0 I1Cent=           0 NGrid=           0
         NMat0=    1 NMatS0=      1 NMatT0=    0 NMatD0=    1 NMtDS0=    0 NMtDT0=    0
 Symmetry not used in FoFCou.
 Inv3:  Mode=1 IEnd=    38535168.
 Iteration    1 A*A^-1 deviation from unit magnitude is 6.66D-15 for   3574.
 Iteration    1 A*A^-1 deviation from orthogonality  is 3.21D-15 for   1134     91.
 Iteration    1 A^-1*A deviation from unit magnitude is 6.88D-15 for   3563.
 Iteration    1 A^-1*A deviation from orthogonality  is 6.42D-12 for   1012   1009.
 E= -11438.2025664996    
 DIIS: error= 3.52D-02 at cycle   1 NSaved=   1.
 NSaved= 1 IEnMin= 1 EnMin= -11438.2025664996     IErMin= 1 ErrMin= 3.52D-02
 ErrMax= 3.52D-02  0.00D+00 EMaxC= 1.00D-01 BMatC= 1.74D+00 BMatP= 1.74D+00
 IDIUse=3 WtCom= 6.48D-01 WtEn= 3.52D-01
 Coeff-Com:  0.100D+01
 Coeff-En:   0.100D+01
 Coeff:      0.100D+01
 Gap=     0.171 Goal=   None    Shift=    0.000
 GapD=    0.171 DampG=1.000 DampE=0.500 DampFc=0.5000 IDamp=-1.
 Damping current iteration by 5.00D-01
 RMSDP=1.15D-02 MaxDP=9.75D-01              OVMax= 2.49D-01

 Cycle   2  Pass 1  IDiag  1:
 RMSU=  5.72D-03    CP:  1.05D+00
 E= -11438.5570517025     Delta-E=       -0.354485202948 Rises=F Damp=T
 DIIS: error= 7.27D-03 at cycle   2 NSaved=   2.
 NSaved= 2 IEnMin= 2 EnMin= -11438.5570517025     IErMin= 2 ErrMin= 7.27D-03
 ErrMax= 7.27D-03  0.00D+00 EMaxC= 1.00D-01 BMatC= 1.44D-01 BMatP= 1.74D+00
 IDIUse=3 WtCom= 9.27D-01 WtEn= 7.27D-02
 Coeff-Com: -0.112D+00 0.111D+01
 Coeff-En:   0.000D+00 0.100D+01
 Coeff:     -0.104D+00 0.110D+01
 Gap=     0.254 Goal=   None    Shift=    0.000
 RMSDP=4.29D-03 MaxDP=4.02D-01 DE=-3.54D-01 OVMax= 1.44D-01

 Cycle   3  Pass 1  IDiag  1:
 RMSU=  2.04D-03    CP:  9.85D-01  3.52D-01
 E= -11438.8885801052     Delta-E=       -0.331528402661 Rises=F Damp=F
 DIIS: error= 7.72D-03 at cycle   3 NSaved=   3.
 NSaved= 3 IEnMin= 3 EnMin= -11438.8885801052     IErMin= 2 ErrMin= 7.27D-03
 ErrMax= 7.72D-03  0.00D+00 EMaxC= 1.00D-01 BMatC= 9.28D-02 BMatP= 1.44D-01
 IDIUse=3 WtCom= 9.23D-01 WtEn= 7.72D-02
 Coeff-Com: -0.128D+00 0.536D+00 0.592D+00
 Coeff-En:   0.000D+00 0.000D+00 0.100D+01
 Coeff:     -0.118D+00 0.495D+00 0.623D+00
 Gap=     0.170 Goal=   None    Shift=    0.000
 RMSDP=1.62D-03 MaxDP=1.65D-01 DE=-3.32D-01 OVMax= 9.26D-02

 Cycle   4  Pass 1  IDiag  1:
 RMSU=  6.76D-04    CP:  1.01D+00  6.02D-01  8.59D-01
 E= -11438.9482200493     Delta-E=       -0.059639944127 Rises=F Damp=F
 DIIS: error= 3.58D-03 at cycle   4 NSaved=   4.
 NSaved= 4 IEnMin= 4 EnMin= -11438.9482200493     IErMin= 4 ErrMin= 3.58D-03
 ErrMax= 3.58D-03  0.00D+00 EMaxC= 1.00D-01 BMatC= 1.27D-02 BMatP= 9.28D-02
 IDIUse=3 WtCom= 9.64D-01 WtEn= 3.58D-02
 Coeff-Com: -0.407D-01 0.103D+00 0.315D+00 0.622D+00
 Coeff-En:   0.000D+00 0.000D+00 0.103D+00 0.897D+00
 Coeff:     -0.392D-01 0.994D-01 0.308D+00 0.632D+00
 Gap=     0.176 Goal=   None    Shift=    0.000
 RMSDP=6.87D-04 MaxDP=6.34D-02 DE=-5.96D-02 OVMax= 2.66D-02

 Cycle   5  Pass 1  IDiag  1:
 RMSU=  1.77D-04    CP:  9.98D-01  5.00D-01  9.34D-01  6.05D-01
 E= -11438.9579413899     Delta-E=       -0.009721340622 Rises=F Damp=F
 DIIS: error= 8.15D-04 at cycle   5 NSaved=   5.
 NSaved= 5 IEnMin= 5 EnMin= -11438.9579413899     IErMin= 5 ErrMin= 8.15D-04
 ErrMax= 8.15D-04  0.00D+00 EMaxC= 1.00D-01 BMatC= 6.45D-04 BMatP= 1.27D-02
 IDIUse=3 WtCom= 9.92D-01 WtEn= 8.15D-03
 Coeff-Com: -0.831D-02 0.134D-01 0.103D+00 0.304D+00 0.588D+00
 Coeff-En:   0.000D+00 0.000D+00 0.000D+00 0.000D+00 0.100D+01
 Coeff:     -0.824D-02 0.133D-01 0.102D+00 0.301D+00 0.592D+00
 Gap=     0.174 Goal=   None    Shift=    0.000
 RMSDP=8.24D-05 MaxDP=9.80D-03 DE=-9.72D-03 OVMax= 8.13D-03

 Cycle   6  Pass 1  IDiag  1:
 RMSU=  4.48D-05    CP:  9.99D-01  5.05D-01  9.27D-01  6.88D-01  8.54D-01
 E= -11438.9585046704     Delta-E=       -0.000563280457 Rises=F Damp=F
 DIIS: error= 2.47D-04 at cycle   6 NSaved=   6.
 NSaved= 6 IEnMin= 6 EnMin= -11438.9585046704     IErMin= 6 ErrMin= 2.47D-04
 ErrMax= 2.47D-04  0.00D+00 EMaxC= 1.00D-01 BMatC= 5.78D-05 BMatP= 6.45D-04
 IDIUse=3 WtCom= 9.98D-01 WtEn= 2.47D-03
 Coeff-Com:  0.112D-02-0.524D-02 0.142D-01 0.784D-01 0.288D+00 0.623D+00
 Coeff-En:   0.000D+00 0.000D+00 0.000D+00 0.000D+00 0.000D+00 0.100D+01
 Coeff:      0.111D-02-0.523D-02 0.142D-01 0.782D-01 0.288D+00 0.624D+00
 Gap=     0.174 Goal=   None    Shift=    0.000
 RMSDP=4.33D-05 MaxDP=3.78D-03 DE=-5.63D-04 OVMax= 1.56D-03

 Cycle   7  Pass 1  IDiag  1:
 RMSU=  1.97D-05    CP:  9.98D-01  4.99D-01  9.30D-01  6.81D-01  9.19D-01
                    CP:  1.10D+00
 E= -11438.9585532180     Delta-E=       -0.000048547605 Rises=F Damp=F
 DIIS: error= 4.37D-05 at cycle   7 NSaved=   7.
 NSaved= 7 IEnMin= 7 EnMin= -11438.9585532180     IErMin= 7 ErrMin= 4.37D-05
 ErrMax= 4.37D-05  0.00D+00 EMaxC= 1.00D-01 BMatC= 4.55D-06 BMatP= 5.78D-05
 IDIUse=1 WtCom= 1.00D+00 WtEn= 0.00D+00
 Coeff-Com:  0.118D-02-0.305D-02-0.668D-02-0.122D-01 0.322D-01 0.212D+00
 Coeff-Com:  0.776D+00
 Coeff:      0.118D-02-0.305D-02-0.668D-02-0.122D-01 0.322D-01 0.212D+00
 Coeff:      0.776D+00
 Gap=     0.174 Goal=   None    Shift=    0.000
 RMSDP=1.47D-05 MaxDP=1.20D-03 DE=-4.85D-05 OVMax= 1.05D-03

 Cycle   8  Pass 1  IDiag  1:
 RMSU=  5.60D-06    CP:  9.98D-01  4.97D-01  9.31D-01  6.81D-01  9.36D-01
                    CP:  1.21D+00  1.09D+00
 E= -11438.9585587464     Delta-E=       -0.000005528433 Rises=F Damp=F
 DIIS: error= 3.75D-05 at cycle   8 NSaved=   8.
 NSaved= 8 IEnMin= 8 EnMin= -11438.9585587464     IErMin= 8 ErrMin= 3.75D-05
 ErrMax= 3.75D-05  0.00D+00 EMaxC= 1.00D-01 BMatC= 1.34D-06 BMatP= 4.55D-06
 IDIUse=1 WtCom= 1.00D+00 WtEn= 0.00D+00
 Coeff-Com:  0.319D-03-0.494D-03-0.540D-02-0.207D-01-0.333D-01-0.429D-02
 Coeff-Com:  0.398D+00 0.666D+00
 Coeff:      0.319D-03-0.494D-03-0.540D-02-0.207D-01-0.333D-01-0.429D-02
 Coeff:      0.398D+00 0.666D+00
 Gap=     0.174 Goal=   None    Shift=    0.000
 RMSDP=7.59D-06 MaxDP=7.95D-04 DE=-5.53D-06 OVMax= 4.69D-04

 Cycle   9  Pass 1  IDiag  1:
 RMSU=  3.30D-06    CP:  9.98D-01  4.96D-01  9.31D-01  6.80D-01  9.46D-01
                    CP:  1.24D+00  1.19D+00  8.73D-01
 E= -11438.9585603095     Delta-E=       -0.000001563112 Rises=F Damp=F
 DIIS: error= 1.27D-05 at cycle   9 NSaved=   9.
 NSaved= 9 IEnMin= 9 EnMin= -11438.9585603095     IErMin= 9 ErrMin= 1.27D-05
 ErrMax= 1.27D-05  0.00D+00 EMaxC= 1.00D-01 BMatC= 1.93D-07 BMatP= 1.34D-06
 IDIUse=1 WtCom= 1.00D+00 WtEn= 0.00D+00
 Coeff-Com:  0.325D-04 0.951D-04-0.174D-02-0.875D-02-0.187D-01-0.276D-01
 Coeff-Com:  0.962D-01 0.321D+00 0.640D+00
 Coeff:      0.325D-04 0.951D-04-0.174D-02-0.875D-02-0.187D-01-0.276D-01
 Coeff:      0.962D-01 0.321D+00 0.640D+00
 Gap=     0.174 Goal=   None    Shift=    0.000
 RMSDP=3.10D-06 MaxDP=3.22D-04 DE=-1.56D-06 OVMax= 2.17D-04

 Cycle  10  Pass 1  IDiag  1:
 RMSU=  1.13D-06    CP:  9.98D-01  4.95D-01  9.31D-01  6.78D-01  9.50D-01
                    CP:  1.24D+00  1.22D+00  1.03D+00  8.50D-01
 E= -11438.9585605289     Delta-E=       -0.000000219334 Rises=F Damp=F
 DIIS: error= 5.36D-06 at cycle  10 NSaved=  10.
 NSaved=10 IEnMin=10 EnMin= -11438.9585605289     IErMin=10 ErrMin= 5.36D-06
 ErrMax= 5.36D-06  0.00D+00 EMaxC= 1.00D-01 BMatC= 3.02D-08 BMatP= 1.93D-07
 IDIUse=1 WtCom= 1.00D+00 WtEn= 0.00D+00
 Coeff-Com: -0.634D-04 0.152D-03 0.795D-03 0.172D-02 0.136D-02-0.134D-01
 Coeff-Com: -0.715D-01-0.460D-01 0.260D+00 0.867D+00
 Coeff:     -0.634D-04 0.152D-03 0.795D-03 0.172D-02 0.136D-02-0.134D-01
 Coeff:     -0.715D-01-0.460D-01 0.260D+00 0.867D+00
 Gap=     0.174 Goal=   None    Shift=    0.000
 RMSDP=1.57D-06 MaxDP=1.84D-04 DE=-2.19D-07 OVMax= 1.64D-04

 Cycle  11  Pass 1  IDiag  1:
 RMSU=  3.80D-07    CP:  9.98D-01  4.95D-01  9.31D-01  6.77D-01  9.50D-01
                    CP:  1.24D+00  1.24D+00  1.07D+00  9.75D-01  1.20D+00
 E= -11438.9585605837     Delta-E=       -0.000000054792 Rises=F Damp=F
 DIIS: error= 1.24D-06 at cycle  11 NSaved=  11.
 NSaved=11 IEnMin=11 EnMin= -11438.9585605837     IErMin=11 ErrMin= 1.24D-06
 ErrMax= 1.24D-06  0.00D+00 EMaxC= 1.00D-01 BMatC= 3.28D-09 BMatP= 3.02D-08
 IDIUse=1 WtCom= 1.00D+00 WtEn= 0.00D+00
 Coeff-Com: -0.281D-04 0.527D-04 0.506D-03 0.143D-02 0.233D-02-0.308D-02
 Coeff-Com: -0.357D-01-0.441D-01 0.493D-01 0.361D+00 0.669D+00
 Coeff:     -0.281D-04 0.527D-04 0.506D-03 0.143D-02 0.233D-02-0.308D-02
 Coeff:     -0.357D-01-0.441D-01 0.493D-01 0.361D+00 0.669D+00
 Gap=     0.174 Goal=   None    Shift=    0.000
 RMSDP=2.38D-07 MaxDP=3.08D-05 DE=-5.48D-08 OVMax= 3.84D-05

 Cycle  12  Pass 1  IDiag  1:
 RMSU=  1.22D-07    CP:  9.98D-01  4.95D-01  9.31D-01  6.77D-01  9.50D-01
                    CP:  1.24D+00  1.24D+00  1.08D+00  9.86D-01  1.25D+00
                    CP:  1.12D+00
 E= -11438.9585605878     Delta-E=       -0.000000004125 Rises=F Damp=F
 DIIS: error= 8.75D-07 at cycle  12 NSaved=  12.
 NSaved=12 IEnMin=12 EnMin= -11438.9585605878     IErMin=12 ErrMin= 8.75D-07
 ErrMax= 8.75D-07  0.00D+00 EMaxC= 1.00D-01 BMatC= 5.07D-10 BMatP= 3.28D-09
 IDIUse=1 WtCom= 1.00D+00 WtEn= 0.00D+00
 Coeff-Com:  0.244D-05-0.109D-04 0.776D-04 0.287D-03 0.841D-03 0.115D-02
 Coeff-Com: -0.310D-02-0.114D-01-0.260D-01 0.360D-02 0.275D+00 0.760D+00
 Coeff:      0.244D-05-0.109D-04 0.776D-04 0.287D-03 0.841D-03 0.115D-02
 Coeff:     -0.310D-02-0.114D-01-0.260D-01 0.360D-02 0.275D+00 0.760D+00
 Gap=     0.174 Goal=   None    Shift=    0.000
 RMSDP=1.58D-07 MaxDP=1.60D-05 DE=-4.13D-09 OVMax= 1.32D-05

 Cycle  13  Pass 1  IDiag  1:
 RMSU=  5.21D-08    CP:  9.98D-01  4.95D-01  9.31D-01  6.77D-01  9.50D-01
                    CP:  1.24D+00  1.24D+00  1.09D+00  9.84D-01  1.30D+00
                    CP:  1.22D+00  1.03D+00
 E= -11438.9585605887     Delta-E=       -0.000000000862 Rises=F Damp=F
 DIIS: error= 2.21D-07 at cycle  13 NSaved=  13.
 NSaved=13 IEnMin=13 EnMin= -11438.9585605887     IErMin=13 ErrMin= 2.21D-07
 ErrMax= 2.21D-07  0.00D+00 EMaxC= 1.00D-01 BMatC= 8.06D-11 BMatP= 5.07D-10
 IDIUse=1 WtCom= 1.00D+00 WtEn= 0.00D+00
 Coeff-Com:  0.425D-05-0.106D-04-0.218D-04-0.469D-04 0.104D-03 0.888D-03
 Coeff-Com:  0.293D-02 0.124D-04-0.195D-01-0.438D-01 0.333D-01 0.331D+00
 Coeff-Com:  0.695D+00
 Coeff:      0.425D-05-0.106D-04-0.218D-04-0.469D-04 0.104D-03 0.888D-03
 Coeff:      0.293D-02 0.124D-04-0.195D-01-0.438D-01 0.333D-01 0.331D+00
 Coeff:      0.695D+00
 Gap=     0.174 Goal=   None    Shift=    0.000
 RMSDP=5.69D-08 MaxDP=7.40D-06 DE=-8.62D-10 OVMax= 7.21D-06

 Cycle  14  Pass 1  IDiag  1:
 RMSU=  1.79D-08    CP:  9.98D-01  4.95D-01  9.31D-01  6.77D-01  9.50D-01
                    CP:  1.24D+00  1.24D+00  1.09D+00  9.81D-01  1.32D+00
                    CP:  1.26D+00  1.10D+00  1.11D+00
 E= -11438.9585605887     Delta-E=       -0.000000000076 Rises=F Damp=F
 DIIS: error= 1.43D-07 at cycle  14 NSaved=  14.
 NSaved=14 IEnMin=14 EnMin= -11438.9585605887     IErMin=14 ErrMin= 1.43D-07
 ErrMax= 1.43D-07  0.00D+00 EMaxC= 1.00D-01 BMatC= 1.51D-11 BMatP= 8.06D-11
 IDIUse=1 WtCom= 1.00D+00 WtEn= 0.00D+00
 Coeff-Com:  0.155D-05-0.315D-05-0.225D-04-0.722D-04-0.912D-04 0.204D-03
 Coeff-Com:  0.190D-02 0.207D-02-0.438D-02-0.196D-01-0.348D-01 0.898D-02
 Coeff-Com:  0.342D+00 0.704D+00
 Coeff:      0.155D-05-0.315D-05-0.225D-04-0.722D-04-0.912D-04 0.204D-03
 Coeff:      0.190D-02 0.207D-02-0.438D-02-0.196D-01-0.348D-01 0.898D-02
 Coeff:      0.342D+00 0.704D+00
 Gap=     0.174 Goal=   None    Shift=    0.000
 RMSDP=2.16D-08 MaxDP=3.56D-06 DE=-7.64D-11 OVMax= 2.39D-06

 Cycle  15  Pass 1  IDiag  1:
 RMSU=  7.73D-09    CP:  9.98D-01  4.95D-01  9.31D-01  6.77D-01  9.50D-01
                    CP:  1.24D+00  1.24D+00  1.09D+00  9.81D-01  1.33D+00
                    CP:  1.27D+00  1.13D+00  1.30D+00  1.13D+00
 E= -11438.9585605887     Delta-E=        0.000000000040 Rises=F Damp=F
 DIIS: error= 3.32D-08 at cycle  15 NSaved=  15.
 NSaved=15 IEnMin=14 EnMin= -11438.9585605887     IErMin=15 ErrMin= 3.32D-08
 ErrMax= 3.32D-08  0.00D+00 EMaxC= 1.00D-01 BMatC= 1.39D-12 BMatP= 1.51D-11
 IDIUse=1 WtCom= 1.00D+00 WtEn= 0.00D+00
 Coeff-Com:  0.944D-07 0.805D-07-0.652D-05-0.236D-04-0.523D-04-0.338D-04
 Coeff-Com:  0.381D-03 0.896D-03 0.912D-03-0.155D-02-0.192D-01-0.463D-01
 Coeff-Com:  0.583D-01 0.280D+00 0.727D+00
 Coeff:      0.944D-07 0.805D-07-0.652D-05-0.236D-04-0.523D-04-0.338D-04
 Coeff:      0.381D-03 0.896D-03 0.912D-03-0.155D-02-0.192D-01-0.463D-01
 Coeff:      0.583D-01 0.280D+00 0.727D+00
 Gap=     0.174 Goal=   None    Shift=    0.000
 RMSDP=5.49D-09 MaxDP=5.80D-07 DE= 4.00D-11 OVMax= 6.80D-07

 Error on total polarization charges =  0.01520
 SCF Done:  E(RM062X) =  -11438.9585606     A.U. after   15 cycles
            NFock= 15  Conv=0.55D-08     -V/T= 2.0017
 KE= 1.141952436309D+04 PE=-3.727381963425D+04 EE= 9.449479198019D+03
 SMD-CDS (non-electrostatic) energy       (kcal/mol) =      -9.15
 (included in total energy above)
 Leave Link  502 at Sat Feb 12 01:22:42 2022, MaxMem=  5242880000 cpu:     21870.5
 (Enter /opt/nce/packages/global/g09/l601.exe)
 Copying SCF densities to generalized density rwf, IOpCl= 0 IROHF=0.

 **********************************************************************

            Population analysis using the SCF density.

 **********************************************************************

 Alpha  occ. eigenvalues -- -485.36002-485.35998-485.35856-485.35852 -63.34460
 Alpha  occ. eigenvalues --  -63.34456 -63.34301 -63.34297 -57.16408 -57.16404
 Alpha  occ. eigenvalues --  -57.16258 -57.16254 -57.16175 -57.16171 -57.16162
 Alpha  occ. eigenvalues --  -57.16158 -57.16017 -57.16013 -57.15999 -57.15995
 Alpha  occ. eigenvalues --  -19.70014 -19.56903 -19.56899 -19.54632 -19.54349
 Alpha  occ. eigenvalues --  -10.62805 -10.62800 -10.60921 -10.60919 -10.60862
 Alpha  occ. eigenvalues --  -10.59626 -10.58564 -10.58561 -10.57804 -10.57799
 Alpha  occ. eigenvalues --  -10.55773 -10.55773 -10.55672 -10.55323 -10.55319
 Alpha  occ. eigenvalues --  -10.54563 -10.54371 -10.54110 -10.54030 -10.53786
 Alpha  occ. eigenvalues --   -9.01084  -9.01081  -9.00922  -9.00917  -6.83488
 Alpha  occ. eigenvalues --   -6.83484  -6.83349  -6.83345  -6.82632  -6.82628
 Alpha  occ. eigenvalues --   -6.82584  -6.82581  -6.82465  -6.82461  -6.82399
 Alpha  occ. eigenvalues --   -6.82395  -2.86863  -2.86859  -2.86725  -2.86721
 Alpha  occ. eigenvalues --   -2.86563  -2.86560  -2.86513  -2.86509  -2.86420
 Alpha  occ. eigenvalues --   -2.86416  -2.86352  -2.86349  -2.85714  -2.85713
 Alpha  occ. eigenvalues --   -2.85711  -2.85710  -2.85527  -2.85525  -2.85523
 Alpha  occ. eigenvalues --   -2.85521  -1.24170  -1.12335  -1.10794  -1.10773
 Alpha  occ. eigenvalues --   -1.02937  -0.98488  -0.97392  -0.95519  -0.91279
 Alpha  occ. eigenvalues --   -0.91005  -0.89239  -0.86449  -0.85283  -0.84214
 Alpha  occ. eigenvalues --   -0.82618  -0.82158  -0.79685  -0.79219  -0.73823
 Alpha  occ. eigenvalues --   -0.71954  -0.70366  -0.69303  -0.65976  -0.65682
 Alpha  occ. eigenvalues --   -0.61822  -0.61793  -0.60197  -0.58917  -0.56041
 Alpha  occ. eigenvalues --   -0.55446  -0.55144  -0.52570  -0.52422  -0.51600
 Alpha  occ. eigenvalues --   -0.51297  -0.50020  -0.49541  -0.48478  -0.48351
 Alpha  occ. eigenvalues --   -0.47638  -0.47422  -0.46723  -0.46421  -0.46337
 Alpha  occ. eigenvalues --   -0.46007  -0.43860  -0.43355  -0.42339  -0.41893
 Alpha  occ. eigenvalues --   -0.41378  -0.40886  -0.40232  -0.39237  -0.38765
 Alpha  occ. eigenvalues --   -0.38417  -0.37116  -0.35376  -0.34510  -0.33791
 Alpha  occ. eigenvalues --   -0.33604  -0.33305  -0.32703  -0.31034  -0.31016
 Alpha  occ. eigenvalues --   -0.30780  -0.30635  -0.30188  -0.29985  -0.29623
 Alpha  occ. eigenvalues --   -0.29355  -0.27436  -0.26289  -0.22523
 Alpha virt. eigenvalues --   -0.05083   0.00283   0.01412   0.02513   0.03103
 Alpha virt. eigenvalues --    0.03414   0.03784   0.04462   0.06416   0.07346
 Alpha virt. eigenvalues --    0.08918   0.09990   0.10807   0.10883   0.12212
 Alpha virt. eigenvalues --    0.12685   0.13277   0.13595   0.14385   0.15205
 Alpha virt. eigenvalues --    0.15673   0.16122   0.17928   0.18643   0.18839
 Alpha virt. eigenvalues --    0.19385   0.19439   0.20296   0.21100   0.21368
 Alpha virt. eigenvalues --    0.21905   0.22594   0.23004   0.23308   0.23326
 Alpha virt. eigenvalues --    0.23786   0.24030   0.24329   0.24420   0.24965
 Alpha virt. eigenvalues --    0.25011   0.25549   0.25657   0.25938   0.26237
 Alpha virt. eigenvalues --    0.26514   0.27328   0.27683   0.27822   0.28233
 Alpha virt. eigenvalues --    0.28887   0.29697   0.29807   0.29999   0.30103
 Alpha virt. eigenvalues --    0.30515   0.30577   0.30874   0.30980   0.31743
 Alpha virt. eigenvalues --    0.31996   0.32526   0.32756   0.32842   0.32980
 Alpha virt. eigenvalues --    0.33284   0.34267   0.34692   0.34934   0.35113
 Alpha virt. eigenvalues --    0.35299   0.35353   0.35900   0.36146   0.36275
 Alpha virt. eigenvalues --    0.36294   0.36594   0.36873   0.37138   0.37671
 Alpha virt. eigenvalues --    0.38001   0.38630   0.38705   0.39679   0.39804
 Alpha virt. eigenvalues --    0.40619   0.41044   0.41495   0.41902   0.41926
 Alpha virt. eigenvalues --    0.42721   0.43390   0.43759   0.43808   0.44136
 Alpha virt. eigenvalues --    0.44138   0.44923   0.45202   0.45277   0.45947
 Alpha virt. eigenvalues --    0.47400   0.47695   0.48030   0.48833   0.48989
 Alpha virt. eigenvalues --    0.49226   0.49556   0.49623   0.50191   0.51155
 Alpha virt. eigenvalues --    0.51339   0.52052   0.52455   0.52676   0.53107
 Alpha virt. eigenvalues --    0.53959   0.53989   0.54094   0.54432   0.55427
 Alpha virt. eigenvalues --    0.55896   0.56136   0.56256   0.56548   0.57221
 Alpha virt. eigenvalues --    0.57648   0.58609   0.59121   0.59856   0.60315
 Alpha virt. eigenvalues --    0.60458   0.60775   0.61590   0.61878   0.62461
 Alpha virt. eigenvalues --    0.63008   0.63840   0.64271   0.64700   0.65678
 Alpha virt. eigenvalues --    0.66387   0.66443   0.66890   0.67372   0.68596
 Alpha virt. eigenvalues --    0.68718   0.68836   0.69454   0.70296   0.71019
 Alpha virt. eigenvalues --    0.71321   0.71551   0.72176   0.72215   0.72834
 Alpha virt. eigenvalues --    0.72943   0.73045   0.74010   0.74328   0.74854
 Alpha virt. eigenvalues --    0.75499   0.75663   0.76509   0.76759   0.77001
 Alpha virt. eigenvalues --    0.77779   0.77889   0.78537   0.79238   0.79599
 Alpha virt. eigenvalues --    0.79912   0.80230   0.80322   0.81108   0.82563
 Alpha virt. eigenvalues --    0.82770   0.83926   0.84127   0.84636   0.84790
 Alpha virt. eigenvalues --    0.84871   0.84971   0.85384   0.85648   0.86440
 Alpha virt. eigenvalues --    0.88027   0.88052   0.88470   0.88965   0.89476
 Alpha virt. eigenvalues --    0.90107   0.90795   0.91493   0.91986   0.92193
 Alpha virt. eigenvalues --    0.93394   0.93427   0.94207   0.94372   0.94811
 Alpha virt. eigenvalues --    0.95152   0.96242   0.96700   0.97390   0.98010
 Alpha virt. eigenvalues --    0.98991   0.99121   0.99543   1.00166   1.01299
 Alpha virt. eigenvalues --    1.01354   1.03165   1.03487   1.05341   1.06145
 Alpha virt. eigenvalues --    1.06573   1.07165   1.07687   1.07837   1.08179
 Alpha virt. eigenvalues --    1.08438   1.09521   1.10947   1.11448   1.11888
 Alpha virt. eigenvalues --    1.12537   1.13512   1.14620   1.14718   1.16020
 Alpha virt. eigenvalues --    1.16491   1.16780   1.17200   1.17750   1.17774
 Alpha virt. eigenvalues --    1.18075   1.18707   1.19715   1.20061   1.21183
 Alpha virt. eigenvalues --    1.21517   1.22783   1.23601   1.23838   1.24449
 Alpha virt. eigenvalues --    1.25300   1.26242   1.26398   1.27197   1.27568
 Alpha virt. eigenvalues --    1.28701   1.28726   1.29610   1.31306   1.31807
 Alpha virt. eigenvalues --    1.32808   1.33753   1.34837   1.35170   1.35961
 Alpha virt. eigenvalues --    1.36429   1.36603   1.37617   1.38306   1.38624
 Alpha virt. eigenvalues --    1.39122   1.39946   1.41555   1.41929   1.42590
 Alpha virt. eigenvalues --    1.42815   1.43330   1.43786   1.43868   1.44440
 Alpha virt. eigenvalues --    1.44712   1.45007   1.45708   1.45999   1.46770
 Alpha virt. eigenvalues --    1.47036   1.47300   1.47988   1.49061   1.49243
 Alpha virt. eigenvalues --    1.49435   1.50050   1.50593   1.51911   1.52433
 Alpha virt. eigenvalues --    1.53095   1.53989   1.54373   1.54410   1.54828
 Alpha virt. eigenvalues --    1.55174   1.56065   1.56340   1.57168   1.57556
 Alpha virt. eigenvalues --    1.57846   1.58063   1.58120   1.58377   1.58510
 Alpha virt. eigenvalues --    1.58918   1.59428   1.59499   1.59695   1.59744
 Alpha virt. eigenvalues --    1.60559   1.60736   1.60948   1.61448   1.62248
 Alpha virt. eigenvalues --    1.63346   1.63559   1.63925   1.64900   1.65386
 Alpha virt. eigenvalues --    1.65975   1.66559   1.67049   1.67058   1.67230
 Alpha virt. eigenvalues --    1.67559   1.68132   1.68264   1.68316   1.68618
 Alpha virt. eigenvalues --    1.69317   1.70143   1.70409   1.70750   1.71028
 Alpha virt. eigenvalues --    1.71498   1.72114   1.72376   1.73581   1.73870
 Alpha virt. eigenvalues --    1.74167   1.75312   1.76266   1.77034   1.78023
 Alpha virt. eigenvalues --    1.78491   1.78542   1.78729   1.79149   1.80150
 Alpha virt. eigenvalues --    1.80950   1.81459   1.81823   1.81954   1.82417
 Alpha virt. eigenvalues --    1.82627   1.82843   1.83495   1.83623   1.84734
 Alpha virt. eigenvalues --    1.85135   1.85391   1.85928   1.87445   1.87661
 Alpha virt. eigenvalues --    1.87754   1.87887   1.89725   1.90274   1.90643
 Alpha virt. eigenvalues --    1.90708   1.91018   1.91812   1.92591   1.92657
 Alpha virt. eigenvalues --    1.93295   1.93704   1.94475   1.95267   1.95338
 Alpha virt. eigenvalues --    1.96698   1.97119   1.98065   1.98420   1.98910
 Alpha virt. eigenvalues --    1.99980   2.00679   2.01357   2.02545   2.02834
 Alpha virt. eigenvalues --    2.03214   2.04319   2.04365   2.05175   2.07016
 Alpha virt. eigenvalues --    2.07431   2.09221   2.09526   2.10608   2.12012
 Alpha virt. eigenvalues --    2.12593   2.14418   2.15429   2.15629   2.16877
 Alpha virt. eigenvalues --    2.17159   2.18389   2.19774   2.19803   2.20750
 Alpha virt. eigenvalues --    2.22432   2.22610   2.24105   2.24554   2.25238
 Alpha virt. eigenvalues --    2.25587   2.26473   2.27329   2.29056   2.29282
 Alpha virt. eigenvalues --    2.31073   2.31956   2.32725   2.32872   2.33994
 Alpha virt. eigenvalues --    2.34784   2.36767   2.37805   2.38203   2.40777
 Alpha virt. eigenvalues --    2.41447   2.43676   2.44011   2.45222   2.46591
 Alpha virt. eigenvalues --    2.47234   2.47505   2.47663   2.47896   2.48987
 Alpha virt. eigenvalues --    2.50141   2.52448   2.53382   2.53483   2.53611
 Alpha virt. eigenvalues --    2.55137   2.55503   2.56927   2.58373   2.59394
 Alpha virt. eigenvalues --    2.59976   2.61278   2.61536   2.61923   2.62091
 Alpha virt. eigenvalues --    2.63457   2.63946   2.64952   2.65434   2.65813
 Alpha virt. eigenvalues --    2.66811   2.67555   2.69083   2.69222   2.69401
 Alpha virt. eigenvalues --    2.70231   2.70564   2.70901   2.71590   2.72993
 Alpha virt. eigenvalues --    2.73060   2.73366   2.74798   2.75426   2.76629
 Alpha virt. eigenvalues --    2.77125   2.78266   2.78753   2.79846   2.79868
 Alpha virt. eigenvalues --    2.80271   2.81043   2.81652   2.82310   2.82658
 Alpha virt. eigenvalues --    2.83524   2.84053   2.84804   2.85417   2.85709
 Alpha virt. eigenvalues --    2.85989   2.86857   2.87270   2.88087   2.88626
 Alpha virt. eigenvalues --    2.88971   2.89763   2.90777   2.91934   2.91994
 Alpha virt. eigenvalues --    2.92611   2.93313   2.94071   2.94384   2.95373
 Alpha virt. eigenvalues --    2.96880   2.97414   2.97460   2.98104   2.98892
 Alpha virt. eigenvalues --    3.00122   3.00323   3.00736   3.02276   3.02927
 Alpha virt. eigenvalues --    3.04145   3.05157   3.05554   3.05824   3.06205
 Alpha virt. eigenvalues --    3.06301   3.07134   3.07854   3.08090   3.09215
 Alpha virt. eigenvalues --    3.09321   3.09656   3.10675   3.10820   3.11409
 Alpha virt. eigenvalues --    3.12482   3.14047   3.14825   3.15290   3.15897
 Alpha virt. eigenvalues --    3.16091   3.16669   3.17293   3.17477   3.18343
 Alpha virt. eigenvalues --    3.18705   3.18988   3.20092   3.20413   3.21082
 Alpha virt. eigenvalues --    3.21427   3.21464   3.22386   3.22612   3.24954
 Alpha virt. eigenvalues --    3.25131   3.25150   3.26317   3.27016   3.28003
 Alpha virt. eigenvalues --    3.28084   3.28537   3.29600   3.29999   3.30770
 Alpha virt. eigenvalues --    3.30832   3.31845   3.31926   3.32863   3.33450
 Alpha virt. eigenvalues --    3.34458   3.35584   3.35786   3.36691   3.36866
 Alpha virt. eigenvalues --    3.37367   3.38518   3.38830   3.39394   3.39614
 Alpha virt. eigenvalues --    3.40153   3.40872   3.41128   3.41407   3.42028
 Alpha virt. eigenvalues --    3.43206   3.43377   3.43768   3.44097   3.44487
 Alpha virt. eigenvalues --    3.45014   3.45530   3.46475   3.46664   3.47420
 Alpha virt. eigenvalues --    3.47677   3.47795   3.48700   3.49550   3.50186
 Alpha virt. eigenvalues --    3.50295   3.50585   3.51393   3.53018   3.53224
 Alpha virt. eigenvalues --    3.53678   3.54407   3.54544   3.56747   3.57616
 Alpha virt. eigenvalues --    3.57995   3.58579   3.59046   3.59227   3.61106
 Alpha virt. eigenvalues --    3.61190   3.62366   3.62889   3.63065   3.64671
 Alpha virt. eigenvalues --    3.64845   3.65258   3.66213   3.67453   3.67975
 Alpha virt. eigenvalues --    3.70343   3.71739   3.71859   3.73421   3.73840
 Alpha virt. eigenvalues --    3.73880   3.77402   3.78516   3.79674   3.81672
 Alpha virt. eigenvalues --    3.82461   3.83420   3.83843   3.84062   3.84733
 Alpha virt. eigenvalues --    3.85701   3.86002   3.87122   3.87926   3.88956
 Alpha virt. eigenvalues --    3.90160   3.92039   3.92775   3.95403   3.96569
 Alpha virt. eigenvalues --    3.97991   3.98394   4.00615   4.02862   4.03139
 Alpha virt. eigenvalues --    4.04118   4.04846   4.04912   4.05275   4.06809
 Alpha virt. eigenvalues --    4.07644   4.07989   4.08385   4.08590   4.09781
 Alpha virt. eigenvalues --    4.10801   4.11049   4.12047   4.13804   4.14872
 Alpha virt. eigenvalues --    4.14940   4.15073   4.15416   4.16703   4.17178
 Alpha virt. eigenvalues --    4.17622   4.18284   4.18481   4.19950   4.20171
 Alpha virt. eigenvalues --    4.20627   4.21064   4.21458   4.22118   4.22421
 Alpha virt. eigenvalues --    4.23463   4.24060   4.24440   4.24847   4.25314
 Alpha virt. eigenvalues --    4.26208   4.26488   4.28563   4.31062   4.33885
 Alpha virt. eigenvalues --    4.34394   4.35595   4.35899   4.36862   4.38517
 Alpha virt. eigenvalues --    4.38997   4.39969   4.40261   4.42110   4.42946
 Alpha virt. eigenvalues --    4.44129   4.45129   4.47922   4.48008   4.48978
 Alpha virt. eigenvalues --    4.49078   4.49934   4.51298   4.54905   4.55462
 Alpha virt. eigenvalues --    4.55600   4.56049   4.57019   4.58912   4.61020
 Alpha virt. eigenvalues --    4.62884   4.63444   4.64967   4.66285   4.68673
 Alpha virt. eigenvalues --    4.70145   4.71312   4.72770   4.73972   4.75923
 Alpha virt. eigenvalues --    4.76434   4.76670   4.78336   4.81141   4.82129
 Alpha virt. eigenvalues --    4.85841   4.87161   4.89577   4.90235   4.93499
 Alpha virt. eigenvalues --    4.97023   4.97549   4.98451   5.00659   5.01394
 Alpha virt. eigenvalues --    5.04751   5.08785   5.09681   5.11143   5.14343
 Alpha virt. eigenvalues --    5.14835   5.16515   5.22674   5.23898   5.26299
 Alpha virt. eigenvalues --    5.27218   5.27222   5.27833   5.29355   5.30978
 Alpha virt. eigenvalues --    5.32266   5.34841   5.35645   5.36888   5.39497
 Alpha virt. eigenvalues --    5.40102   5.41145   5.44652   5.47194   5.51520
 Alpha virt. eigenvalues --    5.53406   5.54346   5.58973   5.59091   5.59659
 Alpha virt. eigenvalues --    5.63662   5.69140   5.69639   5.72179   5.74853
 Alpha virt. eigenvalues --    5.76865   5.76948   5.78426   5.81782   5.89945
 Alpha virt. eigenvalues --    5.93829   6.06658   6.07047   6.08931   6.14819
 Alpha virt. eigenvalues --    6.17943   6.22544   6.34593   6.36782   6.38606
 Alpha virt. eigenvalues --    6.41331   6.41991   6.42439   6.42471   6.52416
 Alpha virt. eigenvalues --    6.54596   6.56960   6.61892   6.62439   6.66306
 Alpha virt. eigenvalues --    6.67061   6.68883   6.81880   6.82560   6.83760
 Alpha virt. eigenvalues --    6.83831   6.84631   6.87444   6.88191   6.90570
 Alpha virt. eigenvalues --    7.01134   7.08954   7.09370   7.09927   7.10449
 Alpha virt. eigenvalues --    7.15647   7.24128   7.35179   7.40341   7.44880
 Alpha virt. eigenvalues --    7.86927   7.86991   7.88944   7.91526  22.40718
 Alpha virt. eigenvalues --   22.42434  22.66181  22.70394  22.77548  22.89734
 Alpha virt. eigenvalues --   22.92173  22.93144  22.98047  22.99020  23.05174
 Alpha virt. eigenvalues --   23.10404  23.17070  23.21278  23.21367  23.41500
 Alpha virt. eigenvalues --   23.53696  23.66576  23.71379  23.83131  44.13402
 Alpha virt. eigenvalues --   44.14716  44.15731  44.22303  44.68436
          Condensed to atoms (all electrons):
               1          2          3          4          5          6
     1  C    5.337097  -0.278015   0.224588  -0.285984   0.226343  -0.135303
     2  C   -0.278015   6.687481  -0.179453   0.227609  -0.374011  -0.078362
     3  C    0.224588  -0.179453   5.907647  -0.038626   0.109063  -0.276790
     4  C   -0.285984   0.227609  -0.038626   6.361445   0.042176   0.106180
     5  C    0.226343  -0.374011   0.109063   0.042176   6.181987   0.027806
     6  C   -0.135303  -0.078362  -0.276790   0.106180   0.027806   6.216250
     7  C   -0.011693   0.054359  -0.019084  -0.253351  -0.195721   0.050406
     8  C    0.000727   0.021054  -0.135823   0.150514   0.085332  -0.002692
     9  C    0.005132  -0.003861  -0.081647  -0.136121   0.002898   0.000419
    10  C   -0.001466  -0.021498  -0.003831   0.020602   0.001369  -0.000155
    11  C   -0.000111  -0.001466   0.005096   0.000753  -0.000034   0.000019
    12  C    0.000019  -0.000158   0.000432  -0.002785   0.000091  -0.000033
    13  C   -0.000028   0.001376   0.003058   0.086347  -0.001886   0.000064
    14  H    0.008076  -0.000043   0.000135  -0.003878   0.377358  -0.035189
    15  H    0.000002   0.000005  -0.000010   0.000840   0.000025  -0.000006
    16  O    0.001810  -0.104054   0.352904  -0.042815   0.008167  -0.000596
    17  O   -0.000000  -0.000006   0.000071  -0.000006  -0.000000   0.000000
    18  O    0.936680  -0.236355   0.007280  -0.014507   0.010069  -0.217546
    19  C   -0.002693  -0.000114   0.054309  -0.285451  -0.151769   0.003208
    20  C    0.000148  -0.000272   0.002803   0.000831  -0.009652  -0.001097
    21  C    0.000062   0.000390  -0.001629   0.042874   0.012991   0.001371
    22  C   -0.000011  -0.000005   0.000403   0.005276  -0.002526  -0.000398
    23  H   -0.000001  -0.000036   0.000215  -0.001975  -0.000434   0.000082
    24  C   -0.000024   0.000020  -0.000056   0.002989  -0.001742   0.000101
    25  C    0.000004  -0.000005  -0.000012   0.000156   0.000129  -0.000222
    26  H   -0.000000   0.000000  -0.000002  -0.000092   0.000011   0.000002
    27  H   -0.000000  -0.000000   0.000001   0.000100  -0.000097   0.000000
    28  H    0.000000   0.000000  -0.000000  -0.000014   0.000010  -0.000000
    29  C    0.000003  -0.000307  -0.002625  -0.035996  -0.003006   0.001267
    30  O   -0.000002   0.000001  -0.000071  -0.000646  -0.000509   0.000092
    31  O    0.000629  -0.001207  -0.003123  -0.026788   0.033497  -0.003639
    32  Br  -0.086815   0.436038  -0.184172   0.010876   0.001786   0.013455
    33  Br   0.000087  -0.000253   0.002651  -0.000494   0.000007  -0.000003
    34  Br  -0.000000  -0.000000  -0.000032   0.000143  -0.000000  -0.000000
    35  Br  -0.072467   0.013108   0.002023   0.014380  -0.110243   0.341537
               7          8          9         10         11         12
     1  C   -0.011693   0.000727   0.005132  -0.001466  -0.000111   0.000019
     2  C    0.054359   0.021054  -0.003861  -0.021498  -0.001466  -0.000158
     3  C   -0.019084  -0.135823  -0.081647  -0.003831   0.005096   0.000432
     4  C   -0.253351   0.150514  -0.136121   0.020602   0.000753  -0.002785
     5  C   -0.195721   0.085332   0.002898   0.001369  -0.000034   0.000091
     6  C    0.050406  -0.002692   0.000419  -0.000155   0.000019  -0.000033
     7  C    6.883704  -0.252634  -0.017895   0.053962  -0.011358   0.050463
     8  C   -0.252634   6.355207  -0.034662   0.224460  -0.284734   0.106561
     9  C   -0.017895  -0.034662   5.899228  -0.172136   0.222603  -0.275315
    10  C    0.053962   0.224460  -0.172136   6.680910  -0.275683  -0.079823
    11  C   -0.011358  -0.284734   0.222603  -0.275683   5.336457  -0.135355
    12  C    0.050463   0.106561  -0.275315  -0.079823  -0.135355   6.217515
    13  C   -0.196038   0.044239   0.105238  -0.372152   0.225281   0.026792
    14  H   -0.010613   0.000841  -0.000015   0.000005   0.000002  -0.000006
    15  H   -0.010723  -0.003811   0.000069  -0.000011   0.008096  -0.035100
    16  O   -0.021463  -0.042775   0.352291  -0.103827   0.001779  -0.000571
    17  O   -0.000168  -0.014487   0.007311  -0.236129   0.936761  -0.217698
    18  O   -0.000169  -0.000007   0.000071  -0.000006  -0.000000   0.000000
    19  C   -0.207307  -0.289588   0.055634  -0.000069  -0.002644   0.002662
    20  C   -0.110433   0.002839   0.003107  -0.000283   0.000154  -0.001156
    21  C    0.047250   0.044621  -0.001654   0.000366   0.000066   0.001406
    22  C   -0.017296   0.005030   0.000364  -0.000003  -0.000012  -0.000388
    23  H   -0.002627  -0.001729   0.000302  -0.000039   0.000001   0.000079
    24  C   -0.017708   0.002734  -0.000084   0.000023  -0.000026   0.000128
    25  C    0.004820   0.000313  -0.000002  -0.000005   0.000005  -0.000238
    26  H    0.000060  -0.000096  -0.000002   0.000000  -0.000000   0.000003
    27  H   -0.002716   0.000091   0.000000  -0.000000  -0.000000   0.000000
    28  H    0.000239  -0.000013  -0.000000   0.000000   0.000000  -0.000000
    29  C   -0.120596  -0.035811  -0.002474  -0.000315   0.000009   0.001173
[...]
    22  C   -0.000024   0.000030   0.000310   0.002681  -0.004384  -0.000067
    23  H    0.000012  -0.000104   0.000552   0.000621  -0.000157  -0.000006
    24  C   -0.000037   0.000056  -0.000024  -0.000379  -0.004882   0.000618
    25  C    0.000009  -0.000016   0.000008   0.001453   0.001035  -0.000395
    26  H   -0.000000   0.000001  -0.000002  -0.000127  -0.000013   0.000004
    27  H   -0.000000   0.000000   0.000001   0.000018  -0.000140   0.000009
    28  H    0.000000  -0.000000  -0.000000  -0.000011   0.000016  -0.000001
    29  C    0.000012  -0.000348  -0.002027  -0.020585  -0.000222   0.000270
    30  O   -0.000001   0.000000  -0.000053  -0.000086  -0.000268   0.000043
    31  O    0.000414  -0.001066  -0.005243  -0.001692   0.027548  -0.002927
    32  Br  -0.085011   0.437382  -0.195879   0.012695   0.001404   0.015554
    33  Br   0.000101  -0.000093   0.002805  -0.000615   0.000015  -0.000005
    34  Br  -0.000000  -0.000000  -0.000039   0.000138   0.000001  -0.000000
    35  Br  -0.069427   0.016090   0.001531   0.014838  -0.118166   0.339241
               7          8          9         10         11         12
     1  C   -0.011486  -0.000224   0.005363  -0.001471  -0.000111   0.000020
     2  C    0.057447   0.020058  -0.002090  -0.021982  -0.001431  -0.000214
     3  C    0.017116  -0.174261  -0.080749  -0.002120   0.005747   0.000064
     4  C   -0.322497   0.254291  -0.158353   0.017298  -0.000109  -0.000949
     5  C   -0.250547   0.099972  -0.001648   0.001330  -0.000033  -0.000020
     6  C    0.062231  -0.001345   0.001223  -0.000150   0.000022  -0.000036
     7  C    6.960457  -0.307812   0.023136   0.063425  -0.013696   0.057545
     8  C   -0.307812   6.429639  -0.073343   0.211280  -0.285626   0.077782
     9  C    0.023136  -0.073343   5.907236  -0.158102   0.221303  -0.274064
    10  C    0.063425   0.211280  -0.158102   6.688915  -0.258014  -0.098761
    11  C   -0.013696  -0.285626   0.221303  -0.258014   5.298584  -0.118293
    12  C    0.057545   0.077782  -0.274064  -0.098761  -0.118293   6.205204
    13  C   -0.259488   0.127359   0.117624  -0.372208   0.214236   0.064459
    14  H   -0.012072   0.000536  -0.000082   0.000002   0.000001  -0.000004
    15  H   -0.006977  -0.003471   0.000413  -0.000106   0.008713  -0.036823
    16  O   -0.025815  -0.039150   0.352468  -0.107906   0.001959  -0.000869
    17  O   -0.000246  -0.014582   0.006394  -0.231391   0.945457  -0.215987
    18  O   -0.000196  -0.000006   0.000076  -0.000006  -0.000000   0.000000
    19  C   -0.055290  -0.381394   0.055522   0.001928  -0.003239   0.004358
    20  C   -0.116891  -0.003440   0.000636  -0.000240   0.000133  -0.000485
    21  C   -0.034031   0.023394  -0.002782   0.000952  -0.000213   0.003979
    22  C   -0.011916   0.006219   0.000714  -0.000027   0.000005  -0.000658
    23  H   -0.005553  -0.004307  -0.000273   0.000043  -0.000027   0.000190
    24  C   -0.006554   0.005217   0.000441  -0.000004  -0.000003  -0.000497
    25  C    0.000617  -0.001134  -0.000149   0.000002  -0.000001  -0.000062
    26  H   -0.000015  -0.000077  -0.000000   0.000000  -0.000000   0.000001
    27  H   -0.002407   0.000103   0.000006  -0.000000   0.000000  -0.000010
    28  H    0.000214  -0.000016  -0.000001   0.000000  -0.000000   0.000000
    29  C   -0.101797  -0.040743  -0.003040  -0.000169  -0.000079   0.002117
    30  O   -0.005736  -0.001417  -0.000128   0.000005  -0.000006   0.000191
    31  O   -0.007583   0.002065   0.000784  -0.001308   0.000586  -0.003265
    32  Br  -0.003650  -0.000589   0.002776  -0.000122   0.000101  -0.000005
    33  Br  -0.003746   0.011923  -0.195258   0.436491  -0.084336   0.015599
    34  Br  -0.004979   0.015976   0.002126   0.015575  -0.068847   0.339775
    35  Br  -0.004577   0.000156  -0.000038  -0.000000  -0.000000  -0.000000
              13         14         15         16         17         18
     1  C   -0.000060   0.008303   0.000002   0.002039  -0.000000   0.941918
     2  C    0.001840  -0.000404   0.000004  -0.107650  -0.000006  -0.230555
     3  C    0.002455   0.002130   0.000006   0.352417   0.000076   0.006259
     4  C    0.086706   0.001317   0.001006  -0.040926  -0.000005  -0.014023
     5  C   -0.000476   0.379932   0.000057   0.009266  -0.000000   0.008165
     6  C    0.000091  -0.039412  -0.000009  -0.000793   0.000000  -0.213648
     7  C   -0.259488  -0.012072  -0.006977  -0.025815  -0.000246  -0.000196
     8  C    0.127359   0.000536  -0.003471  -0.039150  -0.014582  -0.000006
     9  C    0.117624  -0.000082   0.000413   0.352468   0.006394   0.000076
    10  C   -0.372208   0.000002  -0.000106  -0.107906  -0.231391  -0.000006
    11  C    0.214236   0.000001   0.008713   0.001959   0.945457  -0.000000
    12  C    0.064459  -0.000004  -0.036823  -0.000869  -0.215987   0.000000
    13  C    6.173027   0.000053   0.380028   0.009202   0.008600  -0.000000
    14  H    0.000053   0.420221   0.000020  -0.000087  -0.000000   0.000316
    15  H    0.380028   0.000020   0.419413  -0.000078   0.000349  -0.000000
    16  O    0.009202  -0.000087  -0.000078   7.831861   0.000017   0.000015
    17  O    0.008600  -0.000000   0.000349   0.000017   7.929285  -0.000000
    18  O   -0.000000   0.000316  -0.000000   0.000015  -0.000000   7.929784
    19  C   -0.159187   0.020309   0.021362  -0.005436  -0.000033  -0.000031
    20  C   -0.008212  -0.002073  -0.003796   0.000128   0.000000   0.000001
    21  C    0.002014  -0.005162  -0.008686   0.000335   0.000002   0.000001
    22  C   -0.000713   0.000284   0.001056  -0.000004  -0.000000  -0.000000
    23  H   -0.000896   0.000067  -0.000099   0.000006   0.000000  -0.000000
    24  C    0.000668   0.000004   0.001089   0.000005   0.000000   0.000000
    25  C   -0.000537   0.000397  -0.000164   0.000000   0.000000   0.000000
    26  H    0.000021  -0.000002   0.000002  -0.000000  -0.000000  -0.000000
    27  H   -0.000052   0.000005   0.000053   0.000000  -0.000000  -0.000000
    28  H    0.000004  -0.000001  -0.000004  -0.000000   0.000000   0.000000
    29  C   -0.005343  -0.000414  -0.000948   0.000059  -0.000001  -0.000000
    30  O   -0.000631  -0.000035  -0.000036   0.000000   0.000000  -0.000000
    31  O    0.025071   0.000029  -0.000047  -0.000095  -0.000000  -0.000000
    32  Br   0.000014   0.000059   0.000000  -0.002513   0.000000  -0.002053
    33  Br   0.001487   0.000000   0.000060  -0.002358  -0.001950   0.000000
    34  Br  -0.119842   0.000000   0.000396   0.000013  -0.003007  -0.000000
    35  Br   0.000000   0.000136   0.000000   0.000012  -0.000000  -0.003044
              19         20         21         22         23         24
     1  C   -0.002056   0.000144   0.000228  -0.000024   0.000012  -0.000037
     2  C   -0.000822  -0.000280  -0.000224   0.000030  -0.000104   0.000056
     3  C    0.076739   0.002904  -0.001112   0.000310   0.000552  -0.000024
     4  C   -0.342453   0.021989   0.042275   0.002681   0.000621  -0.000379
     5  C   -0.161925  -0.008437   0.015953  -0.004384  -0.000157  -0.004882
     6  C   -0.002069  -0.001615  -0.000563  -0.000067  -0.000006   0.000618
     7  C   -0.055290  -0.116891  -0.034031  -0.011916  -0.005553  -0.006554
     8  C   -0.381394  -0.003440   0.023394   0.006219  -0.004307   0.005217
     9  C    0.055522   0.000636  -0.002782   0.000714  -0.000273   0.000441
    10  C    0.001928  -0.000240   0.000952  -0.000027   0.000043  -0.000004
    11  C   -0.003239   0.000133  -0.000213   0.000005  -0.000027  -0.000003
    12  C    0.004358  -0.000485   0.003979  -0.000658   0.000190  -0.000497
    13  C   -0.159187  -0.008212   0.002014  -0.000713  -0.000896   0.000668
    14  H    0.020309  -0.002073  -0.005162   0.000284   0.000067   0.000004
    15  H    0.021362  -0.003796  -0.008686   0.001056  -0.000099   0.001089
    16  O   -0.005436   0.000128   0.000335  -0.000004   0.000006   0.000005
    17  O   -0.000033   0.000000   0.000002  -0.000000   0.000000   0.000000
    18  O   -0.000031   0.000001   0.000001  -0.000000  -0.000000   0.000000
    19  C    7.262530   0.255323  -0.147973   0.100184  -0.061641   0.146324
    20  C    0.255323   5.250460   0.165818   0.386571   0.440882  -0.189139
    21  C   -0.147973   0.165818   6.996435  -0.212426   0.027137  -0.033832
    22  C    0.100184   0.386571  -0.212426   5.098432  -0.048026   0.075841
    23  H   -0.061641   0.440882   0.027137  -0.048026   0.461640  -0.006713
    24  C    0.146324  -0.189139  -0.033832   0.075841  -0.006713   5.528785
    25  C   -0.172114   0.035364   0.114533   0.382366   0.009680   0.304142
    26  H    0.010999  -0.042814  -0.003994   0.430954  -0.004289   0.008271
    27  H    0.016665  -0.005434  -0.090377   0.012136   0.000007   0.438379
    28  H   -0.002988   0.007533   0.013144  -0.042202  -0.000112  -0.040542
    29  C   -0.096412   0.051633  -0.195633  -0.017607   0.002063  -0.091205
    30  O   -0.015578   0.002318  -0.373324  -0.000198   0.000031   0.036070
    31  O   -0.100783   0.010780  -0.259374  -0.001593   0.000210   0.007859
    32  Br  -0.000021   0.000001   0.000001   0.000000   0.000000   0.000000
    33  Br  -0.000040   0.000001   0.000004   0.000000   0.000000   0.000000
    34  Br  -0.000414   0.000246   0.000166  -0.000025   0.000003   0.000011
    35  Br  -0.000524   0.000296   0.000232  -0.000005  -0.000001  -0.000010
              25         26         27         28         29         30
     1  C    0.000009  -0.000000  -0.000000   0.000000   0.000012  -0.000001
     2  C   -0.000016   0.000001   0.000000  -0.000000  -0.000348   0.000000
     3  C    0.000008  -0.000002   0.000001  -0.000000  -0.002027  -0.000053
     4  C    0.001453  -0.000127   0.000018  -0.000011  -0.020585  -0.000086
     5  C    0.001035  -0.000013  -0.000140   0.000016  -0.000222  -0.000268
     6  C   -0.000395   0.000004   0.000009  -0.000001   0.000270   0.000043
     7  C    0.000617  -0.000015  -0.002407   0.000214  -0.101797  -0.005736
     8  C   -0.001134  -0.000077   0.000103  -0.000016  -0.040743  -0.001417
     9  C   -0.000149  -0.000000   0.000006  -0.000001  -0.003040  -0.000128
    10  C    0.000002   0.000000  -0.000000   0.000000  -0.000169   0.000005
    11  C   -0.000001  -0.000000   0.000000  -0.000000  -0.000079  -0.000006
    12  C   -0.000062   0.000001  -0.000010   0.000000   0.002117   0.000191
    13  C   -0.000537   0.000021  -0.000052   0.000004  -0.005343  -0.000631
    14  H    0.000397  -0.000002   0.000005  -0.000001  -0.000414  -0.000035
    15  H   -0.000164   0.000002   0.000053  -0.000004  -0.000948  -0.000036
    16  O    0.000000  -0.000000   0.000000  -0.000000   0.000059   0.000000
    17  O    0.000000  -0.000000  -0.000000   0.000000  -0.000001   0.000000
    18  O    0.000000  -0.000000  -0.000000   0.000000  -0.000000  -0.000000
    19  C   -0.172114   0.010999   0.016665  -0.002988  -0.096412  -0.015578
    20  C    0.035364  -0.042814  -0.005434   0.007533   0.051633   0.002318
    21  C    0.114533  -0.003994  -0.090377   0.013144  -0.195633  -0.373324
    22  C    0.382366   0.430954   0.012136  -0.042202  -0.017607  -0.000198
    23  H    0.009680  -0.004289   0.000007  -0.000112   0.002063   0.000031
    24  C    0.304142   0.008271   0.438379  -0.040542  -0.091205   0.036070
    25  C    5.123330  -0.041428  -0.032870   0.426984   0.035067   0.007501
    26  H   -0.041428   0.463937  -0.000048  -0.004090  -0.000036   0.000000
    27  H   -0.032870  -0.000048   0.466027  -0.005327  -0.001228   0.030958
    28  H    0.426984  -0.004090  -0.005327   0.467162  -0.000051  -0.000214
    29  C    0.035067  -0.000036  -0.001228  -0.000051   4.663988   0.811271
    30  O    0.007501   0.000000   0.030958  -0.000214   0.811271   8.153554
    31  O    0.001526  -0.000004   0.001078   0.000007   0.737181  -0.106477
    32  Br   0.000000  -0.000000  -0.000000   0.000000   0.000000  -0.000000
    33  Br   0.000000  -0.000000  -0.000000   0.000000  -0.000001  -0.000000
    34  Br   0.000012  -0.000000  -0.000000   0.000000   0.000099  -0.000004
    35  Br   0.000010  -0.000000  -0.000000   0.000000   0.000007  -0.000000
              31         32         33         34         35
     1  C    0.000414  -0.085011   0.000101  -0.000000  -0.069427
     2  C   -0.001066   0.437382  -0.000093  -0.000000   0.016090
     3  C   -0.005243  -0.195879   0.002805  -0.000039   0.001531
     4  C   -0.001692   0.012695  -0.000615   0.000138   0.014838
     5  C    0.027548   0.001404   0.000015   0.000001  -0.118166
     6  C   -0.002927   0.015554  -0.000005  -0.000000   0.339241
     7  C   -0.007583  -0.003650  -0.003746  -0.004979  -0.004577
     8  C    0.002065  -0.000589   0.011923   0.015976   0.000156
     9  C    0.000784   0.002776  -0.195258   0.002126  -0.000038
    10  C   -0.001308  -0.000122   0.436491   0.015575  -0.000000
    11  C    0.000586   0.000101  -0.084336  -0.068847  -0.000000
    12  C   -0.003265  -0.000005   0.015599   0.339775  -0.000000
    13  C    0.025071   0.000014   0.001487  -0.119842   0.000000
    14  H    0.000029   0.000059   0.000000   0.000000   0.000136
    15  H   -0.000047   0.000000   0.000060   0.000396   0.000000
    16  O   -0.000095  -0.002513  -0.002358   0.000013   0.000012
    17  O   -0.000000   0.000000  -0.001950  -0.003007  -0.000000
    18  O   -0.000000  -0.002053   0.000000  -0.000000  -0.003044
    19  C   -0.100783  -0.000021  -0.000040  -0.000414  -0.000524
    20  C    0.010780   0.000001   0.000001   0.000246   0.000296
    21  C   -0.259374   0.000001   0.000004   0.000166   0.000232
    22  C   -0.001593   0.000000   0.000000  -0.000025  -0.000005
    23  H    0.000210   0.000000   0.000000   0.000003  -0.000001
    24  C    0.007859   0.000000   0.000000   0.000011  -0.000010
    25  C    0.001526   0.000000   0.000000   0.000012   0.000010
    26  H   -0.000004  -0.000000  -0.000000  -0.000000  -0.000000
    27  H    0.001078  -0.000000  -0.000000  -0.000000  -0.000000
    28  H    0.000007   0.000000   0.000000   0.000000   0.000000
    29  C    0.737181   0.000000  -0.000001   0.000099   0.000007
    30  O   -0.106477  -0.000000  -0.000000  -0.000004  -0.000000
    31  O    8.204906  -0.000001  -0.000002  -0.000003   0.000001
    32  Br  -0.000001  34.935625  -0.000675  -0.000000  -0.000620
    33  Br  -0.000002  -0.000675  34.935798  -0.000621  -0.000000
    34  Br  -0.000003  -0.000000  -0.000621  34.946362  -0.000000
    35  Br   0.000001  -0.000620  -0.000000  -0.000000  34.947425
 Mulliken charges:
               1
     1  C    0.144815
     2  C   -0.192009
     3  C    0.270349
     4  C    0.034439
     5  C   -0.269248
     6  C   -0.024522
     7  C    0.333372
     8  C    0.046966
     9  C    0.251858
    10  C   -0.183158
    11  C    0.137217
    12  C   -0.020284
    13  C   -0.287313
    14  H    0.225628
    15  H    0.227218
    16  O   -0.226123
    17  O   -0.422973
    18  O   -0.422974
    19  C   -0.259818
    20  C   -0.250306
    21  C   -0.036895
    22  C   -0.157910
    23  H    0.189060
    24  C   -0.179961
    25  C   -0.195168
    26  H    0.182750
    27  H    0.172450
    28  H    0.180493
    29  C    0.274121
    30  O   -0.537750
    31  O   -0.528581
    32  Br  -0.114474
    33  Br  -0.114587
    34  Br  -0.123117
    35  Br  -0.123564
 Sum of Mulliken charges =  -2.00000
 Mulliken charges with hydrogens summed into heavy atoms:
               1
     1  C    0.144815
     2  C   -0.192009
     3  C    0.270349
     4  C    0.034439
     5  C   -0.043620
     6  C   -0.024522
     7  C    0.333372
     8  C    0.046966
     9  C    0.251858
    10  C   -0.183158
    11  C    0.137217
    12  C   -0.020284
    13  C   -0.060095
    16  O   -0.226123
    17  O   -0.422973
    18  O   -0.422974
    19  C   -0.259818
    20  C   -0.061247
    21  C   -0.036895
    22  C    0.024840
    24  C   -0.007510
    25  C   -0.014675
    29  C    0.274121
    30  O   -0.537750
    31  O   -0.528581
    32  Br  -0.114474
    33  Br  -0.114587
    34  Br  -0.123117
    35  Br  -0.123564
 Electronic spatial extent (au):  <R**2>=          20279.9887
 Charge=             -2.0000 electrons
 Dipole moment (field-independent basis, Debye):
    X=             -1.1925    Y=              0.2035    Z=            -12.5496  Tot=             12.6078
 Quadrupole moment (field-independent basis, Debye-Ang):
   XX=           -348.7099   YY=           -280.9345   ZZ=           -251.0609
   XY=             -3.8201   XZ=             -3.3524   YZ=            -40.5349
 Traceless Quadrupole moment (field-independent basis, Debye-Ang):
   XX=            -55.1414   YY=             12.6339   ZZ=             42.5075
   XY=             -3.8201   XZ=             -3.3524   YZ=            -40.5349
 Octapole moment (field-independent basis, Debye-Ang**2):
  XXX=             12.3089  YYY=           -193.9596  ZZZ=           -121.0848  XYY=            -29.5476
  XXY=            101.2382  XXZ=             12.2328  XZZ=            -18.6853  YZZ=           -153.4389
  YYZ=           -149.4430  XYZ=            -18.0659
 Hexadecapole moment (field-independent basis, Debye-Ang**3):
 XXXX=         -15040.9605 YYYY=          -9209.0975 ZZZZ=          -1553.4110 XXXY=              1.5560
 XXXZ=              4.4465 YYYX=            -75.0886 YYYZ=           -644.1130 ZZZX=            -52.6336
 ZZZY=           -422.2791 XXYY=          -4018.2190 XXZZ=          -2269.4481 YYZZ=          -2063.3350
 XXYZ=             -2.8493 YYXZ=            -69.9360 ZZXY=            -70.7386
 N-N= 4.991298795689D+03 E-N=-3.732570593728D+04  KE= 1.142042704470D+04
 Leave Link  601 at Sun Feb 13 06:19:28 2022, MaxMem=  5242880000 cpu:         5.7
 (Enter /opt/nce/packages/global/g09/l9999.exe)
 1\1\GINC-CN069\SP\RM062X TD-FC\Gen\C20H6Br4O5(2-)\PNG4RJV\13-Feb-2022\
 0\\#p m062x chkbasis geom=allcheck Guess=Read int=ultrafine scrf=(SMD,
 solvent=Acetonitrile) td=(NStates=30)\\Title\\-2,1\C,0,-5.0372627635,-
 2.3710820111,1.4690401017\C,0,-3.6793210995,-1.9799837485,1.1639951749
 \C,0,-3.3780642673,-0.9682869645,0.2886031192\C,0,-4.3904683883,-0.234
 8067978,-0.3830506709\C,0,-5.7399001882,-0.5801965149,-0.1055237712\C,
 0,-6.040774694,-1.5767450153,0.7581080476\C,0,-4.0210378132,0.79629630
 62,-1.2531293584\C,0,-2.6645330304,1.0538579043,-1.4780290297\C,0,-1.6
 913729083,0.2912945946,-0.7819290378\C,0,-0.3475943117,0.5067120614,-0
 .9518845735\C,0,0.1752039801,1.5188794468,-1.8419340136\C,0,-0.8703648
 299,2.2808686335,-2.5268341907\C,0,-2.1946730118,2.063853566,-2.358648
 0402\H,0,-6.5274701627,-0.0252058478,-0.5984137261\H,0,-2.9204358491,2
 .6624013663,-2.8935823214\O,0,-2.0745186472,-0.6821350515,0.0743264547
 \O,0,1.377653698,1.7240243422,-2.0144634022\O,0,-5.3286919955,-3.28036
 12527,2.2473677259\C,0,-5.0572043194,1.4992600714,-2.0613118583\C,0,-5
 .4694814394,0.8539855492,-3.2287284469\C,0,-5.5995286738,2.7419715449,
 -1.723254445\C,0,-6.4165918692,1.4305363827,-4.0614478483\H,0,-5.03844
 447,-0.107904478,-3.4821121139\C,0,-6.5467369781,3.3081540705,-2.57444
 74474\C,0,-6.9595082413,2.666051695,-3.7317298898\H,0,-6.7261125614,0.
 9162453105,-4.9627185506\H,0,-6.9535374809,4.2722118168,-2.2990117933\
 H,0,-7.7000221201,3.125248701,-4.3749853541\C,0,-5.1917426987,3.494533
 9929,-0.4464057292\O,0,-5.6474042169,4.6476137131,-0.3197934172\O,0,-4
 .4494911332,2.8742667987,0.3415933619\Br,0,-2.2928537524,-2.9285937257
 ,2.0216982624\Br,0,0.9024122987,-0.5453638852,-0.0093269803\Br,0,-0.27
 98972481,3.636374947,-3.7128223458\Br,0,-7.8533038136,-2.0135425218,1.
 1014911073\\Version=ES64L-G09RevE.01\State=1-A\HF=-11438.9671213\RMSD=
 6.583e-09\PG=C01 [X(C20H6Br4O5)]\\@


 THE FIRST MORNING OF CREATION WROTE WHAT THE LAST DAWN OF
 RECKONING SHALL READ. -- OMAR KHAYYAM
 Job cpu time:       2 days 17 hours 41 minutes 34.1 seconds.
 File lengths (MBytes):  RWF=   5895 Int=      0 D2E=      0 Chk=    955 Scr=      1
 Normal termination of Gaussian 09 at Sun Feb 13 06:19:30 2022.
