 Entering Gaussian System, Link 0=g09
 Input=/home/png4rjv/fotokatalizis/benchmark/OPCs/Eos_Y_M06L_def2TZVP.gjf
 Output=/home/png4rjv/fotokatalizis/benchmark/OPCs/Eos_Y_M06L_def2TZVP.log
 Initial command:
 /opt/nce/packages/global/g09/l1.exe "/home/png4rjv/fotokatalizis/benchmark/OPCs/Eos_Y_M06L_def2TZVP/Gau-22513.inp" -scrdir="/home/png4rjv/fotokatalizis/benchmark/OPCs/Eos_Y_M06L_def2TZVP/"
 Default is to use a total of  12 processors:
                               12 via shared-memory
                                1 via Linda
 Entering Link 1 = /opt/nce/packages/global/g09/l1.exe PID=     22516.
  
 Copyright (c) 1988,1990,1992,1993,1995,1998,2003,2009,2015,
            Gaussian, Inc.  All Rights Reserved.
  
 This is part of the Gaussian(R) 09 program.  It is based on
 the Gaussian(R) 03 system (copyright 2003, Gaussian, Inc.),
 the Gaussian(R) 98 system (copyright 1998, Gaussian, Inc.),
 the Gaussian(R) 94 system (copyright 1995, Gaussian, Inc.),
 the Gaussian 92(TM) system (copyright 1992, Gaussian, Inc.),
 the Gaussian 90(TM) system (copyright 1990, Gaussian, Inc.),
 the Gaussian 88(TM) system (copyright 1988, Gaussian, Inc.),
 the Gaussian 86(TM) system (copyright 1986, Carnegie Mellon
 University), and the Gaussian 82(TM) system (copyright 1983,
 Carnegie Mellon University). Gaussian is a federally registered
 trademark of Gaussian, Inc.
  
 This software contains proprietary and confidential information,
 including trade secrets, belonging to Gaussian, Inc.
  
 This software is provided under written license and may be
 used, copied, transmitted, or stored only in accord with that
 written license.
  
 The following legend is applicable only to US Government
 contracts under FAR:
  
                    RESTRICTED RIGHTS LEGEND
  
 Use, reproduction and disclosure by the US Government is
 subject to restrictions as set forth in subparagraphs (a)
 and (c) of the Commercial Computer Software - Restricted
 Rights clause in FAR 52.227-19.
  
 Gaussian, Inc.
 340 Quinnipiac St., Bldg. 40, Wallingford CT 06492
  
  
 ---------------------------------------------------------------
 Warning -- This program may not be used in any manner that
 competes with the business of Gaussian, Inc. or will provide
 assistance to any competitor of Gaussian, Inc.  The licensee
 of this program is prohibited from giving any competitor of
 Gaussian, Inc. access to this program.  By using this program,
 the user acknowledges that Gaussian, Inc. is engaged in the
 business of creating and licensing software in the field of
 computational chemistry and represents and warrants to the
 licensee that it is not a competitor of Gaussian, Inc. and that
 it will not use this program in any manner prohibited above.
 ---------------------------------------------------------------
  

 Cite this work as:
 Gaussian 09, Revision E.01,
 M. J. Frisch, G. W. Trucks, H. B. Schlegel, G. E. Scuseria, 
 M. A. Robb, J. R. Cheeseman, G. Scalmani, V. Barone, B. Mennucci, 
 G. A. Petersson, H. Nakatsuji, M. Caricato, X. Li, H. P. Hratchian, 
 A. F. Izmaylov, J. Bloino, G. Zheng, J. L. Sonnenberg, M. Hada, 
 M. Ehara, K. Toyota, R. Fukuda, J. Hasegawa, M. Ishida, T. Nakajima, 
 Y. Honda, O. Kitao, H. Nakai, T. Vreven, J. A. Montgomery, Jr., 
 J. E. Peralta, F. Ogliaro, M. Bearpark, J. J. Heyd, E. Brothers, 
 K. N. Kudin, V. N. Staroverov, T. Keith, R. Kobayashi, J. Normand, 
 K. Raghavachari, A. Rendell, J. C. Burant, S. S. Iyengar, J. Tomasi, 
 M. Cossi, N. Rega, J. M. Millam, M. Klene, J. E. Knox, J. B. Cross, 
 V. Bakken, C. Adamo, J. Jaramillo, R. Gomperts, R. E. Stratmann, 
 O. Yazyev, A. J. Austin, R. Cammi, C. Pomelli, J. W. Ochterski, 
 R. L. Martin, K. Morokuma, V. G. Zakrzewski, G. A. Voth, 
 P. Salvador, J. J. Dannenberg, S. Dapprich, A. D. Daniels, 
 O. Farkas, J. B. Foresman, J. V. Ortiz, J. Cioslowski, 
 and D. J. Fox, Gaussian, Inc., Wallingford CT, 2013.
 
 ******************************************
 Gaussian 09:  ES64L-G09RevE.01 30-Nov-2015
                12-Feb-2022 
 ******************************************
 %chk=cp.chk
 Default route:  MaxDisk=500GB
 ----------------------------------------------------------------------
 #p m06l/def2TZVP opt freq=noraman nosymm int=ultrafine scrf=(SMD,solve
 nt=Acetonitrile)
 ----------------------------------------------------------------------
 1/14=-1,18=20,19=15,26=4,38=1/1,3;
 2/9=110,12=2,15=1,17=6,18=5,40=1/2;
 3/5=44,7=101,11=2,16=1,25=1,30=1,70=32201,71=1,72=2,74=-53,75=-5/1,2,3;
 4//1;
 5/5=2,38=5,53=2/2;
 6/7=2,8=2,9=2,10=2,28=1/1;
 7/30=1/1,2,3,16;
 1/14=-1,18=20,19=15,26=4/3(2);
 2/9=110,15=1/2;
 99//99;
 2/9=110,15=1/2;
 3/5=44,7=101,11=2,16=1,25=1,30=1,70=32205,71=1,72=2,74=-53,75=-5/1,2,3;
 4/5=5,16=3,69=1/1;
 5/5=2,38=5,53=2/2;
 7/30=1/1,2,3,16;
 1/14=-1,18=20,19=15,26=4/3(-5);
 2/9=110,15=1/2;
 6/7=2,8=2,9=2,10=2,19=2,28=1/1;
 99/9=1/99;
 Leave Link    1 at Sat Feb 12 02:29:56 2022, MaxMem=           0 cpu:         0.9
 (Enter /opt/nce/packages/global/g09/l101.exe)
 -----
 Title
 -----
 Symbolic Z-matrix:
 Charge = -2 Multiplicity = 1
 C                    -5.05215  -2.32081   1.50778 
 C                    -3.70021  -1.93846   1.20194 
 C                    -3.37787  -0.92916   0.31539 
 C                    -4.39089  -0.19756  -0.3626 
 C                    -5.74108  -0.53738  -0.09423 
 C                    -6.04093  -1.53576   0.78707 
 C                    -4.01955   0.84188  -1.2404 
 C                    -2.64896   1.06062  -1.49012 
 C                    -1.68291   0.2979   -0.77865 
 C                    -0.33039   0.50475  -0.96957 
 C                     0.19914   1.48028  -1.88353 
 C                    -0.83577   2.22499  -2.5818 
 C                    -2.17579   2.03648  -2.40368 
 H                    -6.53906   0.02356  -0.60861 
 H                    -2.91229   2.6386   -2.96139 
 O                    -2.06058  -0.65933   0.11083 
 O                     1.43305   1.67022  -2.06542 
 O                    -5.35203  -3.24338   2.31457 
 C                    -5.04453   1.5098   -2.08094 
 C                    -5.39268   0.91225  -3.29986 
 C                    -5.66596   2.70743  -1.69653 
 C                    -6.34908   1.50141  -4.12682 
 H                    -4.90185  -0.0293   -3.6007 
 C                    -6.62311   3.2886   -2.53224 
 C                    -6.96782   2.69389  -3.74324 
 H                    -6.61291   1.02131  -5.08374 
 H                    -7.08663   4.23011  -2.19101 
 H                    -7.7241    3.15999  -4.39663 
 C                    -5.29443   3.35931  -0.38487 
 O                    -5.87482   4.4384   -0.07157 
 O                    -4.41424   2.75328   0.29923 
 Br                   -2.29595  -2.9093    2.08413 
 Br                    0.93836  -0.5528    0.01275 
 Br                   -0.20975   3.55333  -3.83527 
 Br                   -7.88531  -1.98472   1.14043 
 
 NAtoms=     35 NQM=       35 NQMF=       0 NMMI=      0 NMMIF=      0
                NMic=       0 NMicF=      0.
                    Isotopes and Nuclear Properties:
 (Nuclear quadrupole moments (NQMom) in fm**2, nuclear magnetic moments (NMagM)
  in nuclear magnetons)

  Atom         1           2           3           4           5           6           7           8           9          10
 IAtWgt=          12          12          12          12          12          12          12          12          12          12
 AtmWgt=  12.0000000  12.0000000  12.0000000  12.0000000  12.0000000  12.0000000  12.0000000  12.0000000  12.0000000  12.0000000
 NucSpn=           0           0           0           0           0           0           0           0           0           0
 AtZEff=   0.0000000   0.0000000   0.0000000   0.0000000   0.0000000   0.0000000   0.0000000   0.0000000   0.0000000   0.0000000
 NQMom=    0.0000000   0.0000000   0.0000000   0.0000000   0.0000000   0.0000000   0.0000000   0.0000000   0.0000000   0.0000000
 NMagM=    0.0000000   0.0000000   0.0000000   0.0000000   0.0000000   0.0000000   0.0000000   0.0000000   0.0000000   0.0000000
 AtZNuc=   6.0000000   6.0000000   6.0000000   6.0000000   6.0000000   6.0000000   6.0000000   6.0000000   6.0000000   6.0000000

  Atom        11          12          13          14          15          16          17          18          19          20
 IAtWgt=          12          12          12           1           1          16          16          16          12          12
 AtmWgt=  12.0000000  12.0000000  12.0000000   1.0078250   1.0078250  15.9949146  15.9949146  15.9949146  12.0000000  12.0000000
 NucSpn=           0           0           0           1           1           0           0           0           0           0
 AtZEff=   0.0000000   0.0000000   0.0000000   0.0000000   0.0000000   0.0000000   0.0000000   0.0000000   0.0000000   0.0000000
 NQMom=    0.0000000   0.0000000   0.0000000   0.0000000   0.0000000   0.0000000   0.0000000   0.0000000   0.0000000   0.0000000
 NMagM=    0.0000000   0.0000000   0.0000000   2.7928460   2.7928460   0.0000000   0.0000000   0.0000000   0.0000000   0.0000000
 AtZNuc=   6.0000000   6.0000000   6.0000000   1.0000000   1.0000000   8.0000000   8.0000000   8.0000000   6.0000000   6.0000000

  Atom        21          22          23          24          25          26          27          28          29          30
 IAtWgt=          12          12           1          12          12           1           1           1          12          16
 AtmWgt=  12.0000000  12.0000000   1.0078250  12.0000000  12.0000000   1.0078250   1.0078250   1.0078250  12.0000000  15.9949146
 NucSpn=           0           0           1           0           0           1           1           1           0           0
 AtZEff=   0.0000000   0.0000000   0.0000000   0.0000000   0.0000000   0.0000000   0.0000000   0.0000000   0.0000000   0.0000000
 NQMom=    0.0000000   0.0000000   0.0000000   0.0000000   0.0000000   0.0000000   0.0000000   0.0000000   0.0000000   0.0000000
 NMagM=    0.0000000   0.0000000   2.7928460   0.0000000   0.0000000   2.7928460   2.7928460   2.7928460   0.0000000   0.0000000
 AtZNuc=   6.0000000   6.0000000   1.0000000   6.0000000   6.0000000   1.0000000   1.0000000   1.0000000   6.0000000   8.0000000

  Atom        31          32          33          34          35
 IAtWgt=          16          79          79          79          79
 AtmWgt=  15.9949146  78.9183361  78.9183361  78.9183361  78.9183361
 NucSpn=           0           3           3           3           3
 AtZEff=   0.0000000   0.0000000   0.0000000   0.0000000   0.0000000
 NQMom=    0.0000000  31.3000000  31.3000000  31.3000000  31.3000000
 NMagM=    0.0000000   2.1063990   2.1063990   2.1063990   2.1063990
 AtZNuc=   8.0000000  35.0000000  35.0000000  35.0000000  35.0000000
 Leave Link  101 at Sat Feb 12 02:29:56 2022, MaxMem=  5242880000 cpu:         4.1
 (Enter /opt/nce/packages/global/g09/l103.exe)

 GradGradGradGradGradGradGradGradGradGradGradGradGradGradGradGradGradGrad
 Berny optimization.
 Initialization pass.
                           ----------------------------
                           !    Initial Parameters    !
                           ! (Angstroms and Degrees)  !
 --------------------------                            --------------------------
 ! Name  Definition              Value          Derivative Info.                !
 --------------------------------------------------------------------------------
 ! R1    R(1,2)                  1.4379         estimate D2E/DX2                !
 ! R2    R(1,6)                  1.4538         estimate D2E/DX2                !
 ! R3    R(1,18)                 1.2617         estimate D2E/DX2                !
 ! R4    R(2,3)                  1.3815         estimate D2E/DX2                !
 ! R5    R(2,32)                 1.9216         estimate D2E/DX2                !
 ! R6    R(3,4)                  1.4217         estimate D2E/DX2                !
 ! R7    R(3,16)                 1.3601         estimate D2E/DX2                !
 ! R8    R(4,5)                  1.4179         estimate D2E/DX2                !
 ! R9    R(4,7)                  1.4103         estimate D2E/DX2                !
 ! R10   R(5,6)                  1.365          estimate D2E/DX2                !
 ! R11   R(5,14)                 1.1027         estimate D2E/DX2                !
 ! R12   R(6,35)                 1.9308         estimate D2E/DX2                !
 ! R13   R(7,8)                  1.4102         estimate D2E/DX2                !
 ! R14   R(7,19)                 1.4843         estimate D2E/DX2                !
 ! R15   R(8,9)                  1.4217         estimate D2E/DX2                !
 ! R16   R(8,13)                 1.418          estimate D2E/DX2                !
 ! R17   R(9,10)                 1.3815         estimate D2E/DX2                !
 ! R18   R(9,16)                 1.3602         estimate D2E/DX2                !
 ! R19   R(10,11)                1.4378         estimate D2E/DX2                !
 ! R20   R(10,33)                1.9217         estimate D2E/DX2                !
 ! R21   R(11,12)                1.4537         estimate D2E/DX2                !
 ! R22   R(11,17)                1.2616         estimate D2E/DX2                !
 ! R23   R(12,13)                1.3649         estimate D2E/DX2                !
 ! R24   R(12,34)                1.9307         estimate D2E/DX2                !
 ! R25   R(13,15)                1.1027         estimate D2E/DX2                !
 ! R26   R(19,20)                1.4014         estimate D2E/DX2                !
 ! R27   R(19,21)                1.403          estimate D2E/DX2                !
 ! R28   R(20,22)                1.3949         estimate D2E/DX2                !
 ! R29   R(20,23)                1.1036         estimate D2E/DX2                !
 ! R30   R(21,24)                1.3972         estimate D2E/DX2                !
 ! R31   R(21,29)                1.5111         estimate D2E/DX2                !
 ! R32   R(22,25)                1.3971         estimate D2E/DX2                !
 ! R33   R(22,26)                1.1026         estimate D2E/DX2                !
 ! R34   R(24,25)                1.3925         estimate D2E/DX2                !
 ! R35   R(24,27)                1.1035         estimate D2E/DX2                !
 ! R36   R(25,28)                1.1028         estimate D2E/DX2                !
 ! R37   R(29,30)                1.2647         estimate D2E/DX2                !
 ! R38   R(29,31)                1.2689         estimate D2E/DX2                !
 ! A1    A(2,1,6)              112.9833         estimate D2E/DX2                !
 ! A2    A(2,1,18)             123.6354         estimate D2E/DX2                !
 ! A3    A(6,1,18)             123.3811         estimate D2E/DX2                !
 ! A4    A(1,2,3)              123.377          estimate D2E/DX2                !
 ! A5    A(1,2,32)             117.0712         estimate D2E/DX2                !
 ! A6    A(3,2,32)             119.5511         estimate D2E/DX2                !
 ! A7    A(2,3,4)              121.0476         estimate D2E/DX2                !
 ! A8    A(2,3,16)             117.8676         estimate D2E/DX2                !
 ! A9    A(4,3,16)             121.0847         estimate D2E/DX2                !
 ! A10   A(3,4,5)              117.7054         estimate D2E/DX2                !
 ! A11   A(3,4,7)              119.2429         estimate D2E/DX2                !
 ! A12   A(5,4,7)              123.0368         estimate D2E/DX2                !
 ! A13   A(4,5,6)              120.4407         estimate D2E/DX2                !
 ! A14   A(4,5,14)             118.6119         estimate D2E/DX2                !
 ! A15   A(6,5,14)             120.9469         estimate D2E/DX2                !
 ! A16   A(1,6,5)              124.4457         estimate D2E/DX2                !
 ! A17   A(1,6,35)             115.6839         estimate D2E/DX2                !
 ! A18   A(5,6,35)             119.8704         estimate D2E/DX2                !
 ! A19   A(4,7,8)              118.715          estimate D2E/DX2                !
 ! A20   A(4,7,19)             120.153          estimate D2E/DX2                !
 ! A21   A(8,7,19)             120.07           estimate D2E/DX2                !
 ! A22   A(7,8,9)              119.247          estimate D2E/DX2                !
 ! A23   A(7,8,13)             123.0336         estimate D2E/DX2                !
 ! A24   A(9,8,13)             117.7025         estimate D2E/DX2                !
 ! A25   A(8,9,10)             121.0485         estimate D2E/DX2                !
 ! A26   A(8,9,16)             121.074          estimate D2E/DX2                !
 ! A27   A(10,9,16)            117.8775         estimate D2E/DX2                !
 ! A28   A(9,10,11)            123.366          estimate D2E/DX2                !
 ! A29   A(9,10,33)            119.559          estimate D2E/DX2                !
 ! A30   A(11,10,33)           117.0743         estimate D2E/DX2                !
 ! A31   A(10,11,12)           112.9988         estimate D2E/DX2                !
 ! A32   A(10,11,17)           123.6403         estimate D2E/DX2                !
 ! A33   A(12,11,17)           123.3607         estimate D2E/DX2                !
 ! A34   A(11,12,13)           124.4382         estimate D2E/DX2                !
 ! A35   A(11,12,34)           115.6883         estimate D2E/DX2                !
 ! A36   A(13,12,34)           119.8734         estimate D2E/DX2                !
 ! A37   A(8,13,12)            120.4457         estimate D2E/DX2                !
 ! A38   A(8,13,15)            118.6028         estimate D2E/DX2                !
 ! A39   A(12,13,15)           120.9512         estimate D2E/DX2                !
 ! A40   A(3,16,9)             120.4569         estimate D2E/DX2                !
 ! A41   A(7,19,20)            118.1776         estimate D2E/DX2                !
 ! A42   A(7,19,21)            122.3334         estimate D2E/DX2                !
 ! A43   A(20,19,21)           119.489          estimate D2E/DX2                !
 ! A44   A(19,20,22)           120.3898         estimate D2E/DX2                !
 ! A45   A(19,20,23)           119.3656         estimate D2E/DX2                !
 ! A46   A(22,20,23)           120.2446         estimate D2E/DX2                !
 ! A47   A(19,21,24)           119.6444         estimate D2E/DX2                !
 ! A48   A(19,21,29)           119.814          estimate D2E/DX2                !
 ! A49   A(24,21,29)           120.5415         estimate D2E/DX2                !
 ! A50   A(20,22,25)           120.0922         estimate D2E/DX2                !
 ! A51   A(20,22,26)           119.6474         estimate D2E/DX2                !
 ! A52   A(25,22,26)           120.2603         estimate D2E/DX2                !
 ! A53   A(21,24,25)           120.8036         estimate D2E/DX2                !
 ! A54   A(21,24,27)           117.2366         estimate D2E/DX2                !
 ! A55   A(25,24,27)           121.9598         estimate D2E/DX2                !
 ! A56   A(22,25,24)           119.5811         estimate D2E/DX2                !
 ! A57   A(22,25,28)           120.1189         estimate D2E/DX2                !
 ! A58   A(24,25,28)           120.3001         estimate D2E/DX2                !
 ! A59   A(21,29,30)           118.0528         estimate D2E/DX2                !
 ! A60   A(21,29,31)           115.6261         estimate D2E/DX2                !
 ! A61   A(30,29,31)           126.3211         estimate D2E/DX2                !
 ! D1    D(6,1,2,3)              0.0288         estimate D2E/DX2                !
 ! D2    D(6,1,2,32)          -179.6607         estimate D2E/DX2                !
 ! D3    D(18,1,2,3)           179.8598         estimate D2E/DX2                !
 ! D4    D(18,1,2,32)            0.1703         estimate D2E/DX2                !
 ! D5    D(2,1,6,5)              0.1188         estimate D2E/DX2                !
 ! D6    D(2,1,6,35)          -179.9863         estimate D2E/DX2                !
 ! D7    D(18,1,6,5)          -179.7127         estimate D2E/DX2                !
 ! D8    D(18,1,6,35)            0.1823         estimate D2E/DX2                !
 ! D9    D(1,2,3,4)             -0.1745         estimate D2E/DX2                !
 ! D10   D(1,2,3,16)           179.9138         estimate D2E/DX2                !
 ! D11   D(32,2,3,4)           179.5077         estimate D2E/DX2                !
 ! D12   D(32,2,3,16)           -0.404          estimate D2E/DX2                !
 ! D13   D(2,3,4,5)              0.1741         estimate D2E/DX2                !
 ! D14   D(2,3,4,7)            178.813          estimate D2E/DX2                !
 ! D15   D(16,3,4,5)          -179.917          estimate D2E/DX2                !
 ! D16   D(16,3,4,7)            -1.2781         estimate D2E/DX2                !
 ! D17   D(2,3,16,9)           178.1509         estimate D2E/DX2                !
 ! D18   D(4,3,16,9)            -1.7608         estimate D2E/DX2                !
 ! D19   D(3,4,5,6)             -0.0326         estimate D2E/DX2                !
 ! D20   D(3,4,5,14)           179.7349         estimate D2E/DX2                !
 ! D21   D(7,4,5,6)           -178.6159         estimate D2E/DX2                !
 ! D22   D(7,4,5,14)             1.1516         estimate D2E/DX2                !
 ! D23   D(3,4,7,8)              4.4239         estimate D2E/DX2                !
 ! D24   D(3,4,7,19)           172.6504         estimate D2E/DX2                !
 ! D25   D(5,4,7,8)           -177.0136         estimate D2E/DX2                !
 ! D26   D(5,4,7,19)            -8.7871         estimate D2E/DX2                !
 ! D27   D(4,5,6,1)             -0.1177         estimate D2E/DX2                !
 ! D28   D(4,5,6,35)           179.9915         estimate D2E/DX2                !
 ! D29   D(14,5,6,1)          -179.8797         estimate D2E/DX2                !
 ! D30   D(14,5,6,35)            0.2295         estimate D2E/DX2                !
 ! D31   D(4,7,8,9)             -4.6167         estimate D2E/DX2                !
 ! D32   D(4,7,8,13)           176.9109         estimate D2E/DX2                !
 ! D33   D(19,7,8,9)          -172.8532         estimate D2E/DX2                !
 ! D34   D(19,7,8,13)            8.6744         estimate D2E/DX2                !
 ! D35   D(4,7,19,20)          -84.3157         estimate D2E/DX2                !
 ! D36   D(4,7,19,21)           95.7615         estimate D2E/DX2                !
 ! D37   D(8,7,19,20)           83.7506         estimate D2E/DX2                !
 ! D38   D(8,7,19,21)          -96.1722         estimate D2E/DX2                !
 ! D39   D(7,8,9,10)          -178.3726         estimate D2E/DX2                !
 ! D40   D(7,8,9,16)             1.6787         estimate D2E/DX2                !
 ! D41   D(13,8,9,10)            0.181          estimate D2E/DX2                !
 ! D42   D(13,8,9,16)         -179.7677         estimate D2E/DX2                !
 ! D43   D(7,8,13,12)          178.4682         estimate D2E/DX2                !
 ! D44   D(7,8,13,15)           -1.3324         estimate D2E/DX2                !
 ! D45   D(9,8,13,12)           -0.0263         estimate D2E/DX2                !
 ! D46   D(9,8,13,15)         -179.827          estimate D2E/DX2                !
 ! D47   D(8,9,10,11)           -0.2166         estimate D2E/DX2                !
 ! D48   D(8,9,10,33)         -179.8976         estimate D2E/DX2                !
 ! D49   D(16,9,10,11)         179.7337         estimate D2E/DX2                !
 ! D50   D(16,9,10,33)           0.0527         estimate D2E/DX2                !
 ! D51   D(8,9,16,3)             1.5591         estimate D2E/DX2                !
 ! D52   D(10,9,16,3)         -178.3912         estimate D2E/DX2                !
 ! D53   D(9,10,11,12)           0.0869         estimate D2E/DX2                !
 ! D54   D(9,10,11,17)        -179.7389         estimate D2E/DX2                !
 ! D55   D(33,10,11,12)        179.7753         estimate D2E/DX2                !
 ! D56   D(33,10,11,17)         -0.0505         estimate D2E/DX2                !
 ! D57   D(10,11,12,13)          0.0738         estimate D2E/DX2                !
 ! D58   D(10,11,12,34)       -179.7855         estimate D2E/DX2                !
 ! D59   D(17,11,12,13)        179.9001         estimate D2E/DX2                !
 ! D60   D(17,11,12,34)          0.0408         estimate D2E/DX2                !
 ! D61   D(11,12,13,8)          -0.1027         estimate D2E/DX2                !
 ! D62   D(11,12,13,15)        179.6933         estimate D2E/DX2                !
 ! D63   D(34,12,13,8)         179.7511         estimate D2E/DX2                !
 ! D64   D(34,12,13,15)         -0.453          estimate D2E/DX2                !
 ! D65   D(7,19,20,22)        -179.9102         estimate D2E/DX2                !
 ! D66   D(7,19,20,23)           0.0154         estimate D2E/DX2                !
 ! D67   D(21,19,20,22)          0.0149         estimate D2E/DX2                !
 ! D68   D(21,19,20,23)        179.9405         estimate D2E/DX2                !
 ! D69   D(7,19,21,24)         179.9389         estimate D2E/DX2                !
 ! D70   D(7,19,21,29)           0.0265         estimate D2E/DX2                !
 ! D71   D(20,19,21,24)          0.0171         estimate D2E/DX2                !
 ! D72   D(20,19,21,29)       -179.8954         estimate D2E/DX2                !
 ! D73   D(19,20,22,25)         -0.0324         estimate D2E/DX2                !
 ! D74   D(19,20,22,26)        179.935          estimate D2E/DX2                !
 ! D75   D(23,20,22,25)       -179.9573         estimate D2E/DX2                !
 ! D76   D(23,20,22,26)          0.01           estimate D2E/DX2                !
 ! D77   D(19,21,24,25)         -0.032          estimate D2E/DX2                !
 ! D78   D(19,21,24,27)        179.9994         estimate D2E/DX2                !
 ! D79   D(29,21,24,25)        179.8797         estimate D2E/DX2                !
 ! D80   D(29,21,24,27)         -0.0888         estimate D2E/DX2                !
 ! D81   D(19,21,29,30)        179.97           estimate D2E/DX2                !
 ! D82   D(19,21,29,31)          0.0008         estimate D2E/DX2                !
 ! D83   D(24,21,29,30)          0.0584         estimate D2E/DX2                !
 ! D84   D(24,21,29,31)       -179.9108         estimate D2E/DX2                !
 ! D85   D(20,22,25,24)          0.0175         estimate D2E/DX2                !
 ! D86   D(20,22,25,28)       -179.9915         estimate D2E/DX2                !
 ! D87   D(26,22,25,24)       -179.9496         estimate D2E/DX2                !
 ! D88   D(26,22,25,28)          0.0414         estimate D2E/DX2                !
 ! D89   D(21,24,25,22)          0.0147         estimate D2E/DX2                !
 ! D90   D(21,24,25,28)       -179.9763         estimate D2E/DX2                !
 ! D91   D(27,24,25,22)        179.9818         estimate D2E/DX2                !
 ! D92   D(27,24,25,28)         -0.0092         estimate D2E/DX2                !
 --------------------------------------------------------------------------------
 Trust Radius=3.00D-01 FncErr=1.00D-07 GrdErr=1.00D-06
 Number of steps in this run=    201 maximum allowed number of steps=    210.
 GradGradGradGradGradGradGradGradGradGradGradGradGradGradGradGradGradGrad

 Leave Link  103 at Sat Feb 12 02:29:56 2022, MaxMem=  5242880000 cpu:         0.2
 (Enter /opt/nce/packages/global/g09/l202.exe)
                          Input orientation:                          
 ---------------------------------------------------------------------
 Center     Atomic      Atomic             Coordinates (Angstroms)
 Number     Number       Type             X           Y           Z
 ---------------------------------------------------------------------
      1          6           0       -5.052153   -2.320807    1.507777
      2          6           0       -3.700210   -1.938461    1.201937
      3          6           0       -3.377874   -0.929158    0.315392
      4          6           0       -4.390886   -0.197557   -0.362596
      5          6           0       -5.741081   -0.537380   -0.094230
      6          6           0       -6.040930   -1.535757    0.787073
      7          6           0       -4.019552    0.841877   -1.240402
      8          6           0       -2.648956    1.060620   -1.490122
      9          6           0       -1.682911    0.297895   -0.778646
     10          6           0       -0.330386    0.504747   -0.969566
     11          6           0        0.199144    1.480283   -1.883534
     12          6           0       -0.835770    2.224989   -2.581797
     13          6           0       -2.175791    2.036482   -2.403680
     14          1           0       -6.539062    0.023564   -0.608609
     15          1           0       -2.912291    2.638598   -2.961387
     16          8           0       -2.060582   -0.659327    0.110831
     17          8           0        1.433047    1.670221   -2.065425
     18          8           0       -5.352028   -3.243376    2.314573
     19          6           0       -5.044528    1.509797   -2.080938
     20          6           0       -5.392678    0.912246   -3.299863
     21          6           0       -5.665964    2.707429   -1.696532
     22          6           0       -6.349075    1.501411   -4.126822
     23          1           0       -4.901852   -0.029299   -3.600698
     24          6           0       -6.623111    3.288596   -2.532240
     25          6           0       -6.967819    2.693892   -3.743243
     26          1           0       -6.612914    1.021309   -5.083737
     27          1           0       -7.086631    4.230106   -2.191009
     28          1           0       -7.724100    3.159988   -4.396626
     29          6           0       -5.294425    3.359314   -0.384873
     30          8           0       -5.874817    4.438404   -0.071567
     31          8           0       -4.414236    2.753275    0.299228
     32         35           0       -2.295953   -2.909301    2.084126
     33         35           0        0.938360   -0.552799    0.012752
     34         35           0       -0.209750    3.553334   -3.835271
     35         35           0       -7.885310   -1.984720    1.140429
 ---------------------------------------------------------------------
                    Distance matrix (angstroms):
                    1          2          3          4          5
     1  C    0.000000
     2  C    1.437872   0.000000
     3  C    2.482273   1.381505   0.000000
     4  C    2.905815   2.440398   1.421654   0.000000
     5  C    2.494326   2.794321   2.430232   1.417930   0.000000
     6  C    1.453753   2.411069   2.771698   2.415608   1.365050
     7  C    4.315243   3.714469   2.443115   1.410268   2.485905
     8  C    5.118281   4.164949   2.783957   2.426653   3.750114
     9  C    4.841190   3.604649   2.361245   2.784187   4.199387
    10  C    6.034573   4.694721   3.604772   4.165250   5.579235
    11  C    7.316105   6.034311   4.841047   5.118279   6.523714
    12  C    7.427433   6.313159   4.980426   4.840706   6.154734
    13  C    6.523720   5.578934   4.199211   3.750147   4.966852
    14  H    3.490854   3.897012   3.428493   2.173494   1.102732
    15  H    7.010573   6.237271   4.866511   4.121132   5.129277
    16  O    3.696143   2.348420   1.360115   2.422330   3.688224
    17  O    8.411534   7.074501   5.964061   6.348733   7.760620
    18  O    1.261736   2.381022   3.640002   4.167498   3.643639
    19  C    5.249044   4.947216   3.803766   2.508985   2.936516
    20  C    5.803619   5.590812   4.529931   3.295874   3.535376
    21  C    5.993957   5.818041   4.744255   3.441533   3.619641
    22  C    6.931094   6.873491   5.871028   4.570601   4.559399
    23  H    5.600903   5.306048   4.297443   3.282484   3.641122
    24  C    7.089080   7.057588   6.035729   4.673697   4.621684
    25  C    7.509340   7.522684   6.518183   5.140996   5.026062
    26  H    7.553395   7.533511   6.589416   5.358378   5.299508
    27  H    7.793239   7.812244   6.830441   5.496757   5.379211
    28  H    8.487661   8.574951   7.603546   6.217461   6.009451
    29  C    5.992044   5.755511   4.749161   3.669906   3.932963
    30  O    6.989852   6.856758   5.932553   4.876360   4.977633
    31  O    5.254887   4.830849   3.825522   3.024230   3.569837
    32  Br   2.876655   1.921647   2.867044   4.210552   4.715946
    33  Br   6.422398   4.985033   4.343169   5.354246   6.680315
    34  Br   9.300675   8.229009   6.881697   6.603829   7.831025
    35  Br   2.876574   4.185808   4.702327   4.202860   2.866513
                    6          7          8          9         10
     6  C    0.000000
     7  C    3.721528   0.000000
     8  C    4.840690   1.410228   0.000000
     9  C    4.980571   2.443159   1.421686   0.000000
    10  C    6.313458   3.714425   2.440439   1.381507   0.000000
    11  C    7.427460   4.314925   2.905609   2.482126   1.437849
    12  C    7.251633   3.721399   2.415606   2.771767   2.411210
    13  C    6.154762   2.485911   1.418020   2.430299   2.794354
    14  H    2.151173   2.723367   4.121344   4.866865   6.237747
    15  H    6.423751   2.723238   2.173472   3.428502   3.897038
    16  O    4.131417   2.813718   2.422282   1.360176   2.348596
    17  O    8.618316   5.576527   4.167174   3.639818   2.380952
    18  O    2.392447   5.576973   6.348755   5.964145   7.074665
    19  C    4.300431   1.484316   2.507905   3.803306   4.946555
    20  C    4.807910   2.476248   3.290165   4.527288   5.587767
    21  C    4.930874   2.529627   3.443388   4.744795   5.817962
    22  C    5.784955   3.767371   4.564796   5.867863   6.869223
    23  H    4.776971   2.666158   3.273835   4.293322   5.301543
    24  C    5.884824   3.799184   4.673735   6.035309   7.056214
    25  C    6.266803   4.287943   5.137773   6.516125   7.519385
    26  H    6.429009   4.639930   5.350568   6.584988   7.527509
    27  H    6.573252   4.668053   5.498167   6.830611   7.811342
    28  H    7.194013   5.390646   6.213871   7.601139   8.571001
    29  C    5.088462   2.948681   3.674789   4.750829   5.756049
    30  O    6.037835   4.212267   4.881383   5.934295   6.857170
    31  O    4.613017   2.485896   3.030358   3.827642   4.831516
    32  Br   4.194499   5.300435   5.353516   4.342510   4.984397
    33  Br   7.090576   5.300604   4.210770   2.867238   1.921736
    34  Br   9.014853   5.347891   4.202746   4.702238   4.185774
    35  Br   1.930846   5.348092   6.604036   6.882073   8.229605
                   11         12         13         14         15
    11  C    0.000000
    12  C    1.453687   0.000000
    13  C    2.494038   1.364887   0.000000
    14  H    7.010769   6.423962   5.129547   0.000000
    15  H    3.490629   2.151070   1.102730   5.052468   0.000000
    16  O    3.696185   4.131548   3.688282   4.587016   4.586964
    17  O    1.261617   2.392057   3.643113   8.269723   4.541196
    18  O    8.411455   8.618239   7.760625   4.541689   8.269564
    19  C    5.247469   4.298372   2.934487   2.571045   2.568232
    20  C    5.796303   4.796282   3.523551   3.057254   3.040917
    21  C    5.995027   4.934290   3.623746   3.024733   3.031058
    22  C    6.921847   5.771239   4.546627   3.820726   3.803014
    23  H    5.589960   4.759516   3.623770   3.411136   3.388915
    24  C    7.087593   5.884474   4.622010   3.790495   3.791682
    25  C    7.503114   6.258662   5.018979   4.140098   4.130577
    26  H    7.540298   6.409676   5.282172   4.585599   4.562302
    27  H    7.793496   6.576205   5.382710   4.527562   4.533376
    28  H    8.480262   7.184491   6.001486   5.058710   5.048293
    29  C    5.996336   5.098311   3.943519   3.567409   3.582236
    30  O    6.994763   6.049170   4.989065   4.496715   4.512973
    31  O    5.260060   4.624371   3.581918   3.576363   3.591740
    32  Br   6.421548   7.089704   6.679492   5.818633   7.524378
    33  Br   2.876763   4.194679   4.716085   7.525299   5.818765
    34  Br   2.876458   1.930699   2.866289   7.932894   2.983981
    35  Br   9.301021   9.015133   7.831308   2.984078   7.932899
                   16         17         18         19         20
    16  O    0.000000
    17  O    4.729517   0.000000
    18  O    4.729419   9.453310   0.000000
    19  C    4.291024   6.479580   6.481337   0.000000
    20  C    5.020512   6.977742   6.985180   1.401447   0.000000
    21  C    5.253607   7.183860   7.183286   1.402952   2.422403
    22  C    6.404503   8.052284   8.062176   2.426428   1.394873
    23  H    4.716482   6.736199   6.747102   2.167682   1.103594
    24  C    6.587002   8.230355   8.232491   2.420687   2.783927
    25  C    7.083709   8.627718   8.634759   2.804351   2.419074
    26  H    7.108572   8.617934   8.632054   3.422756   2.164042
    27  H    7.380121   8.896836   8.897306   3.403290   3.886802
    28  H    8.184117   9.565942   9.574445   3.907128   3.419176
    29  C    5.181982   7.136958   7.133431   2.521864   3.807225
    30  O    6.369342   8.064935   8.060814   3.647422   4.805012
    31  O    4.149823   6.399633   6.395381   2.758386   4.159350
    32  Br   3.001945   7.217772   3.082906   6.665647   7.292549
    33  Br   3.002436   3.083075   7.218488   6.665792   7.293958
    34  Br   6.061667   3.062230  10.509942   5.534330   5.841639
    35  Br   6.061699  10.510370   3.062735   5.537048   5.858483
                   21         22         23         24         25
    21  C    0.000000
    22  C    2.797754   0.000000
    23  H    3.420438   2.171252   0.000000
    24  C    1.397245   2.410771   3.887514   0.000000
    25  C    2.425703   1.397136   3.421156   1.392489   0.000000
    26  H    3.900368   1.102631   2.496180   3.413331   2.172652
    27  H    2.140408   3.425951   4.990292   1.103508   2.187121
    28  H    3.425090   2.171259   4.332452   2.169021   1.102776
    29  C    1.511107   4.308860   4.688106   2.526181   3.810733
    30  O    2.383360   5.029507   5.775967   2.817253   4.209416
    31  O    2.356265   4.990059   4.815590   3.630828   4.781829
    32  Br   7.562936   8.628908   6.884936   8.857147   9.337041
    33  Br   7.560941   8.629169   6.887608   8.854894   9.335747
    34  Br   5.921151   6.479715   5.908139   6.549746   6.813120
    35  Br   5.915244   6.500543   5.933210   6.549008   6.825061
                   26         27         28         29         30
    26  H    0.000000
    27  H    4.346109   0.000000
    28  H    2.506153   2.533035   0.000000
    29  C    5.411470   2.689314   4.694381   0.000000
    30  O    6.110906   2.450289   4.874457   1.264694   0.000000
    31  O    6.067141   3.940051   5.759484   1.268862   2.260629
    32  Br   9.244680   9.602005  10.406786   7.374437   8.452458
    33  Br   9.245202   9.598605  10.405076   7.369555   8.446218
    34  Br   6.997880   7.103035   7.545548   6.147911   6.858703
    35  Br   7.028189   7.096508   7.559959   6.131715   6.838680
                   31         32         33         34         35
    31  O    0.000000
    32  Br   6.303789   0.000000
    33  Br   6.297815   4.506048   0.000000
    34  Br   5.950788   9.008727   5.743324   0.000000
    35  Br   5.933344   5.743372   9.009950  10.693075   0.000000
 Symmetry turned off by external request.
 Stoichiometry    C20H6Br4O5(2-)
 Framework group  C1[X(C20H6Br4O5)]
 Deg. of freedom    99
 Full point group                 C1      NOp   1
 Rotational constants (GHZ):      0.1054773      0.0679215      0.0443189
 Leave Link  202 at Sat Feb 12 02:29:56 2022, MaxMem=  5242880000 cpu:         0.1
 (Enter /opt/nce/packages/global/g09/l301.exe)
 Standard basis: def2TZVP (5D, 7F)
 Ernie: Thresh=  0.10000D-02 Tol=  0.10000D-05 Strict=F.
  1003 basis functions,  1779 primitive gaussians,  1156 cartesian basis functions
   154 alpha electrons      154 beta electrons
       nuclear repulsion energy      4965.8720953234 Hartrees.
 IExCor= 4134 DFT=T Ex+Corr=M06L ExCW=0 ScaHFX=  0.000000
 ScaDFX=  1.000000  1.000000  1.000000  1.000000 ScalE2=  1.000000  1.000000
 IRadAn=      5 IRanWt=     -1 IRanGd=            0 ICorTp=0 IEmpDi=  4
 NAtoms=   35 NActive=   35 NUniq=   35 SFac= 1.00D+00 NAtFMM=   60 NAOKFM=F Big=F
 Integral buffers will be    131072 words long.
 Raffenetti 2 integral format.
 Two-electron integral symmetry is turned off.
 ------------------------------------------------------------------------------
 Polarizable Continuum Model (PCM)
 =================================
 Model                : PCM (using non-symmetric T matrix).
 Atomic radii         : SMD-Coulomb.
 Polarization charges : Total charges.
 Charge compensation  : None.
 Solution method      : On-the-fly selection.
 Cavity type          : VdW (van der Waals Surface) (Alpha=1.000).
 Cavity algorithm     : GePol (No added spheres)
                        Default sphere list used, NSphG=   35.
                        Lebedev-Laikov grids with approx.  5.0 points / Ang**2.
                        Smoothing algorithm: York/Karplus (Gamma=1.0000).
                        Polarization charges: spherical gaussians, with
                                              point-specific exponents (IZeta= 3).
                        Self-potential: point-specific (ISelfS= 7).
                        Self-field    : sphere-specific E.n sum rule (ISelfD= 2).
 1st derivatives      : Analytical E(r).r(x)/FMM algorithm (CHGder, D1EAlg=3).
                        Cavity 1st derivative terms included.
 Solvent              : Acetonitrile, Eps=  35.688000 Eps(inf)=   1.806874
 ------------------------------------------------------------------------------
 GePol: Number of generator spheres                  =      35
 GePol: Total number of spheres                      =      35
 GePol: Number of exposed spheres                    =      35 (100.00%)
 GePol: Number of points                             =    3584
 GePol: Average weight of points                     =       0.16
 GePol: Minimum weight of points                     =   0.29D-11
 GePol: Maximum weight of points                     =    0.22025
 GePol: Number of points with low weight             =     139
 GePol: Fraction of low-weight points (<1% of avg)   =       3.88%
 GePol: Cavity surface area                          =    557.368 Ang**2
 GePol: Cavity volume                                =    692.371 Ang**3
 ------------------------------------------------------------------------------
 Atomic radii for non-electrostatic terms: SMD-CDS.
 ------------------------------------------------------------------------------
 PCM non-electrostatic energy =        -0.0145827753 Hartrees.
 Nuclear repulsion after PCM non-electrostatic terms =     4965.8575125481 Hartrees.
 Leave Link  301 at Sat Feb 12 02:29:57 2022, MaxMem=  5242880000 cpu:         2.1
 (Enter /opt/nce/packages/global/g09/l302.exe)
 NPDir=0 NMtPBC=     1 NCelOv=     1 NCel=       1 NClECP=     1 NCelD=      1
         NCelK=      1 NCelE2=     1 NClLst=     1 CellRange=     0.0.
 One-electron integrals computed using PRISM.
   1 Symmetry operations used in ECPInt.
 ECPInt:  NShTT=   66066 NPrTT=  240610 LenC2=   54169 LenP2D=  126310.
 LDataN:  DoStor=T MaxTD1= 6 Len=  172
 NBasis=  1003 RedAO= T EigKep=  5.08D-06  NBF=  1003
 NBsUse=  1003 1.00D-06 EigRej= -1.00D+00 NBFU=  1003
 Precomputing XC quadrature grid using
 IXCGrd= 4 IRadAn=           5 IRanWt=          -1 IRanGd=           0 AccXCQ= 0.00D+00.
 Generated NRdTot=       0 NPtTot=           0 NUsed=           0 NTot=          32
 NSgBfM=  1106  1106  1106  1106  1106 MxSgAt=    35 MxSgA2=    35.
 Leave Link  302 at Sat Feb 12 02:30:01 2022, MaxMem=  5242880000 cpu:        35.2
 (Enter /opt/nce/packages/global/g09/l303.exe)
 DipDrv:  MaxL=1.
 Leave Link  303 at Sat Feb 12 02:30:02 2022, MaxMem=  5242880000 cpu:         4.4
 (Enter /opt/nce/packages/global/g09/l401.exe)
 ExpMin= 9.52D-02 ExpMax= 5.65D+05 ExpMxC= 5.46D+03 IAcc=3 IRadAn=         5 AccDes= 0.00D+00
 Harris functional with IExCor= 1009 and IRadAn=       5 diagonalized for initial guess.
 HarFok:  IExCor= 1009 AccDes= 0.00D+00 IRadAn=         5 IDoV= 1 UseB2=F ITyADJ=14
 ICtDFT=  3500011 ScaDFX=  1.000000  1.000000  1.000000  1.000000
 FoFCou: FMM=F IPFlag=           0 FMFlag=      100000 FMFlg1=           0
         NFxFlg=           0 DoJE=T BraDBF=F KetDBF=T FulRan=T
         wScrn=  0.000000 ICntrl=     500 IOpCl=  0 I1Cent=   200000004 NGrid=           0
         NMat0=    1 NMatS0=      1 NMatT0=    0 NMatD0=    1 NMtDS0=    0 NMtDT0=    0
 Symmetry not used in FoFCou.
 Harris En= -11436.7686243015    
 JPrj=0 DoOrth=F DoCkMO=F.
 Leave Link  401 at Sat Feb 12 02:30:11 2022, MaxMem=  5242880000 cpu:        99.4
 (Enter /opt/nce/packages/global/g09/l502.exe)
 Closed shell SCF:
 Using DIIS extrapolation, IDIIS=  1040.
 Two-electron integral symmetry not used.
 IVT=     4048436 IEndB=     4048436 NGot=  5242880000 MDV=  5240185697
 LenX=  5240185697 LenY=  5238848205
 Requested convergence on RMS density matrix=1.00D-08 within 128 cycles.
 Requested convergence on MAX density matrix=1.00D-06.
 Requested convergence on             energy=1.00D-06.
 No special actions if energy rises.
 Fock matrices will be formed incrementally for  20 cycles.

 Cycle   1  Pass 1  IDiag  1:
 FoFJK:  IHMeth= 1 ICntrl=     500 DoSepK=F KAlg= 0 I1Cent=   0 FoldK=F
 IRaf= 720000000 NMat=   1 IRICut=       1 DoRegI=T DoRafI=F ISym2E= 0.
 FoFCou: FMM=F IPFlag=           0 FMFlag=      100000 FMFlg1=           0
         NFxFlg=           0 DoJE=T BraDBF=F KetDBF=F FulRan=T
         wScrn=  0.000000 ICntrl=     500 IOpCl=  0 I1Cent=           0 NGrid=           0
         NMat0=    1 NMatS0=      1 NMatT0=    0 NMatD0=    1 NMtDS0=    0 NMtDT0=    0
 Symmetry not used in FoFCou.
 Inv3:  Mode=1 IEnd=    38535168.
 Iteration    1 A*A^-1 deviation from unit magnitude is 6.88D-15 for   3574.
 Iteration    1 A*A^-1 deviation from orthogonality  is 3.43D-15 for   1134     91.
 Iteration    1 A^-1*A deviation from unit magnitude is 6.88D-15 for   3574.
 Iteration    1 A^-1*A deviation from orthogonality  is 5.84D-12 for   1012   1009.
 E= -11438.0164445168    
 DIIS: error= 4.22D-02 at cycle   1 NSaved=   1.
 NSaved= 1 IEnMin= 1 EnMin= -11438.0164445168     IErMin= 1 ErrMin= 4.22D-02
 ErrMax= 4.22D-02  0.00D+00 EMaxC= 1.00D-01 BMatC= 1.89D+00 BMatP= 1.89D+00
 IDIUse=3 WtCom= 5.78D-01 WtEn= 4.22D-01
 Coeff-Com:  0.100D+01
 Coeff-En:   0.100D+01
 Coeff:      0.100D+01
 Gap=     0.070 Goal=   None    Shift=    0.000
 GapD=    0.070 DampG=0.500 DampE=0.500 DampFc=0.2500 IDamp=-1.
 Damping current iteration by 2.50D-01
 RMSDP=1.48D-02 MaxDP=1.47D+00              OVMax= 5.90D-01

 Cycle   2  Pass 1  IDiag  1:
 RMSU=  3.69D-03    CP:  1.04D+00
 E= -11438.2217632418     Delta-E=       -0.205318724911 Rises=F Damp=T
 DIIS: error= 2.84D-02 at cycle   2 NSaved=   2.
 NSaved= 2 IEnMin= 2 EnMin= -11438.2217632418     IErMin= 2 ErrMin= 2.84D-02
 ErrMax= 2.84D-02  0.00D+00 EMaxC= 1.00D-01 BMatC= 6.10D-01 BMatP= 1.89D+00
 IDIUse=3 WtCom= 7.16D-01 WtEn= 2.84D-01
 Coeff-Com: -0.792D+00 0.179D+01
 Coeff-En:   0.000D+00 0.100D+01
 Coeff:     -0.567D+00 0.157D+01
 Gap=     0.167 Goal=   None    Shift=    0.000
 RMSDP=3.59D-03 MaxDP=4.35D-01 DE=-2.05D-01 OVMax= 4.38D-01

 Cycle   3  Pass 1  IDiag  1:
 RMSU=  2.83D-03    CP:  1.00D+00  4.13D-01
 E= -11438.3248133566     Delta-E=       -0.103050114838 Rises=F Damp=F
 DIIS: error= 1.98D-02 at cycle   3 NSaved=   3.
 NSaved= 3 IEnMin= 3 EnMin= -11438.3248133566     IErMin= 3 ErrMin= 1.98D-02
 ErrMax= 1.98D-02  0.00D+00 EMaxC= 1.00D-01 BMatC= 4.29D-01 BMatP= 6.10D-01
 IDIUse=3 WtCom= 8.02D-01 WtEn= 1.98D-01
 Coeff-Com: -0.602D+00 0.113D+01 0.477D+00
 Coeff-En:   0.000D+00 0.365D+00 0.635D+00
 Coeff:     -0.483D+00 0.975D+00 0.508D+00
 Gap=     0.067 Goal=   None    Shift=    0.000
 RMSDP=2.45D-03 MaxDP=2.05D-01 DE=-1.03D-01 OVMax= 2.85D-01

 Cycle   4  Pass 1  IDiag  1:
 RMSU=  1.48D-03    CP:  1.03D+00  9.04D-01  7.77D-01
 E= -11438.5870354815     Delta-E=       -0.262222124951 Rises=F Damp=F
 DIIS: error= 1.48D-02 at cycle   4 NSaved=   4.
 NSaved= 4 IEnMin= 4 EnMin= -11438.5870354815     IErMin= 4 ErrMin= 1.48D-02
 ErrMax= 1.48D-02  0.00D+00 EMaxC= 1.00D-01 BMatC= 1.08D-01 BMatP= 4.29D-01
 IDIUse=3 WtCom= 8.52D-01 WtEn= 1.48D-01
 Coeff-Com: -0.226D+00 0.400D+00 0.353D+00 0.473D+00
 Coeff-En:   0.000D+00 0.000D+00 0.282D+00 0.718D+00
 Coeff:     -0.193D+00 0.341D+00 0.342D+00 0.509D+00
 Gap=     0.085 Goal=   None    Shift=    0.000
 RMSDP=1.59D-03 MaxDP=1.38D-01 DE=-2.62D-01 OVMax= 1.99D-01

 Cycle   5  Pass 1  IDiag  1:
 RMSU=  9.49D-04    CP:  1.02D+00  6.37D-01  8.29D-01  4.66D-01
 E= -11438.6711295854     Delta-E=       -0.084094103866 Rises=F Damp=F
 DIIS: error= 6.89D-03 at cycle   5 NSaved=   5.
 NSaved= 5 IEnMin= 5 EnMin= -11438.6711295854     IErMin= 5 ErrMin= 6.89D-03
 ErrMax= 6.89D-03  0.00D+00 EMaxC= 1.00D-01 BMatC= 3.13D-02 BMatP= 1.08D-01
 IDIUse=3 WtCom= 9.31D-01 WtEn= 6.89D-02
 Coeff-Com: -0.839D-01 0.136D+00 0.181D+00 0.384D+00 0.383D+00
 Coeff-En:   0.000D+00 0.000D+00 0.000D+00 0.265D+00 0.735D+00
 Coeff:     -0.782D-01 0.127D+00 0.168D+00 0.375D+00 0.407D+00
 Gap=     0.090 Goal=   None    Shift=    0.000
 RMSDP=6.08D-04 MaxDP=6.59D-02 DE=-8.41D-02 OVMax= 9.12D-02

 Cycle   6  Pass 1  IDiag  1:
 RMSU=  2.35D-04    CP:  1.02D+00  7.18D-01  8.00D-01  5.92D-01  5.49D-01
 E= -11438.7001757290     Delta-E=       -0.029046143620 Rises=F Damp=F
 DIIS: error= 1.79D-03 at cycle   6 NSaved=   6.
 NSaved= 6 IEnMin= 6 EnMin= -11438.7001757290     IErMin= 6 ErrMin= 1.79D-03
 ErrMax= 1.79D-03  0.00D+00 EMaxC= 1.00D-01 BMatC= 3.28D-03 BMatP= 3.13D-02
 IDIUse=3 WtCom= 9.82D-01 WtEn= 1.79D-02
 Coeff-Com: -0.107D-01 0.133D-01 0.386D-01 0.167D+00 0.273D+00 0.518D+00
 Coeff-En:   0.000D+00 0.000D+00 0.000D+00 0.000D+00 0.653D-01 0.935D+00
 Coeff:     -0.105D-01 0.131D-01 0.379D-01 0.164D+00 0.269D+00 0.526D+00
 Gap=     0.077 Goal=   None    Shift=    0.000
 RMSDP=1.63D-04 MaxDP=9.56D-03 DE=-2.90D-02 OVMax= 3.20D-02

 Cycle   7  Pass 1  IDiag  1:
 RMSU=  1.12D-04    CP:  1.02D+00  7.03D-01  8.05D-01  5.84D-01  6.41D-01
                    CP:  7.65D-01
 E= -11438.7023316936     Delta-E=       -0.002155964605 Rises=F Damp=F
 DIIS: error= 1.29D-03 at cycle   7 NSaved=   7.
 NSaved= 7 IEnMin= 7 EnMin= -11438.7023316936     IErMin= 7 ErrMin= 1.29D-03
 ErrMax= 1.29D-03  0.00D+00 EMaxC= 1.00D-01 BMatC= 9.74D-04 BMatP= 3.28D-03
 IDIUse=3 WtCom= 9.87D-01 WtEn= 1.29D-02
 Coeff-Com: -0.350D-03-0.188D-02 0.689D-02 0.711D-01 0.144D+00 0.410D+00
 Coeff-Com:  0.371D+00
 Coeff-En:   0.000D+00 0.000D+00 0.000D+00 0.000D+00 0.000D+00 0.253D+00
 Coeff-En:   0.747D+00
 Coeff:     -0.345D-03-0.186D-02 0.680D-02 0.702D-01 0.142D+00 0.408D+00
 Coeff:      0.376D+00
 Gap=     0.076 Goal=   None    Shift=    0.000
 RMSDP=7.39D-05 MaxDP=1.53D-02 DE=-2.16D-03 OVMax= 1.51D-02

 Cycle   8  Pass 1  IDiag  1:
 RMSU=  5.73D-05    CP:  1.02D+00  7.06D-01  8.05D-01  5.88D-01  6.54D-01
                    CP:  8.20D-01  6.31D-01
 E= -11438.7031066619     Delta-E=       -0.000774968310 Rises=F Damp=F
 DIIS: error= 3.02D-04 at cycle   8 NSaved=   8.
 NSaved= 8 IEnMin= 8 EnMin= -11438.7031066619     IErMin= 8 ErrMin= 3.02D-04
 ErrMax= 3.02D-04  0.00D+00 EMaxC= 1.00D-01 BMatC= 8.57D-05 BMatP= 9.74D-04
 IDIUse=3 WtCom= 9.97D-01 WtEn= 3.02D-03
 Coeff-Com: -0.173D-03-0.366D-03-0.243D-02 0.361D-02 0.180D-01 0.143D+00
 Coeff-Com:  0.256D+00 0.583D+00
 Coeff-En:   0.000D+00 0.000D+00 0.000D+00 0.000D+00 0.000D+00 0.000D+00
 Coeff-En:   0.714D-01 0.929D+00
 Coeff:     -0.172D-03-0.365D-03-0.242D-02 0.360D-02 0.180D-01 0.142D+00
 Coeff:      0.255D+00 0.584D+00
 Gap=     0.077 Goal=   None    Shift=    0.000
 RMSDP=2.98D-05 MaxDP=5.42D-03 DE=-7.75D-04 OVMax= 3.72D-03

 Cycle   9  Pass 1  IDiag  1:
 RMSU=  2.15D-05    CP:  1.02D+00  7.07D-01  8.04D-01  5.84D-01  6.50D-01
                    CP:  8.51D-01  7.59D-01  8.39D-01
 E= -11438.7031725710     Delta-E=       -0.000065909080 Rises=F Damp=F
 DIIS: error= 8.83D-05 at cycle   9 NSaved=   9.
 NSaved= 9 IEnMin= 9 EnMin= -11438.7031725710     IErMin= 9 ErrMin= 8.83D-05
 ErrMax= 8.83D-05  0.00D+00 EMaxC= 1.00D-01 BMatC= 9.09D-06 BMatP= 8.57D-05
 IDIUse=1 WtCom= 1.00D+00 WtEn= 0.00D+00
 Coeff-Com: -0.646D-03 0.843D-03-0.147D-02-0.320D-02-0.468D-03 0.546D-01
 Coeff-Com:  0.128D+00 0.363D+00 0.459D+00
 Coeff:     -0.646D-03 0.843D-03-0.147D-02-0.320D-02-0.468D-03 0.546D-01
 Coeff:      0.128D+00 0.363D+00 0.459D+00
 Gap=     0.077 Goal=   None    Shift=    0.000
 RMSDP=7.33D-06 MaxDP=7.88D-04 DE=-6.59D-05 OVMax= 9.86D-04

 Cycle  10  Pass 1  IDiag  1:
 RMSU=  6.70D-06    CP:  1.02D+00  7.07D-01  8.04D-01  5.83D-01  6.51D-01
                    CP:  8.54D-01  7.65D-01  8.56D-01  1.09D+00
 E= -11438.7031808730     Delta-E=       -0.000008301970 Rises=F Damp=F
 DIIS: error= 2.76D-05 at cycle  10 NSaved=  10.
 NSaved=10 IEnMin=10 EnMin= -11438.7031808730     IErMin=10 ErrMin= 2.76D-05
 ErrMax= 2.76D-05  0.00D+00 EMaxC= 1.00D-01 BMatC= 1.03D-06 BMatP= 9.09D-06
 IDIUse=1 WtCom= 1.00D+00 WtEn= 0.00D+00
 Coeff-Com: -0.322D-03 0.440D-03-0.592D-03-0.211D-02-0.201D-02 0.141D-01
 Coeff-Com:  0.439D-01 0.143D+00 0.282D+00 0.521D+00
 Coeff:     -0.322D-03 0.440D-03-0.592D-03-0.211D-02-0.201D-02 0.141D-01
 Coeff:      0.439D-01 0.143D+00 0.282D+00 0.521D+00
 Gap=     0.077 Goal=   None    Shift=    0.000
 RMSDP=5.00D-06 MaxDP=4.35D-04 DE=-8.30D-06 OVMax= 3.77D-04

 Cycle  11  Pass 1  IDiag  1:
 RMSU=  2.70D-06    CP:  1.02D+00  7.07D-01  8.04D-01  5.83D-01  6.54D-01
                    CP:  8.54D-01  7.74D-01  8.81D-01  1.16D+00  9.95D-01
 E= -11438.7031815707     Delta-E=       -0.000000697681 Rises=F Damp=F
 DIIS: error= 1.38D-05 at cycle  11 NSaved=  11.
 NSaved=11 IEnMin=11 EnMin= -11438.7031815707     IErMin=11 ErrMin= 1.38D-05
 ErrMax= 1.38D-05  0.00D+00 EMaxC= 1.00D-01 BMatC= 3.13D-07 BMatP= 1.03D-06
 IDIUse=1 WtCom= 1.00D+00 WtEn= 0.00D+00
 Coeff-Com: -0.864D-04 0.148D-03-0.190D-04-0.822D-03-0.161D-02-0.643D-02
 Coeff-Com: -0.489D-02 0.159D-02 0.866D-01 0.387D+00 0.538D+00
 Coeff:     -0.864D-04 0.148D-03-0.190D-04-0.822D-03-0.161D-02-0.643D-02
 Coeff:     -0.489D-02 0.159D-02 0.866D-01 0.387D+00 0.538D+00
 Gap=     0.077 Goal=   None    Shift=    0.000
 RMSDP=2.94D-06 MaxDP=3.11D-04 DE=-6.98D-07 OVMax= 1.51D-04

 Cycle  12  Pass 1  IDiag  1:
 RMSU=  9.99D-07    CP:  1.02D+00  7.07D-01  8.04D-01  5.82D-01  6.55D-01
                    CP:  8.55D-01  7.80D-01  8.95D-01  1.24D+00  1.14D+00
                    CP:  1.11D+00
 E= -11438.7031818461     Delta-E=       -0.000000275373 Rises=F Damp=F
 DIIS: error= 8.20D-06 at cycle  12 NSaved=  12.
 NSaved=12 IEnMin=12 EnMin= -11438.7031818461     IErMin=12 ErrMin= 8.20D-06
 ErrMax= 8.20D-06  0.00D+00 EMaxC= 1.00D-01 BMatC= 2.49D-08 BMatP= 3.13D-07
 IDIUse=1 WtCom= 1.00D+00 WtEn= 0.00D+00
 Coeff-Com:  0.200D-05 0.141D-04 0.394D-04-0.238D-03-0.731D-03-0.479D-02
 Coeff-Com: -0.696D-02-0.130D-01 0.220D-01 0.171D+00 0.308D+00 0.524D+00
 Coeff:      0.200D-05 0.141D-04 0.394D-04-0.238D-03-0.731D-03-0.479D-02
 Coeff:     -0.696D-02-0.130D-01 0.220D-01 0.171D+00 0.308D+00 0.524D+00
 Gap=     0.077 Goal=   None    Shift=    0.000
 RMSDP=9.75D-07 MaxDP=1.12D-04 DE=-2.75D-07 OVMax= 6.87D-05

 Cycle  13  Pass 1  IDiag  1:
 RMSU=  3.31D-07    CP:  1.02D+00  7.07D-01  8.04D-01  5.82D-01  6.56D-01
                    CP:  8.55D-01  7.83D-01  9.01D-01  1.26D+00  1.18D+00
                    CP:  1.22D+00  1.17D+00
 E= -11438.7031818673     Delta-E=       -0.000000021231 Rises=F Damp=F
 DIIS: error= 3.92D-06 at cycle  13 NSaved=  13.
 NSaved=13 IEnMin=13 EnMin= -11438.7031818673     IErMin=13 ErrMin= 3.92D-06
 ErrMax= 3.92D-06  0.00D+00 EMaxC= 1.00D-01 BMatC= 4.93D-09 BMatP= 2.49D-08
 IDIUse=1 WtCom= 1.00D+00 WtEn= 0.00D+00
 Coeff-Com:  0.254D-04-0.315D-04 0.297D-04-0.463D-06-0.221D-03-0.169D-02
 Coeff-Com: -0.332D-02-0.802D-02-0.156D-02 0.390D-01 0.907D-01 0.326D+00
 Coeff-Com:  0.559D+00
 Coeff:      0.254D-04-0.315D-04 0.297D-04-0.463D-06-0.221D-03-0.169D-02
 Coeff:     -0.332D-02-0.802D-02-0.156D-02 0.390D-01 0.907D-01 0.326D+00
 Coeff:      0.559D+00
 Gap=     0.077 Goal=   None    Shift=    0.000
 RMSDP=5.81D-07 MaxDP=7.42D-05 DE=-2.12D-08 OVMax= 2.84D-05

 Cycle  14  Pass 1  IDiag  1:
 RMSU=  1.83D-07    CP:  1.02D+00  7.07D-01  8.04D-01  5.82D-01  6.56D-01
                    CP:  8.55D-01  7.84D-01  9.03D-01  1.28D+00  1.21D+00
                    CP:  1.27D+00  1.31D+00  1.10D+00
 E= -11438.7031818717     Delta-E=       -0.000000004391 Rises=F Damp=F
 DIIS: error= 8.80D-07 at cycle  14 NSaved=  14.
 NSaved=14 IEnMin=14 EnMin= -11438.7031818717     IErMin=14 ErrMin= 8.80D-07
 ErrMax= 8.80D-07  0.00D+00 EMaxC= 1.00D-01 BMatC= 5.51D-10 BMatP= 4.93D-09
 IDIUse=1 WtCom= 1.00D+00 WtEn= 0.00D+00
 Coeff-Com:  0.783D-05-0.107D-04 0.187D-04 0.238D-04-0.584D-04-0.222D-03
 Coeff-Com: -0.692D-03-0.200D-02-0.366D-02-0.273D-02 0.195D-02 0.976D-01
 Coeff-Com:  0.300D+00 0.610D+00
 Coeff:      0.783D-05-0.107D-04 0.187D-04 0.238D-04-0.584D-04-0.222D-03
 Coeff:     -0.692D-03-0.200D-02-0.366D-02-0.273D-02 0.195D-02 0.976D-01
 Coeff:      0.300D+00 0.610D+00
 Gap=     0.077 Goal=   None    Shift=    0.000
 RMSDP=2.28D-07 MaxDP=2.92D-05 DE=-4.39D-09 OVMax= 1.07D-05

 Cycle  15  Pass 1  IDiag  1:
 RMSU=  6.62D-08    CP:  1.02D+00  7.07D-01  8.04D-01  5.82D-01  6.56D-01
                    CP:  8.55D-01  7.84D-01  9.04D-01  1.29D+00  1.22D+00
                    CP:  1.29D+00  1.36D+00  1.20D+00  1.24D+00
 E= -11438.7031818722     Delta-E=       -0.000000000509 Rises=F Damp=F
 DIIS: error= 2.75D-07 at cycle  15 NSaved=  15.
 NSaved=15 IEnMin=15 EnMin= -11438.7031818722     IErMin=15 ErrMin= 2.75D-07
 ErrMax= 2.75D-07  0.00D+00 EMaxC= 1.00D-01 BMatC= 8.63D-11 BMatP= 5.51D-10
 IDIUse=1 WtCom= 1.00D+00 WtEn= 0.00D+00
 Coeff-Com:  0.226D-05-0.380D-05 0.679D-05 0.114D-04-0.534D-05 0.717D-04
 Coeff-Com:  0.105D-04-0.192D-03-0.185D-02-0.578D-02-0.927D-02 0.157D-01
 Coeff-Com:  0.102D+00 0.354D+00 0.545D+00
 Coeff:      0.226D-05-0.380D-05 0.679D-05 0.114D-04-0.534D-05 0.717D-04
 Coeff:      0.105D-04-0.192D-03-0.185D-02-0.578D-02-0.927D-02 0.157D-01
 Coeff:      0.102D+00 0.354D+00 0.545D+00
 Gap=     0.077 Goal=   None    Shift=    0.000
 RMSDP=9.39D-08 MaxDP=1.37D-05 DE=-5.09D-10 OVMax= 3.13D-06

 Cycle  16  Pass 1  IDiag  1:
 RMSU=  2.13D-08    CP:  1.02D+00  7.07D-01  8.04D-01  5.82D-01  6.56D-01
                    CP:  8.55D-01  7.84D-01  9.05D-01  1.29D+00  1.23D+00
                    CP:  1.30D+00  1.38D+00  1.24D+00  1.39D+00  1.22D+00
 E= -11438.7031818724     Delta-E=       -0.000000000218 Rises=F Damp=F
 DIIS: error= 1.56D-07 at cycle  16 NSaved=  16.
 NSaved=16 IEnMin=16 EnMin= -11438.7031818724     IErMin=16 ErrMin= 1.56D-07
 ErrMax= 1.56D-07  0.00D+00 EMaxC= 1.00D-01 BMatC= 1.79D-11 BMatP= 8.63D-11
 IDIUse=1 WtCom= 1.00D+00 WtEn= 0.00D+00
 Coeff-Com:  0.450D-06-0.931D-06 0.165D-06 0.159D-05 0.113D-04 0.870D-04
 Coeff-Com:  0.141D-03 0.232D-03-0.564D-03-0.341D-02-0.629D-02-0.887D-02
 Coeff-Com:  0.693D-02 0.100D+00 0.338D+00 0.574D+00
 Coeff:      0.450D-06-0.931D-06 0.165D-06 0.159D-05 0.113D-04 0.870D-04
 Coeff:      0.141D-03 0.232D-03-0.564D-03-0.341D-02-0.629D-02-0.887D-02
 Coeff:      0.693D-02 0.100D+00 0.338D+00 0.574D+00
 Gap=     0.077 Goal=   None    Shift=    0.000
 RMSDP=5.72D-08 MaxDP=7.98D-06 DE=-2.18D-10 OVMax= 1.32D-06

 Cycle  17  Pass 1  IDiag  1:
 RMSU=  9.60D-09    CP:  1.02D+00  7.07D-01  8.04D-01  5.82D-01  6.56D-01
                    CP:  8.55D-01  7.84D-01  9.05D-01  1.29D+00  1.23D+00
                    CP:  1.31D+00  1.40D+00  1.27D+00  1.46D+00  1.34D+00
                    CP:  1.04D+00
 E= -11438.7031818723     Delta-E=        0.000000000062 Rises=F Damp=F
 DIIS: error= 6.28D-08 at cycle  17 NSaved=  17.
 NSaved=17 IEnMin=16 EnMin= -11438.7031818724     IErMin=17 ErrMin= 6.28D-08
 ErrMax= 6.28D-08  0.00D+00 EMaxC= 1.00D-01 BMatC= 2.55D-12 BMatP= 1.79D-11
 IDIUse=1 WtCom= 1.00D+00 WtEn= 0.00D+00
 Coeff-Com:  0.107D-06-0.248D-06-0.831D-06-0.628D-06 0.833D-05 0.461D-04
 Coeff-Com:  0.851D-04 0.159D-03-0.175D-03-0.157D-02-0.296D-02-0.734D-02
 Coeff-Com: -0.681D-02 0.224D-01 0.146D+00 0.347D+00 0.503D+00
 Coeff:      0.107D-06-0.248D-06-0.831D-06-0.628D-06 0.833D-05 0.461D-04
 Coeff:      0.851D-04 0.159D-03-0.175D-03-0.157D-02-0.296D-02-0.734D-02
 Coeff:     -0.681D-02 0.224D-01 0.146D+00 0.347D+00 0.503D+00
 Gap=     0.077 Goal=   None    Shift=    0.000
 RMSDP=1.75D-08 MaxDP=2.62D-06 DE= 6.18D-11 OVMax= 5.55D-07

 Cycle  18  Pass 1  IDiag  1:
 RMSU=  3.43D-09    CP:  1.02D+00  7.07D-01  8.04D-01  5.82D-01  6.56D-01
                    CP:  8.55D-01  7.84D-01  9.05D-01  1.29D+00  1.23D+00
                    CP:  1.31D+00  1.40D+00  1.28D+00  1.49D+00  1.39D+00
                    CP:  1.19D+00  9.41D-01
 E= -11438.7031818724     Delta-E=       -0.000000000044 Rises=F Damp=F
 DIIS: error= 2.28D-08 at cycle  18 NSaved=  18.
 NSaved=18 IEnMin=16 EnMin= -11438.7031818724     IErMin=18 ErrMin= 2.28D-08
 ErrMax= 2.28D-08  0.00D+00 EMaxC= 1.00D-01 BMatC= 4.62D-13 BMatP= 2.55D-12
 IDIUse=1 WtCom= 1.00D+00 WtEn= 0.00D+00
 Coeff-Com: -0.596D-07 0.853D-07-0.450D-06-0.494D-06 0.292D-05 0.814D-05
 Coeff-Com:  0.184D-04 0.423D-04 0.158D-04-0.173D-03-0.346D-03-0.233D-02
 Coeff-Com: -0.572D-02-0.106D-01 0.105D-01 0.792D-01 0.326D+00 0.604D+00
 Coeff:     -0.596D-07 0.853D-07-0.450D-06-0.494D-06 0.292D-05 0.814D-05
 Coeff:      0.184D-04 0.423D-04 0.158D-04-0.173D-03-0.346D-03-0.233D-02
 Coeff:     -0.572D-02-0.106D-01 0.105D-01 0.792D-01 0.326D+00 0.604D+00
 Gap=     0.077 Goal=   None    Shift=    0.000
 RMSDP=1.12D-08 MaxDP=1.67D-06 DE=-4.37D-11 OVMax= 3.14D-07

 Cycle  19  Pass 1  IDiag  1:
 RMSU=  1.79D-09    CP:  1.02D+00  7.07D-01  8.04D-01  5.82D-01  6.56D-01
                    CP:  8.55D-01  7.84D-01  9.05D-01  1.29D+00  1.23D+00
                    CP:  1.31D+00  1.40D+00  1.28D+00  1.51D+00  1.42D+00
                    CP:  1.23D+00  1.13D+00  8.16D-01
 E= -11438.7031818723     Delta-E=        0.000000000080 Rises=F Damp=F
 DIIS: error= 6.07D-09 at cycle  19 NSaved=  19.
 NSaved=19 IEnMin=16 EnMin= -11438.7031818724     IErMin=19 ErrMin= 6.07D-09
 ErrMax= 6.07D-09  0.00D+00 EMaxC= 1.00D-01 BMatC= 8.17D-14 BMatP= 4.62D-13
 IDIUse=1 WtCom= 1.00D+00 WtEn= 0.00D+00
 Coeff-Com: -0.264D-07 0.385D-07-0.183D-06-0.166D-06 0.860D-06 0.635D-06
 Coeff-Com:  0.263D-05 0.103D-04 0.281D-04 0.694D-04 0.101D-03-0.598D-03
 Coeff-Com: -0.276D-02-0.918D-02-0.962D-02 0.113D-01 0.148D+00 0.382D+00
 Coeff-Com:  0.481D+00
 Coeff:     -0.264D-07 0.385D-07-0.183D-06-0.166D-06 0.860D-06 0.635D-06
 Coeff:      0.263D-05 0.103D-04 0.281D-04 0.694D-04 0.101D-03-0.598D-03
 Coeff:     -0.276D-02-0.918D-02-0.962D-02 0.113D-01 0.148D+00 0.382D+00
 Coeff:      0.481D+00
 Gap=     0.077 Goal=   None    Shift=    0.000
 RMSDP=2.76D-09 MaxDP=3.91D-07 DE= 8.00D-11 OVMax= 1.97D-07

 Error on total polarization charges =  0.01352
 SCF Done:  E(RM06L) =  -11438.7031819     A.U. after   19 cycles
            NFock= 19  Conv=0.28D-08     -V/T= 2.0013
 KE= 1.142410778953D+04 PE=-3.728123206399D+04 EE= 9.452563580041D+03
 SMD-CDS (non-electrostatic) energy       (kcal/mol) =      -9.15
 (included in total energy above)
 Leave Link  502 at Sat Feb 12 02:48:14 2022, MaxMem=  5242880000 cpu:     12925.1
 (Enter /opt/nce/packages/global/g09/l601.exe)
 Copying SCF densities to generalized density rwf, IOpCl= 0 IROHF=0.

 **********************************************************************

            Population analysis using the SCF density.

 **********************************************************************

 Alpha  occ. eigenvalues -- -482.09674-482.09672-482.09535-482.09524 -62.35375
 Alpha  occ. eigenvalues --  -62.35373 -62.35223 -62.35213 -56.06059 -56.06057
 Alpha  occ. eigenvalues --  -56.05920 -56.05909 -56.05664 -56.05662 -56.05637
 Alpha  occ. eigenvalues --  -56.05635 -56.05513 -56.05502 -56.05478 -56.05468
 Alpha  occ. eigenvalues --  -19.03097 -18.90087 -18.90085 -18.88458 -18.87885
 Alpha  occ. eigenvalues --  -10.12236 -10.12231 -10.10455 -10.10318 -10.10317
 Alpha  occ. eigenvalues --  -10.08762 -10.08337 -10.08334 -10.07666 -10.07661
 Alpha  occ. eigenvalues --  -10.05918 -10.05731 -10.05728 -10.05612 -10.05611
 Alpha  occ. eigenvalues --  -10.04996 -10.04937 -10.04703 -10.04343 -10.04262
 Alpha  occ. eigenvalues --   -8.67722  -8.67720  -8.67564  -8.67554  -6.45152
 Alpha  occ. eigenvalues --   -6.45150  -6.45028  -6.45018  -6.43856  -6.43854
 Alpha  occ. eigenvalues --   -6.43761  -6.43759  -6.43693  -6.43683  -6.43572
 Alpha  occ. eigenvalues --   -6.43561  -2.52184  -2.52182  -2.52051  -2.52041
 Alpha  occ. eigenvalues --   -2.51903  -2.51901  -2.51845  -2.51843  -2.51765
 Alpha  occ. eigenvalues --   -2.51755  -2.51689  -2.51678  -2.50875  -2.50874
 Alpha  occ. eigenvalues --   -2.50873  -2.50872  -2.50690  -2.50689  -2.50680
 Alpha  occ. eigenvalues --   -2.50678  -1.07897  -0.96511  -0.95005  -0.94988
 Alpha  occ. eigenvalues --   -0.88245  -0.83555  -0.82455  -0.80947  -0.77035
 Alpha  occ. eigenvalues --   -0.76816  -0.75422  -0.72916  -0.71714  -0.70684
 Alpha  occ. eigenvalues --   -0.69147  -0.68835  -0.66499  -0.66115  -0.61095
 Alpha  occ. eigenvalues --   -0.59329  -0.57809  -0.56934  -0.53911  -0.53542
 Alpha  occ. eigenvalues --   -0.49841  -0.49796  -0.48282  -0.46924  -0.43853
 Alpha  occ. eigenvalues --   -0.43454  -0.43037  -0.41424  -0.41261  -0.40879
 Alpha  occ. eigenvalues --   -0.39895  -0.38889  -0.37785  -0.37675  -0.36870
 Alpha  occ. eigenvalues --   -0.36767  -0.36598  -0.35388  -0.35184  -0.35032
 Alpha  occ. eigenvalues --   -0.34095  -0.33914  -0.33110  -0.32026  -0.31876
 Alpha  occ. eigenvalues --   -0.31540  -0.31140  -0.30243  -0.29250  -0.28898
 Alpha  occ. eigenvalues --   -0.28803  -0.27660  -0.25977  -0.25491  -0.24665
 Alpha  occ. eigenvalues --   -0.24560  -0.24163  -0.23754  -0.22870  -0.22350
 Alpha  occ. eigenvalues --   -0.21468  -0.21299  -0.19919  -0.19282  -0.19029
 Alpha  occ. eigenvalues --   -0.18836  -0.18360  -0.16948  -0.16016
 Alpha virt. eigenvalues --   -0.08354  -0.04422  -0.03332  -0.02470  -0.01931
 Alpha virt. eigenvalues --   -0.01463  -0.01376  -0.00394   0.01294   0.01966
 Alpha virt. eigenvalues --    0.05156   0.06596   0.06682   0.07979   0.09279
 Alpha virt. eigenvalues --    0.10468   0.10660   0.12323   0.12554   0.12599
 Alpha virt. eigenvalues --    0.13145   0.14041   0.14521   0.14765   0.15381
 Alpha virt. eigenvalues --    0.16607   0.17358   0.17766   0.17790   0.18636
 Alpha virt. eigenvalues --    0.19327   0.20130   0.20599   0.20802   0.21014
 Alpha virt. eigenvalues --    0.21595   0.21687   0.21942   0.22121   0.22266
 Alpha virt. eigenvalues --    0.22282   0.22820   0.23079   0.23730   0.23929
 Alpha virt. eigenvalues --    0.24165   0.24722   0.24965   0.25044   0.25433
 Alpha virt. eigenvalues --    0.26141   0.26489   0.26870   0.27143   0.27573
 Alpha virt. eigenvalues --    0.27604   0.27798   0.27899   0.28281   0.28311
 Alpha virt. eigenvalues --    0.28497   0.28744   0.29087   0.29622   0.29780
 Alpha virt. eigenvalues --    0.30206   0.30462   0.30511   0.30998   0.31234
 Alpha virt. eigenvalues --    0.31762   0.32083   0.32286   0.32535   0.32604
 Alpha virt. eigenvalues --    0.32992   0.33291   0.33306   0.33557   0.34077
 Alpha virt. eigenvalues --    0.34144   0.34336   0.34904   0.35299   0.35430
 Alpha virt. eigenvalues --    0.36267   0.37226   0.37811   0.38415   0.38503
 Alpha virt. eigenvalues --    0.38804   0.38943   0.39504   0.39884   0.39981
 Alpha virt. eigenvalues --    0.40574   0.40965   0.41269   0.41782   0.41815
 Alpha virt. eigenvalues --    0.42553   0.43219   0.43411   0.44638   0.44695
 Alpha virt. eigenvalues --    0.45198   0.45623   0.45868   0.46355   0.46907
 Alpha virt. eigenvalues --    0.47196   0.47950   0.48164   0.48733   0.49248
 Alpha virt. eigenvalues --    0.50014   0.50334   0.50468   0.50988   0.51111
 Alpha virt. eigenvalues --    0.51832   0.51898   0.52189   0.52839   0.52988
 Alpha virt. eigenvalues --    0.53731   0.54320   0.55169   0.55397   0.56048
 Alpha virt. eigenvalues --    0.56616   0.56945   0.57452   0.57790   0.58413
 Alpha virt. eigenvalues --    0.59120   0.59334   0.60455   0.60940   0.61202
 Alpha virt. eigenvalues --    0.62100   0.62381   0.62869   0.63917   0.64612
 Alpha virt. eigenvalues --    0.64716   0.65148   0.65723   0.66219   0.66348
 Alpha virt. eigenvalues --    0.66807   0.67117   0.67694   0.68487   0.68520
 Alpha virt. eigenvalues --    0.68705   0.68900   0.69555   0.70183   0.70687
 Alpha virt. eigenvalues --    0.71110   0.71929   0.72473   0.72896   0.73119
 Alpha virt. eigenvalues --    0.73403   0.73571   0.74574   0.74932   0.75607
 Alpha virt. eigenvalues --    0.75663   0.76354   0.76765   0.76841   0.77604
 Alpha virt. eigenvalues --    0.78238   0.78458   0.79595   0.80109   0.80567
 Alpha virt. eigenvalues --    0.80996   0.81018   0.81758   0.82319   0.82798
 Alpha virt. eigenvalues --    0.83142   0.83947   0.83964   0.84676   0.85232
 Alpha virt. eigenvalues --    0.85692   0.86536   0.87147   0.88507   0.89177
 Alpha virt. eigenvalues --    0.89387   0.89481   0.90115   0.90455   0.91219
 Alpha virt. eigenvalues --    0.91307   0.91957   0.93138   0.93245   0.94469
 Alpha virt. eigenvalues --    0.94891   0.94945   0.96124   0.96731   0.97777
 Alpha virt. eigenvalues --    0.97897   1.00115   1.00698   1.02816   1.03159
 Alpha virt. eigenvalues --    1.03754   1.04271   1.04617   1.04882   1.05455
 Alpha virt. eigenvalues --    1.06102   1.07002   1.08109   1.09358   1.09634
 Alpha virt. eigenvalues --    1.09876   1.10475   1.12055   1.12896   1.13325
 Alpha virt. eigenvalues --    1.13588   1.14233   1.14285   1.14650   1.15031
 Alpha virt. eigenvalues --    1.15068   1.15601   1.17480   1.17614   1.18282
 Alpha virt. eigenvalues --    1.18918   1.20655   1.20778   1.20965   1.21487
 Alpha virt. eigenvalues --    1.22766   1.23597   1.23712   1.24799   1.25171
 Alpha virt. eigenvalues --    1.25887   1.26127   1.26560   1.28936   1.29024
 Alpha virt. eigenvalues --    1.29918   1.30970   1.32493   1.32607   1.33099
 Alpha virt. eigenvalues --    1.33225   1.34278   1.35182   1.35370   1.35429
 Alpha virt. eigenvalues --    1.36006   1.36458   1.37136   1.37824   1.38576
 Alpha virt. eigenvalues --    1.39681   1.39788   1.40607   1.41144   1.41195
 Alpha virt. eigenvalues --    1.41231   1.41569   1.42748   1.43252   1.44033
 Alpha virt. eigenvalues --    1.44083   1.44269   1.45619   1.46225   1.46607
 Alpha virt. eigenvalues --    1.46907   1.47817   1.48234   1.49245   1.49923
 Alpha virt. eigenvalues --    1.50206   1.51366   1.51393   1.51804   1.52179
 Alpha virt. eigenvalues --    1.52971   1.53389   1.54098   1.54758   1.54923
 Alpha virt. eigenvalues --    1.55258   1.55862   1.56118   1.56357   1.56446
 Alpha virt. eigenvalues --    1.56567   1.56983   1.56993   1.57151   1.57605
 Alpha virt. eigenvalues --    1.57871   1.58225   1.58555   1.58587   1.60185
 Alpha virt. eigenvalues --    1.61334   1.61344   1.61782   1.62423   1.63574
 Alpha virt. eigenvalues --    1.63955   1.64055   1.65833   1.66105   1.66517
 Alpha virt. eigenvalues --    1.67068   1.67255   1.67606   1.67943   1.68130
 Alpha virt. eigenvalues --    1.68226   1.68766   1.69102   1.69323   1.70025
 Alpha virt. eigenvalues --    1.70516   1.70938   1.71172   1.72097   1.72518
 Alpha virt. eigenvalues --    1.72961   1.72974   1.75038   1.75452   1.76360
 Alpha virt. eigenvalues --    1.76951   1.77105   1.77531   1.77892   1.78955
 Alpha virt. eigenvalues --    1.80286   1.80864   1.81012   1.81142   1.81297
 Alpha virt. eigenvalues --    1.81504   1.82151   1.82334   1.82883   1.83263
 Alpha virt. eigenvalues --    1.83581   1.85769   1.85798   1.87131   1.87350
 Alpha virt. eigenvalues --    1.87552   1.87612   1.89318   1.89420   1.90262
 Alpha virt. eigenvalues --    1.90614   1.91220   1.91406   1.91845   1.92359
 Alpha virt. eigenvalues --    1.92552   1.93553   1.94195   1.94966   1.95606
 Alpha virt. eigenvalues --    1.96652   1.97423   1.98202   1.98266   1.98586
 Alpha virt. eigenvalues --    1.99771   2.00239   2.01028   2.01880   2.02369
 Alpha virt. eigenvalues --    2.03161   2.04101   2.04309   2.04508   2.06683
 Alpha virt. eigenvalues --    2.07892   2.08584   2.09754   2.10606   2.11091
 Alpha virt. eigenvalues --    2.11874   2.13859   2.14771   2.15016   2.16263
 Alpha virt. eigenvalues --    2.16661   2.19268   2.19402   2.20509   2.21267
 Alpha virt. eigenvalues --    2.21775   2.23217   2.24134   2.24870   2.24944
 Alpha virt. eigenvalues --    2.25665   2.26357   2.28019   2.28181   2.30595
 Alpha virt. eigenvalues --    2.32082   2.32107   2.32999   2.33089   2.33780
 Alpha virt. eigenvalues --    2.35805   2.36750   2.38849   2.40084   2.41355
 Alpha virt. eigenvalues --    2.43390   2.44893   2.46221   2.47271   2.47910
 Alpha virt. eigenvalues --    2.48442   2.49067   2.49634   2.50024   2.51131
 Alpha virt. eigenvalues --    2.53367   2.54801   2.55497   2.56274   2.56905
 Alpha virt. eigenvalues --    2.57022   2.58167   2.59892   2.60831   2.61843
 Alpha virt. eigenvalues --    2.62602   2.63402   2.64804   2.64863   2.65506
 Alpha virt. eigenvalues --    2.66145   2.67863   2.68952   2.69177   2.69471
 Alpha virt. eigenvalues --    2.70761   2.71981   2.72526   2.73369   2.73767
 Alpha virt. eigenvalues --    2.74252   2.74504   2.75212   2.75841   2.75934
 Alpha virt. eigenvalues --    2.77182   2.77298   2.78964   2.79441   2.79906
 Alpha virt. eigenvalues --    2.80503   2.82386   2.82781   2.83603   2.84618
 Alpha virt. eigenvalues --    2.85170   2.85325   2.85960   2.86080   2.86544
 Alpha virt. eigenvalues --    2.87309   2.88238   2.88702   2.89195   2.89689
 Alpha virt. eigenvalues --    2.90769   2.91884   2.92028   2.92527   2.93112
 Alpha virt. eigenvalues --    2.93401   2.94359   2.95410   2.95733   2.96223
 Alpha virt. eigenvalues --    2.96649   2.97052   2.98149   2.98251   2.99681
 Alpha virt. eigenvalues --    3.00482   3.01021   3.01454   3.02452   3.03209
 Alpha virt. eigenvalues --    3.04443   3.04472   3.05201   3.07192   3.07315
 Alpha virt. eigenvalues --    3.08722   3.09223   3.10045   3.10075   3.10438
 Alpha virt. eigenvalues --    3.11038   3.11735   3.11874   3.12704   3.13349
 Alpha virt. eigenvalues --    3.13734   3.15213   3.15754   3.16276   3.16349
 Alpha virt. eigenvalues --    3.17190   3.19072   3.19170   3.20633   3.20668
 Alpha virt. eigenvalues --    3.20824   3.21663   3.21866   3.22499   3.22840
 Alpha virt. eigenvalues --    3.23653   3.24411   3.25782   3.25838   3.26181
 Alpha virt. eigenvalues --    3.26705   3.26766   3.27995   3.28229   3.29801
 Alpha virt. eigenvalues --    3.30752   3.30916   3.31986   3.33234   3.33847
 Alpha virt. eigenvalues --    3.34503   3.34572   3.35087   3.36196   3.36526
 Alpha virt. eigenvalues --    3.36842   3.37776   3.37947   3.38455   3.38541
 Alpha virt. eigenvalues --    3.40057   3.40889   3.41544   3.42362   3.42568
 Alpha virt. eigenvalues --    3.43320   3.44539   3.44659   3.45119   3.45671
 Alpha virt. eigenvalues --    3.46497   3.46727   3.47554   3.47826   3.49183
 Alpha virt. eigenvalues --    3.50073   3.50096   3.50364   3.50885   3.51186
 Alpha virt. eigenvalues --    3.51843   3.52808   3.53572   3.53809   3.53984
 Alpha virt. eigenvalues --    3.54688   3.55679   3.55693   3.56013   3.56043
 Alpha virt. eigenvalues --    3.57541   3.57777   3.58464   3.59881   3.60177
 Alpha virt. eigenvalues --    3.60627   3.61001   3.62056   3.63843   3.64574
 Alpha virt. eigenvalues --    3.65526   3.66216   3.66379   3.66435   3.69138
 Alpha virt. eigenvalues --    3.69196   3.70107   3.70776   3.72012   3.72719
 Alpha virt. eigenvalues --    3.73701   3.73816   3.74051   3.75656   3.76361
 Alpha virt. eigenvalues --    3.78574   3.79559   3.81185   3.82116   3.82788
 Alpha virt. eigenvalues --    3.82888   3.86658   3.88056   3.89553   3.89778
 Alpha virt. eigenvalues --    3.90976   3.92196   3.92282   3.93014   3.93361
 Alpha virt. eigenvalues --    3.94494   3.95252   3.95301   3.97871   3.98520
 Alpha virt. eigenvalues --    3.99789   4.00747   4.01116   4.03929   4.06387
 Alpha virt. eigenvalues --    4.07248   4.08555   4.08640   4.11147   4.13442
 Alpha virt. eigenvalues --    4.13800   4.13895   4.14189   4.14379   4.14835
 Alpha virt. eigenvalues --    4.15864   4.16552   4.17052   4.18426   4.19014
 Alpha virt. eigenvalues --    4.19239   4.19796   4.21653   4.21974   4.23378
 Alpha virt. eigenvalues --    4.23472   4.25634   4.26087   4.26948   4.27732
 Alpha virt. eigenvalues --    4.28166   4.29321   4.29534   4.30084   4.30252
 Alpha virt. eigenvalues --    4.31569   4.31953   4.32167   4.32839   4.32876
 Alpha virt. eigenvalues --    4.33798   4.33909   4.35347   4.35537   4.36150
 Alpha virt. eigenvalues --    4.37579   4.37976   4.38760   4.42381   4.44026
 Alpha virt. eigenvalues --    4.44856   4.45563   4.47434   4.48972   4.49541
 Alpha virt. eigenvalues --    4.50228   4.51143   4.52988   4.53325   4.53362
 Alpha virt. eigenvalues --    4.55474   4.56440   4.56916   4.57858   4.57927
 Alpha virt. eigenvalues --    4.59750   4.62037   4.64921   4.65884   4.65959
 Alpha virt. eigenvalues --    4.66605   4.69386   4.71859   4.73140   4.74847
 Alpha virt. eigenvalues --    4.75392   4.76638   4.77607   4.78641   4.81973
 Alpha virt. eigenvalues --    4.83039   4.83891   4.85680   4.87204   4.87273
 Alpha virt. eigenvalues --    4.90046   4.90610   4.92245   4.97597   4.98426
 Alpha virt. eigenvalues --    5.00271   5.02609   5.03220   5.04908   5.11494
 Alpha virt. eigenvalues --    5.12428   5.14034   5.16405   5.17671   5.18482
 Alpha virt. eigenvalues --    5.22398   5.26733   5.27701   5.28809   5.30630
 Alpha virt. eigenvalues --    5.32828   5.33317   5.35738   5.37395   5.38756
 Alpha virt. eigenvalues --    5.38763   5.39515   5.41953   5.42782   5.43704
 Alpha virt. eigenvalues --    5.46864   5.50337   5.52660   5.54044   5.55806
 Alpha virt. eigenvalues --    5.58745   5.60682   5.63525   5.69921   5.71897
 Alpha virt. eigenvalues --    5.72645   5.73012   5.73036   5.74005   5.76447
 Alpha virt. eigenvalues --    5.80960   5.86780   5.91082   5.93545   5.93859
 Alpha virt. eigenvalues --    5.95009   5.95624   5.98210   6.03014   6.04748
 Alpha virt. eigenvalues --    6.10366   6.22271   6.22712   6.23808   6.29353
 Alpha virt. eigenvalues --    6.35672   6.38673   6.51220   6.53414   6.53994
 Alpha virt. eigenvalues --    6.54336   6.55096   6.55131   6.61408   6.66577
 Alpha virt. eigenvalues --    6.71717   6.74018   6.78486   6.81414   6.82914
 Alpha virt. eigenvalues --    6.84757   6.85130   6.99893   7.01511   7.01595
 Alpha virt. eigenvalues --    7.02518   7.04218   7.05845   7.06982   7.08775
 Alpha virt. eigenvalues --    7.16890   7.25788   7.26284   7.30449   7.31072
 Alpha virt. eigenvalues --    7.32767   7.45003   7.58788   7.59997   7.67711
 Alpha virt. eigenvalues --    7.76781   7.76817   7.79982   7.81859  22.40393
 Alpha virt. eigenvalues --   22.41368  22.66599  22.70023  22.77280  22.90518
 Alpha virt. eigenvalues --   22.93305  22.94174  22.99252  22.99720  23.06248
 Alpha virt. eigenvalues --   23.12184  23.18640  23.23486  23.23526  23.44322
 Alpha virt. eigenvalues --   23.56530  23.69755  23.74938  23.86914  44.18499
 Alpha virt. eigenvalues --   44.19886  44.21113  44.27206  44.75457
          Condensed to atoms (all electrons):
               1          2          3          4          5          6
     1  C    5.479734  -0.205597   0.073272  -0.258564   0.025730  -0.116801
     2  C   -0.205597   6.779226  -0.148263   0.110484  -0.257620  -0.155443
     3  C    0.073272  -0.148263   5.981194  -0.128057  -0.022893  -0.224053
[...]
    23  H   -0.000028   0.000079  -0.000666   0.004250  -0.002375   0.000126
    24  C   -0.000028   0.000020  -0.000290  -0.004837   0.007476  -0.000088
    25  C   -0.000004   0.000005  -0.000031   0.003728  -0.003400  -0.000117
    26  H    0.000000   0.000000  -0.000006  -0.000263   0.000132   0.000005
    27  H    0.000000  -0.000000  -0.000002  -0.000202   0.000071  -0.000006
    28  H    0.000000   0.000000  -0.000000   0.000007  -0.000016  -0.000000
    29  C    0.000050  -0.000189  -0.001149  -0.032105  -0.020468   0.002197
    30  O   -0.000005   0.000006  -0.000103  -0.000579  -0.000510   0.000119
    31  O    0.000232  -0.000608   0.006790   0.001611   0.003501  -0.002127
    32  Br  -0.155636   0.562522  -0.239731   0.001712  -0.001402   0.007875
    33  Br   0.000138   0.000696   0.002322  -0.002412  -0.000024  -0.000019
    34  Br  -0.000000   0.000000  -0.000017   0.000138  -0.000003  -0.000000
    35  Br  -0.145410   0.007762  -0.002552   0.008622  -0.178182   0.491831
               7          8          9         10         11         12
     1  C    0.019646  -0.007302   0.009769  -0.000477  -0.000060   0.000003
     2  C    0.002543   0.023911  -0.019602  -0.025353  -0.000547  -0.000430
     3  C    0.153620  -0.264554  -0.038906  -0.019535   0.009339  -0.002472
     4  C   -0.841782   0.681309  -0.283506   0.025185  -0.007361   0.001842
     5  C   -0.093700   0.094163   0.002950   0.003384  -0.000229   0.000414
     6  C   -0.001931   0.001301  -0.003409  -0.000508   0.000002  -0.000015
     7  C    8.048660  -0.799517   0.187704  -0.002294   0.020828   0.000308
     8  C   -0.799517   6.946113  -0.210640   0.124949  -0.269941   0.178788
     9  C    0.187704  -0.210640   6.042710  -0.175868   0.083204  -0.229954
    10  C   -0.002294   0.124949  -0.175868   6.803802  -0.206853  -0.135821
    11  C    0.020828  -0.269941   0.083204  -0.206853   5.445775  -0.117493
    12  C    0.000308   0.178788  -0.229954  -0.135821  -0.117493   6.148974
    13  C   -0.090676  -0.036350  -0.043351  -0.261095   0.027045   0.034104
    14  H    0.008736  -0.001740   0.000389   0.000050  -0.000002  -0.000000
    15  H    0.005395  -0.047818   0.007567  -0.004033   0.012934  -0.006254
    16  O    0.004261  -0.061355   0.291302  -0.072981  -0.001739  -0.001075
    17  O   -0.000043  -0.008171   0.002636  -0.195481   0.702999  -0.179219
    18  O   -0.000072  -0.000001   0.000060  -0.000005  -0.000000   0.000000
    19  C   -0.533860  -0.447202   0.117452  -0.012169   0.001334  -0.005893
    20  C   -0.399089   0.054196   0.006136   0.000050   0.000045   0.000937
    21  C   -0.099868   0.088888  -0.007302   0.000542  -0.000207   0.001063
    22  C   -0.014796  -0.003266   0.000221   0.000023  -0.000026   0.000077
    23  H   -0.049613   0.009480  -0.000296  -0.000050  -0.000005  -0.000123
    24  C    0.019059  -0.004882  -0.000600   0.000047  -0.000036   0.000490
    25  C   -0.018572   0.004999   0.000084  -0.000007   0.000002  -0.000283
    26  H    0.000278  -0.000293  -0.000008   0.000000   0.000000   0.000009
    27  H   -0.001554  -0.000085  -0.000005   0.000000  -0.000000   0.000006
    28  H    0.000048   0.000007   0.000000  -0.000000   0.000000  -0.000001
    29  C   -0.172944  -0.016620  -0.001767  -0.000310   0.000035   0.000604
    30  O   -0.005313  -0.000017  -0.000049   0.000000  -0.000001   0.000027
    31  O   -0.052500  -0.011628   0.002250  -0.000656   0.000273  -0.002768
    32  Br  -0.002270  -0.002492   0.002457   0.000906   0.000139  -0.000018
    33  Br  -0.002055   0.003267  -0.239406   0.561168  -0.156326   0.008056
    34  Br  -0.003753   0.007138  -0.003549   0.008710  -0.145718   0.491111
    35  Br  -0.004416   0.000100  -0.000018   0.000000  -0.000000  -0.000000
              13         14         15         16         17         18
     1  C   -0.000272   0.013140  -0.000002  -0.001822  -0.000000   0.706030
     2  C    0.003101  -0.003806   0.000048  -0.073510  -0.000005  -0.196100
     3  C   -0.001804   0.005792   0.000318   0.292082   0.000060   0.002577
     4  C    0.106412  -0.053644  -0.002295  -0.059504  -0.000003  -0.008511
     5  C   -0.005033   0.383652  -0.000168   0.005074  -0.000000   0.005947
     6  C    0.000535  -0.004485   0.000006  -0.001066   0.000000  -0.180803
     7  C   -0.090676   0.008736   0.005395   0.004261  -0.000043  -0.000072
     8  C   -0.036350  -0.001740  -0.047818  -0.061355  -0.008171  -0.000001
     9  C   -0.043351   0.000389   0.007567   0.291302   0.002636   0.000060
    10  C   -0.261095   0.000050  -0.004033  -0.072981  -0.195481  -0.000005
    11  C    0.027045  -0.000002   0.012934  -0.001739   0.702999  -0.000000
    12  C    0.034104  -0.000000  -0.006254  -0.001075  -0.179219   0.000000
    13  C    6.469333  -0.000206   0.380736   0.005244   0.005902  -0.000000
    14  H   -0.000206   0.495574  -0.000019  -0.000067   0.000000   0.000203
    15  H    0.380736  -0.000019   0.497162  -0.000078   0.000181   0.000000
    16  O    0.005244  -0.000067  -0.000078   8.181099  -0.000018  -0.000016
    17  O    0.005902   0.000000   0.000181  -0.000018   8.331213  -0.000000
    18  O   -0.000000   0.000203   0.000000  -0.000016  -0.000000   8.330452
    19  C   -0.185082   0.011032   0.006120  -0.000968  -0.000016  -0.000016
    20  C   -0.048528  -0.005248  -0.006365   0.000072   0.000001   0.000000
    21  C    0.006270  -0.013247  -0.005742   0.000266   0.000001   0.000001
    22  C   -0.000440   0.001623   0.000145  -0.000003  -0.000000  -0.000000
    23  H   -0.002695  -0.000171   0.000073  -0.000001  -0.000000   0.000000
    24  C    0.002065  -0.000185  -0.000517   0.000005   0.000000   0.000000
    25  C   -0.002055  -0.001140  -0.000305   0.000000   0.000000   0.000000
    26  H    0.000106  -0.000003  -0.000015  -0.000000  -0.000000  -0.000000
    27  H   -0.000041   0.000044  -0.000005   0.000000   0.000000   0.000000
    28  H   -0.000003  -0.000008  -0.000004  -0.000000   0.000000   0.000000
    29  C   -0.007537  -0.000962  -0.000362   0.000072  -0.000000  -0.000001
    30  O   -0.000218   0.000011  -0.000027   0.000000  -0.000000  -0.000000
    31  O    0.015013  -0.000255  -0.000013  -0.000024  -0.000000  -0.000000
    32  Br  -0.000023   0.000054   0.000001   0.000424   0.000000   0.005895
    33  Br  -0.001490   0.000001   0.000053   0.000025   0.005783   0.000000
    34  Br  -0.176973   0.000000   0.002159   0.000016   0.005841  -0.000000
    35  Br  -0.000002   0.002547   0.000000   0.000018  -0.000000   0.005983
              19         20         21         22         23         24
     1  C    0.001333   0.000144  -0.000621  -0.000004  -0.000028  -0.000028
     2  C   -0.011475  -0.000214   0.001515  -0.000035   0.000079   0.000020
     3  C    0.108729   0.004572  -0.008784   0.000553  -0.000666  -0.000290
     4  C   -0.525170   0.030243   0.094080  -0.000078   0.004250  -0.004837
     5  C   -0.178220  -0.039926   0.005602   0.002477  -0.002375   0.007476
     6  C   -0.001694  -0.000540   0.003869  -0.000456   0.000126  -0.000088
     7  C   -0.533860  -0.399089  -0.099868  -0.014796  -0.049613   0.019059
     8  C   -0.447202   0.054196   0.088888  -0.003266   0.009480  -0.004882
     9  C    0.117452   0.006136  -0.007302   0.000221  -0.000296  -0.000600
    10  C   -0.012169   0.000050   0.000542   0.000023  -0.000050   0.000047
    11  C    0.001334   0.000045  -0.000207  -0.000026  -0.000005  -0.000036
    12  C   -0.005893   0.000937   0.001063   0.000077  -0.000123   0.000490
    13  C   -0.185082  -0.048528   0.006270  -0.000440  -0.002695   0.002065
    14  H    0.011032  -0.005248  -0.013247   0.001623  -0.000171  -0.000185
    15  H    0.006120  -0.006365  -0.005742   0.000145   0.000073  -0.000517
    16  O   -0.000968   0.000072   0.000266  -0.000003  -0.000001   0.000005
    17  O   -0.000016   0.000001   0.000001  -0.000000  -0.000000   0.000000
    18  O   -0.000016   0.000000   0.000001  -0.000000   0.000000   0.000000
    19  C    7.752142   0.277069  -0.223048   0.176351  -0.082669   0.095110
    20  C    0.277069   5.653654   0.221019   0.226333   0.499834  -0.190108
    21  C   -0.223048   0.221019   7.077450  -0.217717   0.035117   0.071978
    22  C    0.176351   0.226333  -0.217717   5.120328  -0.072132   0.135905
    23  H   -0.082669   0.499834   0.035117  -0.072132   0.568736  -0.009379
    24  C    0.095110  -0.190108   0.071978   0.135905  -0.009379   5.400780
    25  C   -0.206074   0.172091   0.195216   0.232575   0.016058   0.195725
    26  H    0.014543  -0.079453  -0.005106   0.485895  -0.004488   0.014516
    27  H    0.023187  -0.008406  -0.106025   0.015077   0.000013   0.452379
    28  H   -0.005940   0.014991   0.017519  -0.077126  -0.000014  -0.075617
    29  C    0.021840   0.044148  -0.292539  -0.013182   0.002271  -0.107674
    30  O   -0.001150   0.001055  -0.338922   0.000438   0.000029   0.014974
    31  O   -0.004003   0.010486  -0.280999  -0.001055   0.000239   0.012115
    32  Br  -0.000041   0.000002   0.000004   0.000000  -0.000000   0.000000
    33  Br  -0.000020   0.000002   0.000000   0.000000   0.000000   0.000000
    34  Br  -0.001454   0.000461   0.000418  -0.000035  -0.000004  -0.000034
    35  Br  -0.001232   0.000372   0.000300  -0.000054   0.000006  -0.000023
              25         26         27         28         29         30
     1  C   -0.000004   0.000000   0.000000   0.000000   0.000050  -0.000005
     2  C    0.000005   0.000000  -0.000000   0.000000  -0.000189   0.000006
     3  C   -0.000031  -0.000006  -0.000002  -0.000000  -0.001149  -0.000103
     4  C    0.003728  -0.000263  -0.000202   0.000007  -0.032105  -0.000579
     5  C   -0.003400   0.000132   0.000071  -0.000016  -0.020468  -0.000510
     6  C   -0.000117   0.000005  -0.000006  -0.000000   0.002197   0.000119
     7  C   -0.018572   0.000278  -0.001554   0.000048  -0.172944  -0.005313
     8  C    0.004999  -0.000293  -0.000085   0.000007  -0.016620  -0.000017
     9  C    0.000084  -0.000008  -0.000005   0.000000  -0.001767  -0.000049
    10  C   -0.000007   0.000000   0.000000  -0.000000  -0.000310   0.000000
    11  C    0.000002   0.000000  -0.000000   0.000000   0.000035  -0.000001
    12  C   -0.000283   0.000009   0.000006  -0.000001   0.000604   0.000027
    13  C   -0.002055   0.000106  -0.000041  -0.000003  -0.007537  -0.000218
    14  H   -0.001140  -0.000003   0.000044  -0.000008  -0.000962   0.000011
    15  H   -0.000305  -0.000015  -0.000005  -0.000004  -0.000362  -0.000027
    16  O    0.000000  -0.000000   0.000000  -0.000000   0.000072   0.000000
    17  O    0.000000  -0.000000   0.000000   0.000000  -0.000000  -0.000000
    18  O    0.000000  -0.000000   0.000000   0.000000  -0.000001  -0.000000
    19  C   -0.206074   0.014543   0.023187  -0.005940   0.021840  -0.001150
    20  C    0.172091  -0.079453  -0.008406   0.014991   0.044148   0.001055
    21  C    0.195216  -0.005106  -0.106025   0.017519  -0.292539  -0.338922
    22  C    0.232575   0.485895   0.015077  -0.077126  -0.013182   0.000438
    23  H    0.016058  -0.004488   0.000013  -0.000014   0.002271   0.000029
    24  C    0.195725   0.014516   0.452379  -0.075617  -0.107674   0.014974
    25  C    5.167248  -0.077311  -0.045121   0.481547   0.023763   0.003935
    26  H   -0.077311   0.567479   0.000040  -0.005837   0.000141   0.000004
    27  H   -0.045121   0.000040   0.555251  -0.004983  -0.003784   0.032258
    28  H    0.481547  -0.005837  -0.004983   0.570643   0.000083  -0.000183
    29  C    0.023763   0.000141  -0.003784   0.000083   4.554916   0.656301
    30  O    0.003935   0.000004   0.032258  -0.000183   0.656301   8.485092
    31  O    0.000543  -0.000000   0.001309   0.000009   0.626670  -0.114948
    32  Br   0.000000  -0.000000  -0.000000   0.000000  -0.000003  -0.000000
    33  Br   0.000000  -0.000000  -0.000000   0.000000  -0.000001  -0.000000
    34  Br   0.000028  -0.000000  -0.000001   0.000000   0.000025  -0.000000
    35  Br   0.000032  -0.000001  -0.000001   0.000000   0.000173  -0.000005
              31         32         33         34         35
     1  C    0.000232  -0.155636   0.000138  -0.000000  -0.145410
     2  C   -0.000608   0.562522   0.000696   0.000000   0.007762
     3  C    0.006790  -0.239731   0.002322  -0.000017  -0.002552
     4  C    0.001611   0.001712  -0.002412   0.000138   0.008622
     5  C    0.003501  -0.001402  -0.000024  -0.000003  -0.178182
     6  C   -0.002127   0.007875  -0.000019  -0.000000   0.491831
     7  C   -0.052500  -0.002270  -0.002055  -0.003753  -0.004416
     8  C   -0.011628  -0.002492   0.003267   0.007138   0.000100
     9  C    0.002250   0.002457  -0.239406  -0.003549  -0.000018
    10  C   -0.000656   0.000906   0.561168   0.008710   0.000000
    11  C    0.000273   0.000139  -0.156326  -0.145718  -0.000000
    12  C   -0.002768  -0.000018   0.008056   0.491111  -0.000000
    13  C    0.015013  -0.000023  -0.001490  -0.176973  -0.000002
    14  H   -0.000255   0.000054   0.000001   0.000000   0.002547
    15  H   -0.000013   0.000001   0.000053   0.002159   0.000000
    16  O   -0.000024   0.000424   0.000025   0.000016   0.000018
    17  O   -0.000000   0.000000   0.005783   0.005841  -0.000000
    18  O   -0.000000   0.005895   0.000000  -0.000000   0.005983
    19  C   -0.004003  -0.000041  -0.000020  -0.001454  -0.001232
    20  C    0.010486   0.000002   0.000002   0.000461   0.000372
    21  C   -0.280999   0.000004   0.000000   0.000418   0.000300
    22  C   -0.001055   0.000000   0.000000  -0.000035  -0.000054
    23  H    0.000239  -0.000000   0.000000  -0.000004   0.000006
    24  C    0.012115   0.000000   0.000000  -0.000034  -0.000023
    25  C    0.000543   0.000000   0.000000   0.000028   0.000032
    26  H   -0.000000  -0.000000  -0.000000  -0.000000  -0.000001
    27  H    0.001309  -0.000000  -0.000000  -0.000001  -0.000001
    28  H    0.000009   0.000000   0.000000   0.000000   0.000000
    29  C    0.626670  -0.000003  -0.000001   0.000025   0.000173
    30  O   -0.114948  -0.000000  -0.000000  -0.000000  -0.000005
    31  O    8.503798  -0.000001  -0.000001  -0.000003  -0.000010
    32  Br  -0.000001  34.911158  -0.003270  -0.000000  -0.000600
    33  Br  -0.000001  -0.003270  34.912556  -0.000603  -0.000000
    34  Br  -0.000003  -0.000000  -0.000603  34.912784  -0.000000
    35  Br  -0.000010  -0.000600  -0.000000  -0.000000  34.910962
 Mulliken charges:
               1
     1  C    0.588426
     2  C   -0.390111
     3  C    0.448577
     4  C    0.003258
     5  C   -0.236860
     6  C   -0.162541
     7  C    0.719533
     8  C   -0.024734
     9  C    0.501344
    10  C   -0.415317
    11  C    0.602587
    12  C   -0.184991
    13  C   -0.191990
    14  H    0.162344
    15  H    0.161124
    16  O   -0.505733
    17  O   -0.671661
    18  O   -0.671623
    19  C   -0.178844
    20  C   -0.440036
    21  C   -0.220986
    22  C    0.002386
    23  H    0.088398
    24  C   -0.028346
    25  C   -0.143159
    26  H    0.089637
    27  H    0.090582
    28  H    0.084881
    29  C    0.738306
    30  O   -0.732220
    31  O   -0.713239
    32  Br  -0.087664
    33  Br  -0.088441
    34  Br  -0.096682
    35  Br  -0.096204
 Sum of Mulliken charges =  -2.00000
 Mulliken charges with hydrogens summed into heavy atoms:
               1
     1  C    0.588426
     2  C   -0.390111
     3  C    0.448577
     4  C    0.003258
     5  C   -0.074516
     6  C   -0.162541
     7  C    0.719533
     8  C   -0.024734
     9  C    0.501344
    10  C   -0.415317
    11  C    0.602587
    12  C   -0.184991
    13  C   -0.030866
    16  O   -0.505733
    17  O   -0.671661
    18  O   -0.671623
    19  C   -0.178844
    20  C   -0.351638
    21  C   -0.220986
    22  C    0.092023
    24  C    0.062236
    25  C   -0.058278
    29  C    0.738306
    30  O   -0.732220
    31  O   -0.713239
    32  Br  -0.087664
    33  Br  -0.088441
    34  Br  -0.096682
    35  Br  -0.096204
 Electronic spatial extent (au):  <R**2>=          20290.4764
 Charge=             -2.0000 electrons
 Dipole moment (field-independent basis, Debye):
    X=              1.1188    Y=             -0.2273    Z=            -11.7829  Tot=             11.8380
 Quadrupole moment (field-independent basis, Debye-Ang):
   XX=           -347.2430   YY=           -281.9592   ZZ=           -247.6409
   XY=              3.8701   XZ=              3.4070   YZ=            -37.9357
 Traceless Quadrupole moment (field-independent basis, Debye-Ang):
   XX=            -54.9620   YY=             10.3219   ZZ=             44.6401
   XY=              3.8701   XZ=              3.4070   YZ=            -37.9357
 Octapole moment (field-independent basis, Debye-Ang**2):
  XXX=            -12.3507  YYY=           -208.8582  ZZZ=           -114.0535  XYY=             29.6007
  XXY=            100.3634  XXZ=             12.9140  XZZ=             17.9266  YZZ=           -154.0703
  YYZ=           -139.4878  XYZ=             17.7105
 Hexadecapole moment (field-independent basis, Debye-Ang**3):
 XXXX=         -14996.7003 YYYY=          -9277.5252 ZZZZ=          -1526.2936 XXXY=             -3.5510
 XXXZ=             -1.6262 YYYX=             81.4708 YYYZ=           -593.6340 ZZZX=             52.9538
 ZZZY=           -395.3371 XXYY=          -3988.5469 XXZZ=          -2239.8286 YYZZ=          -2050.4158
 XXYZ=             -1.6073 YYXZ=             71.1307 ZZXY=             69.0760
 N-N= 4.990134620211D+03 E-N=-3.733063874634D+04  KE= 1.142489842098D+04
 Leave Link  601 at Sat Feb 12 15:18:28 2022, MaxMem=  5242880000 cpu:         5.5
 (Enter /opt/nce/packages/global/g09/l9999.exe)
 1\1\GINC-CN001\SP\RM06L TD-FC\Gen\C20H6Br4O5(2-)\PNG4RJV\12-Feb-2022\0
 \\#p m06l chkbasis geom=allcheck Guess=Read int=ultrafine scrf=(SMD,so
 lvent=Acetonitrile) td=(NStates=30)\\Title\\-2,1\C,0,-5.0562966168,-2.
 2641928132,1.540993531\C,0,-3.6967466921,-1.9063700773,1.2131856244\C,
 0,-3.3789511677,-0.9204843487,0.3089191552\C,0,-4.379488096,-0.1807658
 415,-0.3689670865\C,0,-5.7260655679,-0.4979907026,-0.0760806294\C,0,-6
 .0417697076,-1.4715319753,0.8170392218\C,0,-4.0000573173,0.8277623337,
 -1.2671531682\C,0,-2.6359463001,1.0374831912,-1.5166003792\C,0,-1.6737
 611891,0.2702748795,-0.8141969397\C,0,-0.3242174366,0.4498332109,-1.00
 80957967\C,0,0.2149252919,1.4262830887,-1.9245254851\C,0,-0.8179652279
 ,2.1923257526,-2.6100907163\C,0,-2.1504786039,2.0107721833,-2.42026363
 31\H,0,-6.5063725037,0.0578621315,-0.5796183826\H,0,-2.8685818938,2.61
 72517481,-2.9567590302\O,0,-2.0652240974,-0.6732103517,0.0781823087\O,
 0,1.4267063795,1.5990323646,-2.1126095431\O,0,-5.3586630107,-3.1526774
 306,2.3490204471\C,0,-5.0247167462,1.5245020518,-2.0847636551\C,0,-5.3
 102596735,0.9792351934,-3.3381454648\C,0,-5.7128271684,2.6654521057,-1
 .6543838902\C,0,-6.2618658534,1.5529453094,-4.1657863031\H,0,-4.776002
 9816,0.0931130382,-3.6621204087\C,0,-6.6708001101,3.2227676571,-2.4988
 031314\C,0,-6.9472158174,2.6836150148,-3.7436644245\H,0,-6.4657284976,
 1.1161067515,-5.135527553\H,0,-7.1920246142,4.1025618924,-2.1416500208
 \H,0,-7.6923358898,3.1401180103,-4.3839307571\C,0,-5.4276065281,3.3103
 096669,-0.3026432341\O,0,-6.1887081661,4.2373986441,0.0504353736\O,0,-
 4.4435387974,2.8489196217,0.3239934252\Br,0,-2.3198535882,-2.863882667
 3,2.0840443307\Br,0,0.9146642652,-0.6111848679,-0.0540148996\Br,0,-0.2
 11563814,3.5126110418,-3.8313927658\Br,0,-7.8637372626,-1.8658108071,1
 .1766788808\\Version=ES64L-G09RevE.01\State=1-A\HF=-11438.7089457\RMSD
 =8.926e-09\PG=C01 [X(C20H6Br4O5)]\\@


 LENDING MONEY TO FRIENDS CAUSES THEM TO LOSE THEIR MEMORIES.

    --  PETER'S THEORY OF RECIPROCAL INHIBITION OF FISCAL RECALL
 Job cpu time:       1 days 19 hours  3 minutes  7.9 seconds.
 File lengths (MBytes):  RWF=   4853 Int=      0 D2E=      0 Chk=    955 Scr=      1
 Normal termination of Gaussian 09 at Sat Feb 12 15:18:30 2022.
