
                                 *****************
                                 * O   R   C   A *
                                 *****************

                                            #,                                       
                                            ###                                      
                                            ####                                     
                                            #####                                    
                                            ######                                   
                                           ########,                                 
                                     ,,################,,,,,                         
                               ,,#################################,,                 
                          ,,##########################################,,             
                       ,#########################################, ''#####,          
                    ,#############################################,,   '####,        
                  ,##################################################,,,,####,       
                ,###########''''           ''''###############################       
              ,#####''   ,,,,##########,,,,          '''####'''          '####       
            ,##' ,,,,###########################,,,                        '##       
           ' ,,###''''                  '''############,,,                           
         ,,##''                                '''############,,,,        ,,,,,,###''
      ,#''                                            '''#######################'''  
     '                                                          ''''####''''         
             ,#######,   #######,   ,#######,      ##                                
            ,#'     '#,  ##    ##  ,#'     '#,    #''#        ######   ,####,        
            ##       ##  ##   ,#'  ##            #'  '#       #        #'  '#        
            ##       ##  #######   ##           ,######,      #####,   #    #        
            '#,     ,#'  ##    ##  '#,     ,#' ,#      #,         ##   #,  ,#        
             '#######'   ##     ##  '#######'  #'      '#     #####' # '####'        



                  #######################################################
                  #                        -***-                        #
                  #          Department of theory and spectroscopy      #
                  #    Directorship and core code : Frank Neese         #
                  #        Max Planck Institute fuer Kohlenforschung    #
                  #                Kaiser Wilhelm Platz 1               #
                  #                 D-45470 Muelheim/Ruhr               #
                  #                      Germany                        #
                  #                                                     #
                  #                  All rights reserved                #
                  #                        -***-                        #
                  #######################################################


                         Program Version 5.0.2 -  RELEASE  -


 With contributions from (in alphabetic order):
   Daniel Aravena         : Magnetic Suceptibility
   Michael Atanasov       : Ab Initio Ligand Field Theory (pilot matlab implementation)
   Alexander A. Auer      : GIAO ZORA, VPT2 properties, NMR spectrum
   Ute Becker             : Parallelization
   Giovanni Bistoni       : ED, misc. LED, open-shell LED, HFLD
   Martin Brehm           : Molecular dynamics
   Dmytro Bykov           : SCF Hessian
   Vijay G. Chilkuri      : MRCI spin determinant printing, contributions to CSF-ICE
   Dipayan Datta          : RHF DLPNO-CCSD density
   Achintya Kumar Dutta   : EOM-CC, STEOM-CC
   Dmitry Ganyushin       : Spin-Orbit,Spin-Spin,Magnetic field MRCI
   Miquel Garcia          : C-PCM and meta-GGA Hessian, CC/C-PCM, Gaussian charge scheme
   Yang Guo               : DLPNO-NEVPT2, F12-NEVPT2, CIM, IAO-localization
   Andreas Hansen         : Spin unrestricted coupled pair/coupled cluster methods
   Benjamin Helmich-Paris : MC-RPA, TRAH-SCF, COSX integrals
   Lee Huntington         : MR-EOM, pCC
   Robert Izsak           : Overlap fitted RIJCOSX, COSX-SCS-MP3, EOM
   Marcus Kettner         : VPT2
   Christian Kollmar      : KDIIS, OOCD, Brueckner-CCSD(T), CCSD density, CASPT2, CASPT2-K
   Simone Kossmann        : Meta GGA functionals, TD-DFT gradient, OOMP2, MP2 Hessian
   Martin Krupicka        : Initial AUTO-CI
   Lucas Lang             : DCDCAS
   Marvin Lechner         : AUTO-CI (C++ implementation), FIC-MRCC
   Dagmar Lenk            : GEPOL surface, SMD
   Dimitrios Liakos       : Extrapolation schemes; Compound Job, initial MDCI parallelization
   Dimitrios Manganas     : Further ROCIS development; embedding schemes
   Dimitrios Pantazis     : SARC Basis sets
   Anastasios Papadopoulos: AUTO-CI, single reference methods and gradients
   Taras Petrenko         : DFT Hessian,TD-DFT gradient, ASA, ECA, R-Raman, ABS, FL, XAS/XES, NRVS
   Peter Pinski           : DLPNO-MP2, DLPNO-MP2 Gradient
   Christoph Reimann      : Effective Core Potentials
   Marius Retegan         : Local ZFS, SOC
   Christoph Riplinger    : Optimizer, TS searches, QM/MM, DLPNO-CCSD(T), (RO)-DLPNO pert. Triples
   Tobias Risthaus        : Range-separated hybrids, TD-DFT gradient, RPA, STAB
   Michael Roemelt        : Original ROCIS implementation
   Masaaki Saitow         : Open-shell DLPNO-CCSD energy and density
   Barbara Sandhoefer     : DKH picture change effects
   Avijit Sen             : IP-ROCIS
   Kantharuban Sivalingam : CASSCF convergence, NEVPT2, FIC-MRCI
   Bernardo de Souza      : ESD, SOC TD-DFT
   Georgi Stoychev        : AutoAux, RI-MP2 NMR, DLPNO-MP2 response
   Willem Van den Heuvel  : Paramagnetic NMR
   Boris Wezisla          : Elementary symmetry handling
   Frank Wennmohs         : Technical directorship


 We gratefully acknowledge several colleagues who have allowed us to
 interface, adapt or use parts of their codes:
   Stefan Grimme, W. Hujo, H. Kruse, P. Pracht,  : VdW corrections, initial TS optimization,
                  C. Bannwarth, S. Ehlert          DFT functionals, gCP, sTDA/sTD-DF
   Ed Valeev, F. Pavosevic, A. Kumar             : LibInt (2-el integral package), F12 methods
   Garnet Chan, S. Sharma, J. Yang, R. Olivares  : DMRG
   Ulf Ekstrom                                   : XCFun DFT Library
   Mihaly Kallay                                 : mrcc  (arbitrary order and MRCC methods)
   Jiri Pittner, Ondrej Demel                    : Mk-CCSD
   Frank Weinhold                                : gennbo (NPA and NBO analysis)
   Christopher J. Cramer and Donald G. Truhlar   : smd solvation model
   Lars Goerigk                                  : TD-DFT with DH, B97 family of functionals
   V. Asgeirsson, H. Jonsson                     : NEB implementation
   FAccTs GmbH                                   : IRC, NEB, NEB-TS, DLPNO-Multilevel, CI-OPT
                                                   MM, QMMM, 2- and 3-layer-ONIOM, Crystal-QMMM,
                                                   LR-CPCM, SF, NACMEs, symmetry and pop. for TD-DFT,
                                                   nearIR, NL-DFT gradient (VV10), updates on ESD,
                                                   ML-optimized integration grids
   S Lehtola, MJT Oliveira, MAL Marques          : LibXC Library
   Liviu Ungur et al                             : ANISO software


 Your calculation uses the libint2 library for the computation of 2-el integrals
 For citations please refer to: http://libint.valeyev.net

 Your ORCA version has been built with support for libXC version: 5.1.0
 For citations please refer to: https://tddft.org/programs/libxc/

 This ORCA versions uses:
   CBLAS   interface :  Fast vector & matrix operations
   LAPACKE interface :  Fast linear algebra routines
   SCALAPACK package :  Parallel linear algebra routines
   Shared memory     :  Shared parallel matrices
   BLAS/LAPACK       :  OpenBLAS 0.3.15  USE64BITINT DYNAMIC_ARCH NO_AFFINITY Zen SINGLE_THREADED
        Core in use  :  Zen
   Copyright (c) 2011-2014, The OpenBLAS Project


Your calculation utilizes the atom-pairwise dispersion correction
with the Becke-Johnson damping scheme (D3BJ)
Cite in your paper:
S.Grimme, S.Ehrlich, L.Goerigk, J Comput Chem, (2011), 32, 1456–1465 
S.Grimme, J.Antony, S.Ehrlich and H.Krieg, J.Chem.Phys., 132, (2010), 154104 
   

Your calculation utilizes the SMD solvation module
Please cite in your paper:
A.V. Marenich, C.J. Cramer, D.G. Truhlar J. Phys. Chem. B, 113, (2009), 6378 

================================================================================

----- Orbital basis set information -----
Your calculation utilizes the basis: def2-TZVP
   F. Weigend and R. Ahlrichs, Phys. Chem. Chem. Phys. 7, 3297 (2005).

----- AuxJ basis set information -----
Your calculation utilizes the auxiliary basis: def2/J
   F. Weigend, Phys. Chem. Chem. Phys. 8, 1057 (2006).

----- AuxC basis set information -----
Your calculation utilizes the auxiliary basis: def2-TZVP/C
  H-La, Hf-Rn : A. Hellweg, C. Hattig, S. Hofener and W. Klopper, Theor. Chem. Acc. 117, 587 (2007).
        Ce-Lu : J. Chmela and M. E. Harding, Mol. Phys. (2018).

================================================================================
                                        WARNINGS
                       Please study these warnings very carefully!
================================================================================

INFO   : Checking CIS options ...
  ===> : (D) CORRECTION FOUND - SETTING MODE=3
  ===> : JK MODE FOUND - ACTIVATING RI-MP2 CODE
  ===> : MP2 AND CIS FOUND - CHECKING
WARNING: CIS(D) and MP2 runs must have the same orbital window
  ===> : adjusting orbital windows

WARNING: No MP2 level density has been requested!
         To caclulate MP2 level properties use
         %mp2 Density relaxed end
         or
         %mp2 Density unrelaxed end
         Otherwise for double-hybrid DFT only the energy is correct!

WARNING: There are different parametrizations of Gershom Martin's DSD-DFs
         for use with and without D3(BJ)!
         You are using the D3(BJ) parametrized version,
         consistent with the GMTKN55 benchmark (L. Goerigk et al., PCCP 2017, 19, 32184)

WARNING: The frozen-core approximation is turned on by default for 
         the MP2 part of double-hybrid DFT.

WARNING: CIS/ROCIS methods need fully converged wavefunctions
  ===> : Setting SCFConvForced true
         You can overwrite this default with %scf ConvForced false 


INFO   : the flag for use of the SHARK integral package has been found!

================================================================================
                                       INPUT FILE
================================================================================
NAME = Eos_Y_M06L_def2TZVP_coords_Nanelkul.inp
|  1> %maxcore 20000
|  2> %pal
|  3>  nprocs= 4
|  4> end
|  5> ! RI-DSD-BLYP D3BJ def2-TZVP def2/J def2-TZVP/C RIJCOSX CPCM TightSCF
|  6> %TDDFT  
|  7>    NROOTS   30
|  8>    dcorr 4
|  9>    doscs true 
| 10>    scspar 0.333, 1.2, 0.43, 1.24 
| 11>    TDA      FALSE
| 12> END 
| 13>  
| 14>  %CPCM 
| 15>    SMD          TRUE 
| 16>    SMDsolvent   "ACETONITRILE" 
| 17>  END 
| 18>  
| 19> 
| 20> * xyz -2 1
| 21> C                  -3.61009600   -1.22547600   -0.10047400
| 22> C                  -2.28157200   -1.78732300   -0.04367800
| 23> C                  -1.14147600   -1.01942300   -0.07793700
| 24> C                  -1.19740200    0.39332000   -0.17183100
| 25> C                  -2.48014600    0.98582800   -0.22828100
| 26> C                  -3.60743700    0.22874000   -0.19442200
| 27> C                  -0.00374900    1.13013300   -0.18342200
| 28> C                   1.21890500    0.44334400   -0.16235200
| 29> C                   1.22168200   -0.97058000   -0.06966600
| 30> C                   2.39282500   -1.69007500   -0.02658500
| 31> C                   3.69676800   -1.07176300   -0.06393600
| 32> C                   3.63353600    0.38169500   -0.14847000
| 33> C                   2.47584800    1.09034200   -0.19499700
| 34> H                  -2.54584500    2.06402300   -0.29595800
| 35> H                   2.49611900    2.17094400   -0.25162800
| 36> O                   0.05374200   -1.65855700   -0.02115800
| 37> O                   4.76055000   -1.70480200   -0.02845600
| 38> O                  -4.64606200   -1.90363500   -0.07574000
| 39> C                  -0.03296600    2.59655400   -0.41280600
| 40> C                   0.07757000    3.03118300   -1.73518900
| 41> C                  -0.18215500    3.53709900    0.61364800
| 42> C                   0.04654700    4.38066900   -2.04761900
| 43> H                   0.18849700    2.29621500   -2.52456800
| 44> C                  -0.21802200    4.88879200    0.27750000
| 45> C                  -0.10177400    5.31702400   -1.03394000
| 46> H                   0.13728900    4.69664900   -3.07946700
| 47> H                  -0.33801300    5.59639400    1.08877900
| 48> H                  -0.12615100    6.37446700   -1.26794500
| 49> C                  -0.29027500    3.11699500    2.07522800
| 50> O                  -0.56159700    4.01615200    2.90065900
| 51> O                  -0.08619500    1.90139800    2.30893700
| 52> Br                 -2.14595200   -3.66828500    0.07735400
| 53> Br                  2.33728900   -3.57573000    0.08332600
| 54> Br                  5.29813400    1.29255000   -0.19218900
| 55> Br                 -5.30875900    1.06730400   -0.27614200
| 56> *
| 57> 
| 58> 
| 59>                          ****END OF INPUT****
================================================================================

                       ****************************
                       * Single Point Calculation *
                       ****************************

---------------------------------
CARTESIAN COORDINATES (ANGSTROEM)
---------------------------------
  C     -3.610096   -1.225476   -0.100474
  C     -2.281572   -1.787323   -0.043678
  C     -1.141476   -1.019423   -0.077937
  C     -1.197402    0.393320   -0.171831
  C     -2.480146    0.985828   -0.228281
  C     -3.607437    0.228740   -0.194422
  C     -0.003749    1.130133   -0.183422
  C      1.218905    0.443344   -0.162352
  C      1.221682   -0.970580   -0.069666
  C      2.392825   -1.690075   -0.026585
  C      3.696768   -1.071763   -0.063936
  C      3.633536    0.381695   -0.148470
  C      2.475848    1.090342   -0.194997
  H     -2.545845    2.064023   -0.295958
  H      2.496119    2.170944   -0.251628
  O      0.053742   -1.658557   -0.021158
  O      4.760550   -1.704802   -0.028456
  O     -4.646062   -1.903635   -0.075740
  C     -0.032966    2.596554   -0.412806
  C      0.077570    3.031183   -1.735189
  C     -0.182155    3.537099    0.613648
  C      0.046547    4.380669   -2.047619
  H      0.188497    2.296215   -2.524568
  C     -0.218022    4.888792    0.277500
  C     -0.101774    5.317024   -1.033940
  H      0.137289    4.696649   -3.079467
  H     -0.338013    5.596394    1.088779
  H     -0.126151    6.374467   -1.267945
  C     -0.290275    3.116995    2.075228
  O     -0.561597    4.016152    2.900659
  O     -0.086195    1.901398    2.308937
  Br    -2.145952   -3.668285    0.077354
  Br     2.337289   -3.575730    0.083326
  Br     5.298134    1.292550   -0.192189
  Br    -5.308759    1.067304   -0.276142

----------------------------
CARTESIAN COORDINATES (A.U.)
----------------------------
  NO LB      ZA    FRAG     MASS         X           Y           Z
   0 C     6.0000    0    12.011   -6.822093   -2.315814   -0.189868
   1 C     6.0000    0    12.011   -4.311546   -3.377551   -0.082539
   2 C     6.0000    0    12.011   -2.157077   -1.926430   -0.147280
   3 C     6.0000    0    12.011   -2.262762    0.743267   -0.324714
   4 C     6.0000    0    12.011   -4.686797    1.862945   -0.431389
   5 C     6.0000    0    12.011   -6.817068    0.432256   -0.367404
   6 C     6.0000    0    12.011   -0.007085    2.135642   -0.346617
   7 C     6.0000    0    12.011    2.303397    0.837799   -0.306801
   8 C     6.0000    0    12.011    2.308644   -1.834130   -0.131650
   9 C     6.0000    0    12.011    4.521784   -3.193779   -0.050238
  10 C     6.0000    0    12.011    6.985879   -2.025339   -0.120822
  11 C     6.0000    0    12.011    6.866388    0.721299   -0.280568
  12 C     6.0000    0    12.011    4.678675    2.060448   -0.368491
  13 H     1.0000    0     1.008   -4.810950    3.900438   -0.559280
  14 H     1.0000    0     1.008    4.716981    4.102490   -0.475508
  15 O     8.0000    0    15.999    0.101558   -3.134219   -0.039983
  16 O     8.0000    0    15.999    8.996136   -3.221609   -0.053774
  17 O     8.0000    0    15.999   -8.779785   -3.597349   -0.143128
  18 C     6.0000    0    12.011   -0.062297    4.906776   -0.780090
  19 C     6.0000    0    12.011    0.146586    5.728106   -3.279032
  20 C     6.0000    0    12.011   -0.344223    6.684148    1.159627
  21 C     6.0000    0    12.011    0.087961    8.278265   -3.869439
  22 H     1.0000    0     1.008    0.356208    4.339217   -4.770742
  23 C     6.0000    0    12.011   -0.412002    9.238478    0.524399
  24 C     6.0000    0    12.011   -0.192325   10.047719   -1.953863
  25 H     1.0000    0     1.008    0.259439    8.875380   -5.819349
  26 H     1.0000    0     1.008   -0.638752   10.575652    2.057494
  27 H     1.0000    0     1.008   -0.238391   12.045997   -2.396069
  28 C     6.0000    0    12.011   -0.548540    5.890267    3.921613
  29 O     8.0000    0    15.999   -1.061265    7.589427    5.481451
  30 O     8.0000    0    15.999   -0.162885    3.593121    4.363259
  31 Br   35.0000    0    79.900   -4.055262   -6.932054    0.146178
  32 Br   35.0000    0    79.900    4.416836   -6.757150    0.157463
  33 Br   35.0000    0    79.900   10.012022    2.442566   -0.363185
  34 Br   35.0000    0    79.900  -10.032101    2.016912   -0.521833

--------------------------------
INTERNAL COORDINATES (ANGSTROEM)
--------------------------------
 C      0   0   0     0.000000000000     0.00000000     0.00000000
 C      1   0   0     1.443562903237     0.00000000     0.00000000
 C      2   1   0     1.375013810220   123.00662518     0.00000000
 C      3   2   1     1.416963861487   121.71732008     0.03450885
 C      4   3   2     1.414102012621   117.14211633     0.04449379
 C      5   4   3     1.358349612694   121.21688590   359.96205083
 C      4   3   2     1.402795506358   119.38295986   179.07153422
 C      7   4   3     1.402499867785   118.97739168     2.84795273
 C      8   7   4     1.416961355895   119.42808200   357.19730909
 C      9   8   7     1.375174517665   121.72207506   180.92146591
 C     10   9   8     1.443596956839   122.97956149     0.36528677
 C     11  10   9     1.457286670749   112.92316680     0.12023535
 C     12  11  10     1.358155675054   124.01249139   359.67034526
 H      5   4   3     1.082312798111   118.35708226   179.74225594
 H     13  12  11     1.082274764561   120.45039942   179.63826618
 O      9   8   7     1.356373555549   120.44974673     0.95434906
 O     11  10   9     1.238397896253   123.79437738   180.13446015
 O      1   2   3     1.238441340231   123.77500495   179.71711628
 C      7   4   3     1.484540737665   120.22290013   174.07292177
 C     19   7   4     1.396358612114   116.88692070   269.17969370
 C     19   7   4     1.400175013654   123.52896640    88.25495803
 C     20  19   7     1.385527840076   120.99335901   179.33932280
 H     20  19   7     1.084251800088   119.11604855   359.37709741
 C     21  19   7     1.393325477353   118.52506028   181.05982098
 C     24  21  19     1.384475032974   121.76492280   359.57228089
 H     22  20  19     1.082953261257   119.81255423   179.79207129
 H     24  21  19     1.083176830590   117.12294827   179.76946841
 H     25  24  21     1.083299716793   120.30838190   180.41065824
 C     21  19   7     1.524596143776   121.68495830     1.69633926
 O     29  21  19     1.250374053671   116.74999012   187.30893682
 O     29  21  19     1.254569491694   115.72432303     7.74844185
 Br     2   1   3     1.889724735211   117.12746219   180.19873105
 Br    10   9   8     1.889671784793   119.92618453   180.48542399
 Br    12  11  10     1.898013351794   116.22647068   179.62923539
 Br     6   5   4     1.898516338666   119.76494281   180.11815971

---------------------------
INTERNAL COORDINATES (A.U.)
---------------------------
 C      0   0   0     0.000000000000     0.00000000     0.00000000
 C      1   0   0     2.727938544206     0.00000000     0.00000000
 C      2   1   0     2.598399531676   123.00662518     0.00000000
 C      3   2   1     2.677673639875   121.71732008     0.03450885
 C      4   3   2     2.672265529281   117.14211633     0.04449379
 C      5   4   3     2.566908762110   121.21688590   359.96205083
 C      4   3   2     2.650899328913   119.38295986   179.07153422
 C      7   4   3     2.650340652974   118.97739168     2.84795273
 C      8   7   4     2.677668904992   119.42808200   357.19730909
 C      9   8   7     2.598703224734   121.72207506   180.92146591
 C     10   9   8     2.728002896187   122.97956149     0.36528677
 C     11  10   9     2.753872706330   112.92316680     0.12023535
 C     12  11  10     2.566542273083   124.01249139   359.67034526
 H      5   4   3     2.045274779668   118.35708226   179.74225594
 H     13  12  11     2.045202906675   120.45039942   179.63826618
 O      9   8   7     2.563174555281   120.44974673     0.95434906
 O     11  10   9     2.340232868743   123.79437738   180.13446015
 O      1   2   3     2.340314965963   123.77500495   179.71711628
 C      7   4   3     2.805375428836   120.22290013   174.07292177
 C     19   7   4     2.638735361639   116.88692070   269.17969370
 C     19   7   4     2.645947315366   123.52896640    88.25495803
 C     20  19   7     2.618268168667   120.99335901   179.33932280
 H     20  19   7     2.048938962377   119.11604855   359.37709741
 C     21  19   7     2.633003567613   118.52506028   181.05982098
 C     24  21  19     2.616278651572   121.76492280   359.57228089
 H     22  20  19     2.046485079613   119.81255423   179.79207129
 H     24  21  19     2.046907564423   117.12294827   179.76946841
 H     25  24  21     2.047139785693   120.30838190   180.41065824
 C     21  19   7     2.881069176569   121.68495830     1.69633926
 O     29  21  19     2.362864526399   116.74999012   187.30893682
 O     29  21  19     2.370792755275   115.72432303     7.74844185
 Br     2   1   3     3.571062218046   117.12746219   180.19873105
 Br    10   9   8     3.570962156257   119.92618453   180.48542399
 Br    12  11  10     3.586725433417   116.22647068   179.62923539
 Br     6   5   4     3.587675940853   119.76494281   180.11815971

---------------------
BASIS SET INFORMATION
---------------------
There are 4 groups of distinct atoms

 Group   1 Type C   : 11s6p2d1f contracted to 5s3p2d1f pattern {62111/411/11/1}
 Group   2 Type H   : 5s1p contracted to 3s1p pattern {311/1}
 Group   3 Type O   : 11s6p2d1f contracted to 5s3p2d1f pattern {62111/411/11/1}
 Group   4 Type Br  : 17s13p8d1f contracted to 6s5p4d1f pattern {842111/64111/5111/1}

Atom   0C    basis set group =>   1
Atom   1C    basis set group =>   1
Atom   2C    basis set group =>   1
Atom   3C    basis set group =>   1
Atom   4C    basis set group =>   1
Atom   5C    basis set group =>   1
Atom   6C    basis set group =>   1
Atom   7C    basis set group =>   1
Atom   8C    basis set group =>   1
Atom   9C    basis set group =>   1
Atom  10C    basis set group =>   1
Atom  11C    basis set group =>   1
Atom  12C    basis set group =>   1
Atom  13H    basis set group =>   2
Atom  14H    basis set group =>   2
Atom  15O    basis set group =>   3
Atom  16O    basis set group =>   3
Atom  17O    basis set group =>   3
Atom  18C    basis set group =>   1
Atom  19C    basis set group =>   1
Atom  20C    basis set group =>   1
Atom  21C    basis set group =>   1
Atom  22H    basis set group =>   2
Atom  23C    basis set group =>   1
Atom  24C    basis set group =>   1
Atom  25H    basis set group =>   2
Atom  26H    basis set group =>   2
Atom  27H    basis set group =>   2
Atom  28C    basis set group =>   1
Atom  29O    basis set group =>   3
Atom  30O    basis set group =>   3
Atom  31Br   basis set group =>   4
Atom  32Br   basis set group =>   4
Atom  33Br   basis set group =>   4
Atom  34Br   basis set group =>   4
---------------------------------
AUXILIARY/J BASIS SET INFORMATION
---------------------------------
There are 4 groups of distinct atoms

 Group   1 Type C   : 12s5p4d2f1g contracted to 6s4p3d1f1g pattern {711111/2111/211/2/1}
 Group   2 Type H   : 5s2p1d contracted to 3s1p1d pattern {311/2/1}
 Group   3 Type O   : 12s5p4d2f1g contracted to 6s4p3d1f1g pattern {711111/2111/211/2/1}
 Group   4 Type Br  : 19s5p5d3f1g contracted to 8s4p3d2f1g pattern {121111111/2111/311/21/1}

Atom   0C    basis set group =>   1
Atom   1C    basis set group =>   1
Atom   2C    basis set group =>   1
Atom   3C    basis set group =>   1
Atom   4C    basis set group =>   1
Atom   5C    basis set group =>   1
Atom   6C    basis set group =>   1
Atom   7C    basis set group =>   1
Atom   8C    basis set group =>   1
Atom   9C    basis set group =>   1
Atom  10C    basis set group =>   1
Atom  11C    basis set group =>   1
Atom  12C    basis set group =>   1
Atom  13H    basis set group =>   2
Atom  14H    basis set group =>   2
Atom  15O    basis set group =>   3
Atom  16O    basis set group =>   3
Atom  17O    basis set group =>   3
Atom  18C    basis set group =>   1
Atom  19C    basis set group =>   1
Atom  20C    basis set group =>   1
Atom  21C    basis set group =>   1
Atom  22H    basis set group =>   2
Atom  23C    basis set group =>   1
Atom  24C    basis set group =>   1
Atom  25H    basis set group =>   2
Atom  26H    basis set group =>   2
Atom  27H    basis set group =>   2
Atom  28C    basis set group =>   1
Atom  29O    basis set group =>   3
Atom  30O    basis set group =>   3
Atom  31Br   basis set group =>   4
Atom  32Br   basis set group =>   4
Atom  33Br   basis set group =>   4
Atom  34Br   basis set group =>   4
---------------------------------
AUXILIARY/C BASIS SET INFORMATION
---------------------------------
There are 4 groups of distinct atoms

 Group   1 Type C   : 8s6p5d3f1g contracted to 8s6p4d3f1g pattern {11111111/111111/2111/111/1}
 Group   2 Type H   : 4s3p2d contracted to 4s2p1d pattern {1111/21/2}
 Group   3 Type O   : 8s6p5d3f1g contracted to 8s6p4d3f1g pattern {11111111/111111/2111/111/1}
 Group   4 Type Br  : 10s9p8d6f4g1h contracted to 10s9p8d5f4g1h pattern {1111111111/111111111/11111111/21111/1111/1}

Atom   0C    basis set group =>   1
Atom   1C    basis set group =>   1
Atom   2C    basis set group =>   1
Atom   3C    basis set group =>   1
Atom   4C    basis set group =>   1
Atom   5C    basis set group =>   1
Atom   6C    basis set group =>   1
Atom   7C    basis set group =>   1
Atom   8C    basis set group =>   1
Atom   9C    basis set group =>   1
Atom  10C    basis set group =>   1
Atom  11C    basis set group =>   1
Atom  12C    basis set group =>   1
Atom  13H    basis set group =>   2
Atom  14H    basis set group =>   2
Atom  15O    basis set group =>   3
Atom  16O    basis set group =>   3
Atom  17O    basis set group =>   3
Atom  18C    basis set group =>   1
Atom  19C    basis set group =>   1
Atom  20C    basis set group =>   1
Atom  21C    basis set group =>   1
Atom  22H    basis set group =>   2
Atom  23C    basis set group =>   1
Atom  24C    basis set group =>   1
Atom  25H    basis set group =>   2
Atom  26H    basis set group =>   2
Atom  27H    basis set group =>   2
Atom  28C    basis set group =>   1
Atom  29O    basis set group =>   3
Atom  30O    basis set group =>   3
Atom  31Br   basis set group =>   4
Atom  32Br   basis set group =>   4
Atom  33Br   basis set group =>   4
Atom  34Br   basis set group =>   4


           ************************************************************
           *        Program running with 4 parallel MPI-processes     *
           *              working on a common directory               *
           ************************************************************
------------------------------------------------------------------------------
                           ORCA GTO INTEGRAL CALCULATION
                           -- RI-GTO INTEGRALS CHOSEN --
------------------------------------------------------------------------------
------------------------------------------------------------------------------
                   ___                                                        
                  /   \      - P O W E R E D   B Y -                         
                 /     \                                                     
                 |  |  |   _    _      __       _____    __    __             
                 |  |  |  | |  | |    /  \     |  _  \  |  |  /  |          
                  \  \/   | |  | |   /    \    | | | |  |  | /  /          
                 / \  \   | |__| |  /  /\  \   | |_| |  |  |/  /          
                |  |  |   |  __  | /  /__\  \  |    /   |      \           
                |  |  |   | |  | | |   __   |  |    \   |  |\   \          
                \     /   | |  | | |  |  |  |  | |\  \  |  | \   \       
                 \___/    |_|  |_| |__|  |__|  |_| \__\ |__|  \__/        
                                                                              
                      - O R C A' S   B I G   F R I E N D -                    
                                      &                                       
                       - I N T E G R A L  F E E D E R -                       
                                                                              
 v1 FN, 2020, v2 2021                                                         
------------------------------------------------------------------------------


Reading SHARK input file Eos_Y_M06L_def2TZVP_coords_Nanelkul.SHARKINP.tmp ... ok
----------------------
SHARK INTEGRAL PACKAGE
----------------------

Number of atoms                             ...     35
Number of basis functions                   ...   1003
Number of shells                            ...    363
Maximum angular momentum                    ...      3
Integral batch strategy                     ... SHARK/LIBINT Hybrid
RI-J (if used) integral strategy            ... SPLIT-RIJ (Revised 2003 algorithm where possible)
Printlevel                                  ...      1
Contraction scheme used                     ... SEGMENTED contraction
Coulomb Range Separation                    ... NOT USED
Exchange Range Separation                   ... NOT USED
Finite Nucleus Model                        ... NOT USED
Auxiliary Coulomb fitting basis             ... AVAILABLE
   # of basis functions in Aux-J            ...   1523
   # of shells in Aux-J                     ...    477
   Maximum angular momentum in Aux-J        ...      4
Auxiliary J/K fitting basis                 ... NOT available
Auxiliary Correlation fitting basis         ... AVAILABLE
   # of basis functions in Aux-C            ...   2626
   # of shells in Aux-C                     ...    740
   Maximum angular momentum in Aux-C        ...      5
Auxiliary 'external' fitting basis          ... NOT available
Integral threshold                          ...     2.500000e-11
Primitive cut-off                           ...     2.500000e-12
Primitive pair pre-selection threshold      ...     2.500000e-12

Calculating pre-screening integrals         ... done (  0.3 sec) Dimension = 363
Organizing shell pair data                  ... done (  0.8 sec)
Shell pair information
Total number of shell pairs                 ...     66066
Shell pairs after pre-screening             ...     42800
Total number of primitive shell pairs       ...    240610
Primitive shell pairs kept                  ...     92813
          la=0 lb=0:   8419 shell pairs
          la=1 lb=0:  11679 shell pairs
          la=1 lb=1:   3965 shell pairs
          la=2 lb=0:   6588 shell pairs
          la=2 lb=1:   4654 shell pairs
          la=2 lb=2:   1348 shell pairs
          la=3 lb=0:   2776 shell pairs
          la=3 lb=1:   2007 shell pairs
          la=3 lb=2:   1109 shell pairs
          la=3 lb=3:    255 shell pairs

Calculating one electron integrals          ... done (  0.1 sec)
Calculating RI/J V-Matrix + Cholesky decomp.... done (  0.1 sec)
Calculating RI/C V-Matrix + Cholesky decomp.... done (  0.3 sec)
Calculating Nuclear repulsion               ... done (  0.0 sec) ENN=   4990.149222859205 Eh

SHARK setup successfully completed in   2.1 seconds

Maximum memory used throughout the entire GTOINT-calculation: 101.9 MB


           ************************************************************
           *        Program running with 4 parallel MPI-processes     *
           *              working on a common directory               *
           ************************************************************
-------------------------------------------------------------------------------
                                 ORCA SCF
-------------------------------------------------------------------------------

------------
SCF SETTINGS
------------
Hamiltonian:
 Density Functional     Method          .... DFT(GTOs)
 Exchange Functional    Exchange        .... B88
   X-Alpha parameter    XAlpha          ....  0.666667
   Becke's b parameter  XBeta           ....  0.004200
 Correlation Functional Correlation     .... LYP
 LDA part of GGA corr.  LDAOpt          .... VWN-5
 Gradients option       PostSCFGGA      .... off
 Hybrid DFT is turned on
   Fraction HF Exchange ScalHFX         ....  0.690000
   Scaling of DF-GGA-X  ScalDFX         ....  0.310000
   Scaling of DF-GGA-C  ScalDFC         ....  0.540000
   Scaling of DF-LDA-C  ScalLDAC        ....  0.540000
   Perturbative correction              ....  1.000000
   Density functional embedding theory  .... OFF
   NL short-range parameter             .... 12.000000
 RI-approximation to the Coulomb term is turned on
   Number of AuxJ basis functions       .... 1523
   RIJ-COSX (HFX calculated with COS-X)).... on


General Settings:
 Integral files         IntName         .... Eos_Y_M06L_def2TZVP_coords_Nanelkul
 Hartree-Fock type      HFTyp           .... RHF
 Total Charge           Charge          ....   -2
 Multiplicity           Mult            ....    1
 Number of Electrons    NEL             ....  308
 Basis Dimension        Dim             .... 1003
 Nuclear Repulsion      ENuc            ....   4990.1492228592 Eh

Convergence Acceleration:
 DIIS                   CNVDIIS         .... on
   Start iteration      DIISMaxIt       ....    12
   Startup error        DIISStart       ....  0.200000
   # of expansion vecs  DIISMaxEq       ....     5
   Bias factor          DIISBfac        ....   1.050
   Max. coefficient     DIISMaxC        ....  10.000
 Trust-Rad. Augm. Hess. CNVTRAH         .... auto
   Auto Start mean grad. ratio tolernc. ....  1.125000
   Auto Start start iteration           ....    20
   Auto Start num. interpolation iter.  ....    10
   Max. Number of Micro iterations      ....    16
   Max. Number of Macro iterations      .... Maxiter - #DIIS iter
   Number of Davidson start vectors     ....     2
   Converg. threshold I  (grad. norm)   ....   1.000e-05
   Converg. threshold II (energy diff.) ....   1.000e-08
   Grad. Scal. Fac. for Micro threshold ....   0.100
   Minimum threshold for Micro iter.    ....   0.010
   NR start threshold (gradient norm)   ....   0.001
   Initial trust radius                 ....   0.400
   Minimum AH scaling param. (alpha)    ....   1.000
   Maximum AH scaling param. (alpha)    .... 1000.000
   Orbital update algorithm             .... Taylor
   White noise on init. David. guess    .... on
   Maximum white noise                  ....   0.010
   Quad. conv. algorithm                .... NR
 SOSCF                  CNVSOSCF        .... on
   Start iteration      SOSCFMaxIt      ....   150
   Startup grad/error   SOSCFStart      ....  0.003300
 Level Shifting         CNVShift        .... on
   Level shift para.    LevelShift      ....    0.2500
   Turn off err/grad.   ShiftErr        ....    0.0010
 Zerner damping         CNVZerner       .... off
 Static damping         CNVDamp         .... on
   Fraction old density DampFac         ....    0.7000
   Max. Damping (<1)    DampMax         ....    0.9800
   Min. Damping (>=0)   DampMin         ....    0.0000
   Turn off err/grad.   DampErr         ....    0.1000
 Fernandez-Rico         CNVRico         .... off

SCF Procedure:
 Maximum # iterations   MaxIter         ....   125
 SCF integral mode      SCFMode         .... Direct
   Integral package                     .... SHARK and LIBINT hybrid scheme
 Reset frequency        DirectResetFreq ....    20
 Integral Threshold     Thresh          ....  2.500e-11 Eh
 Primitive CutOff       TCut            ....  2.500e-12 Eh

Convergence Tolerance:
 Convergence Check Mode ConvCheckMode   .... Total+1el-Energy
 Convergence forced     ConvForced      .... 1
 Energy Change          TolE            ....  1.000e-08 Eh
 1-El. energy change                    ....  1.000e-05 Eh
 Orbital Gradient       TolG            ....  1.000e-05
 Orbital Rotation angle TolX            ....  1.000e-05
 DIIS Error             TolErr          ....  5.000e-07


Diagonalization of the overlap matrix:
Smallest eigenvalue                        ... 4.704e-06
Time for diagonalization                   ...    0.116 sec
Threshold for overlap eigenvalues          ... 1.000e-08
Number of eigenvalues below threshold      ... 0
Time for construction of square roots      ...    0.084 sec
Total time needed                          ...    0.203 sec

Time for model grid setup =    0.502 sec

------------------------------
INITIAL GUESS: MODEL POTENTIAL
------------------------------
Loading Hartree-Fock densities                     ... done
Calculating cut-offs                               ... done
Initializing the effective Hamiltonian             ... done
Setting up the integral package (SHARK)            ... done
Starting the Coulomb interaction                   ... done (   1.2 sec)
Reading the grid                                   ... done
Mapping shells                                     ... done
Starting the XC term evaluation                    ... done (   0.6 sec)
  promolecular density results
     # of electrons  =    305.990238457
     EX              =   -504.495460124
     EC              =     -1.744953642
     EX+EC           =   -506.240413766
Transforming the Hamiltonian                       ... done (   0.1 sec)
Diagonalizing the Hamiltonian                      ... done (   0.1 sec)
Back transforming the eigenvectors                 ... done (   0.0 sec)
Now organizing SCF variables                       ... done
                      ------------------
                      INITIAL GUESS DONE (   2.5 sec)
                      ------------------
-------------------
DFT GRID GENERATION
-------------------

General Integration Accuracy     IntAcc      ... 4.388
Radial Grid Type                 RadialGrid  ... OptM3 with GC (2021)
Angular Grid (max. ang.)         AngularGrid ... 4 (Lebedev-302)
Angular grid pruning method      GridPruning ... 4 (adaptive)
Weight generation scheme         WeightScheme... Becke
Basis function cutoff            BFCut       ... 1.0000e-11
Integration weight cutoff        WCut        ... 1.0000e-14
Angular grids for H and He will be reduced by one unit
Partially contracted basis set               ... off
Rotationally invariant grid construction     ... off

Total number of grid points                  ...   213020
Total number of batches                      ...     3347
Average number of points per batch           ...       63
Average number of grid points per atom       ...     6086
Time for grid setup =    1.759 sec

--------------------
COSX GRID GENERATION
--------------------

GRIDX 1
-------
General Integration Accuracy     IntAcc      ... 3.816
Radial Grid Type                 RadialGrid  ... OptM3 with GC (2021)
Angular Grid (max. ang.)         AngularGrid ... 1 (Lebedev-50)
Angular grid pruning method      GridPruning ... 4 (adaptive)
Weight generation scheme         WeightScheme... Becke
Basis function cutoff            BFCut       ... 1.0000e-11
Integration weight cutoff        WCut        ... 1.0000e-14
Angular grids for H and He will be reduced by one unit
Partially contracted basis set               ... on
Rotationally invariant grid construction     ... off

Total number of grid points                  ...    26130
Total number of batches                      ...      426
Average number of points per batch           ...       61
Average number of grid points per atom       ...      747
UseSFitting                                  ... on

GRIDX 2
-------
General Integration Accuracy     IntAcc      ... 4.020
Radial Grid Type                 RadialGrid  ... OptM3 with GC (2021)
Angular Grid (max. ang.)         AngularGrid ... 2 (Lebedev-110)
Angular grid pruning method      GridPruning ... 4 (adaptive)
Weight generation scheme         WeightScheme... Becke
Basis function cutoff            BFCut       ... 1.0000e-11
Integration weight cutoff        WCut        ... 1.0000e-14
Angular grids for H and He will be reduced by one unit
Partially contracted basis set               ... on
Rotationally invariant grid construction     ... off

Total number of grid points                  ...    58608
Total number of batches                      ...      932
Average number of points per batch           ...       62
Average number of grid points per atom       ...     1675
UseSFitting                                  ... on

GRIDX 3
-------
General Integration Accuracy     IntAcc      ... 4.338
Radial Grid Type                 RadialGrid  ... OptM3 with GC (2021)
Angular Grid (max. ang.)         AngularGrid ... 3 (Lebedev-194)
Angular grid pruning method      GridPruning ... 4 (adaptive)
Weight generation scheme         WeightScheme... Becke
Basis function cutoff            BFCut       ... 1.0000e-11
Integration weight cutoff        WCut        ... 1.0000e-14
Angular grids for H and He will be reduced by one unit
Partially contracted basis set               ... on
Rotationally invariant grid construction     ... off

Total number of grid points                  ...   129900
Total number of batches                      ...     2046
Average number of points per batch           ...       63
Average number of grid points per atom       ...     3711
UseSFitting                                  ... on

Time for X-Grid setup             =    2.347 sec


--------------------
CPCM SOLVATION MODEL
--------------------
CPCM parameters:
  Epsilon                                         ...      35.6880
  Refrac                                          ...       1.3442
  Rsolv                                           ...       1.3000
  Surface type                                    ... GAUSSIAN VDW
  Epsilon function type                           ...         CPCM
Solvent:                                     ... ACETONITRILE
SMD-CDS solvent descriptors:
  Soln                                       ...    1.3442
  Soln25                                     ...    1.3416
  Sola                                       ...    0.0700
  Solb                                       ...    0.3200
  Solg                                       ...   41.2500
  Solc                                       ...    0.0000
  Solh                                       ...    0.0000
Radii:
 Radius for C  used is    3.4960 Bohr (=   1.8500 Ang.)
 Radius for H  used is    2.2677 Bohr (=   1.2000 Ang.)
 Radius for O  used is    4.0969 Bohr (=   2.1680 Ang.)
 Radius for Br used is    5.7826 Bohr (=   3.0600 Ang.)
Calculating surface                               ...        done! (  0.0s)
GEPOL surface points                              ...         1646
GEPOL Volume                                      ...    4660.8636
GEPOL Surface-area                                ...    1971.8753
Calculating surface distance matrix               ...        done! (  0.0s)
Performing Cholesky decomposition & store         ...        done! (  0.1s)
Overall time for CPCM initialization              ...                 0.1s
--------------
SCF ITERATIONS
--------------
ITER       Energy         Delta-E        Max-DP      RMS-DP      [F,P]     Damp
               ***  Starting incremental Fock matrix formation  ***
  0 -11431.5908891673   0.000000000000 0.23817496  0.00218312  0.3291747 0.7000
  1 -11431.9499822174  -0.359093050149 0.23015378  0.00207426  0.1799598 0.7000
                               ***Turning on DIIS***
  2 -11432.1384282056  -0.188445988177 0.37874502  0.00333788  0.0847973 0.0000
  3 -11432.4744609397  -0.336032734092 0.25332987  0.00210125  0.0797907 0.0000
  4 -11432.5142253540  -0.039764414329 0.06354972  0.00051701  0.0113092 0.0000
  5 -11432.5164963829  -0.002271028850 0.03895882  0.00031876  0.0073767 0.0000
                      *** Initiating the SOSCF procedure ***
                           *** Shutting down DIIS ***
                      *** Re-Reading the Fockian *** 
                      *** Removing any level shift *** 
ITER      Energy       Delta-E        Grad      Rot      Max-DP    RMS-DP
  6 -11432.51724058  -0.0007441982  0.003139  0.003139  0.018786  0.000149
               *** Restarting incremental Fock matrix formation ***
  7 -11432.51748475  -0.0002441707  0.001865  0.005798  0.016626  0.000173
  8 -11432.51762536  -0.0001406064  0.000665  0.006138  0.009237  0.000102
  9 -11432.51766655  -0.0000411893  0.000380  0.001452  0.008287  0.000076
 10 -11432.51767918  -0.0000126282  0.000115  0.000355  0.001111  0.000011
 11 -11432.51767991  -0.0000007298  0.000038  0.000124  0.000636  0.000006
 12 -11432.51768018  -0.0000002780  0.000010  0.000050  0.000443  0.000004
 13 -11432.51768018   0.0000000007  0.000007  0.000023  0.000518  0.000003
                  ***Gradient check signals convergence***
              ***Rediagonalizing the Fockian in SOSCF/NRSCF***

               *****************************************************
               *                     SUCCESS                       *
               *           SCF CONVERGED AFTER  14 CYCLES          *
               *****************************************************

Old exchange energy                            =   -349.377628263 Eh
New exchange energy                            =   -349.377068669 Eh
Exchange energy change after final integration =      0.000559594 Eh
Total energy after final integration           = -11432.517120580 Eh
Final COS-X integration done in                =    69.495 sec

SMD CDS free energy correction energy :                -9.26691     Kcal/mol
Total Energy after SMD CDS correction =            -11432.531888332 Eh

----------------
TOTAL SCF ENERGY
----------------

Total Energy       :       -11432.53188833 Eh         -311095.00845 eV

Components:
Nuclear Repulsion  :         4990.14922286 Eh          135788.86373 eV
Electronic Energy  :       -16422.68111119 Eh         -446883.87217 eV
One Electron Energy:       -25902.19565717 Eh         -704834.57693 eV
Two Electron Energy:         9479.51454598 Eh          257950.70476 eV
Max COSX asymmetry :            0.00002026 Eh               0.00055 eV
CPCM Dielectric    :           -0.21618559 Eh              -5.88271 eV
SMD CDS (Gcds)     :           -0.01476775 Eh              -0.40185 eV

Virial components:
Potential Energy   :       -22855.20161154 Eh         -621921.65374 eV
Kinetic Energy     :        11422.66972321 Eh          310826.64529 eV
Virial Ratio       :            2.00086339


DFT components:
N(Alpha)           :      154.000125676106 electrons
N(Beta)            :      154.000125676106 electrons
N(Total)           :      308.000251352212 electrons
E(X)               :     -157.165925510164 Eh       
E(C)               :       -6.876679701889 Eh       
E(XC)              :     -164.042605212053 Eh       
DFET-embed. en.    :        0.000000000000 Eh       
CPCM Solvation Model Properties:
Surface-charge          :            1.98436952
Charge-correction       :           -0.00256561 Eh              -0.06981 eV
Free-energy (cav+disp)  :           -0.01476775 Eh              -0.40185 eV

---------------
SCF CONVERGENCE
---------------

  Last Energy change         ...    9.1859e-09  Tolerance :   1.0000e-08
  Last MAX-Density change    ...    6.6613e-15  Tolerance :   1.0000e-07
  Last RMS-Density change    ...    2.9931e-17  Tolerance :   5.0000e-09
  Last Orbital Gradient      ...    2.0670e-06  Tolerance :   1.0000e-05
  Last Orbital Rotation      ...    1.0281e-05  Tolerance :   1.0000e-05

             **** THE GBW FILE WAS UPDATED (Eos_Y_M06L_def2TZVP_coords_Nanelkul.gbw) ****
             **** DENSITY Eos_Y_M06L_def2TZVP_coords_Nanelkul.scfp WAS UPDATED ****
             **** ENERGY FILE WAS UPDATED (Eos_Y_M06L_def2TZVP_coords_Nanelkul.en.tmp) ****
             **** THE GBW FILE WAS UPDATED (Eos_Y_M06L_def2TZVP_coords_Nanelkul.gbw) ****
             **** DENSITY Eos_Y_M06L_def2TZVP_coords_Nanelkul.scfp WAS UPDATED ****
----------------
ORBITAL ENERGIES
----------------

  NO   OCC          E(Eh)            E(eV) 
   0   2.0000    -487.259947    -13259.0172 
   1   2.0000    -487.259821    -13259.0138 
   2   2.0000    -487.256691    -13258.9286 
   3   2.0000    -487.256629    -13258.9270 
   4   2.0000     -64.123042     -1744.8767 
   5   2.0000     -64.122913     -1744.8732 
   6   2.0000     -64.119672     -1744.7850 
   7   2.0000     -64.119597     -1744.7829 
   8   2.0000     -57.655020     -1568.8729 
   9   2.0000     -57.654890     -1568.8693 
  10   2.0000     -57.653705     -1568.8371 
  11   2.0000     -57.653585     -1568.8338 
  12   2.0000     -57.653577     -1568.8336 
  13   2.0000     -57.653453     -1568.8302 
  14   2.0000     -57.651727     -1568.7832 
  15   2.0000     -57.651652     -1568.7812 
  16   2.0000     -57.650250     -1568.7431 
  17   2.0000     -57.650213     -1568.7420 
  18   2.0000     -57.650176     -1568.7411 
  19   2.0000     -57.650139     -1568.7400 
  20   2.0000     -20.080855      -546.4279 
  21   2.0000     -19.947246      -542.7922 
  22   2.0000     -19.947044      -542.7867 
  23   2.0000     -19.919303      -542.0318 
  24   2.0000     -19.918481      -542.0094 
  25   2.0000     -10.919258      -297.1281 
  26   2.0000     -10.919046      -297.1223 
  27   2.0000     -10.901301      -296.6395 
  28   2.0000     -10.901142      -296.6352 
  29   2.0000     -10.898705      -296.5688 
  30   2.0000     -10.886645      -296.2407 
  31   2.0000     -10.866193      -295.6841 
  32   2.0000     -10.866145      -295.6828 
  33   2.0000     -10.858027      -295.4619 
  34   2.0000     -10.857898      -295.4584 
  35   2.0000     -10.844272      -295.0876 
  36   2.0000     -10.844136      -295.0839 
  37   2.0000     -10.841504      -295.0123 
  38   2.0000     -10.832469      -294.7665 
  39   2.0000     -10.832431      -294.7654 
  40   2.0000     -10.826293      -294.5984 
  41   2.0000     -10.824671      -294.5543 
  42   2.0000     -10.823930      -294.5341 
  43   2.0000     -10.821826      -294.4768 
  44   2.0000     -10.818525      -294.3870 
  45   2.0000      -9.382014      -255.2976 
  46   2.0000      -9.381894      -255.2943 
  47   2.0000      -9.378715      -255.2078 
  48   2.0000      -9.378616      -255.2051 
  49   2.0000      -7.077692      -192.5938 
  50   2.0000      -7.077573      -192.5906 
  51   2.0000      -7.074614      -192.5100 
  52   2.0000      -7.074511      -192.5072 
  53   2.0000      -7.069856      -192.3806 
  54   2.0000      -7.069728      -192.3771 
  55   2.0000      -7.069573      -192.3729 
  56   2.0000      -7.069445      -192.3694 
  57   2.0000      -7.066526      -192.2900 
  58   2.0000      -7.066432      -192.2874 
  59   2.0000      -7.065986      -192.2752 
  60   2.0000      -7.065897      -192.2728 
  61   2.0000      -2.963955       -80.6533 
  62   2.0000      -2.963846       -80.6504 
  63   2.0000      -2.961018       -80.5734 
  64   2.0000      -2.960962       -80.5719 
  65   2.0000      -2.960885       -80.5698 
  66   2.0000      -2.960864       -80.5692 
  67   2.0000      -2.960592       -80.5618 
  68   2.0000      -2.960454       -80.5581 
  69   2.0000      -2.957920       -80.4891 
  70   2.0000      -2.957820       -80.4864 
  71   2.0000      -2.957179       -80.4689 
  72   2.0000      -2.957092       -80.4666 
  73   2.0000      -2.952183       -80.3330 
  74   2.0000      -2.952165       -80.3325 
  75   2.0000      -2.952052       -80.3294 
  76   2.0000      -2.952041       -80.3291 
  77   2.0000      -2.948583       -80.2350 
  78   2.0000      -2.948574       -80.2348 
  79   2.0000      -2.948493       -80.2326 
  80   2.0000      -2.948490       -80.2325 
  81   2.0000      -1.334940       -36.3256 
  82   2.0000      -1.217213       -33.1220 
  83   2.0000      -1.209158       -32.9029 
  84   2.0000      -1.208889       -32.8955 
  85   2.0000      -1.119502       -30.4632 
  86   2.0000      -1.068480       -29.0748 
  87   2.0000      -1.054614       -28.6975 
  88   2.0000      -1.036456       -28.2034 
  89   2.0000      -0.990016       -26.9397 
  90   2.0000      -0.986317       -26.8390 
  91   2.0000      -0.967146       -26.3174 
  92   2.0000      -0.935293       -25.4506 
  93   2.0000      -0.923661       -25.1341 
  94   2.0000      -0.913970       -24.8704 
  95   2.0000      -0.888625       -24.1807 
  96   2.0000      -0.886365       -24.1192 
  97   2.0000      -0.858042       -23.3485 
  98   2.0000      -0.855674       -23.2841 
  99   2.0000      -0.797957       -21.7135 
 100   2.0000      -0.774366       -21.0716 
 101   2.0000      -0.759851       -20.6766 
 102   2.0000      -0.748356       -20.3638 
 103   2.0000      -0.712914       -19.3994 
 104   2.0000      -0.709825       -19.3153 
 105   2.0000      -0.666320       -18.1315 
 106   2.0000      -0.663319       -18.0498 
 107   2.0000      -0.648475       -17.6459 
 108   2.0000      -0.635746       -17.2995 
 109   2.0000      -0.600075       -16.3289 
 110   2.0000      -0.597033       -16.2461 
 111   2.0000      -0.591331       -16.0909 
 112   2.0000      -0.568187       -15.4611 
 113   2.0000      -0.566138       -15.4054 
 114   2.0000      -0.554614       -15.0918 
 115   2.0000      -0.554189       -15.0803 
 116   2.0000      -0.542510       -14.7625 
 117   2.0000      -0.535717       -14.5776 
 118   2.0000      -0.523546       -14.2464 
 119   2.0000      -0.515950       -14.0397 
 120   2.0000      -0.510044       -13.8790 
 121   2.0000      -0.507667       -13.8143 
 122   2.0000      -0.500300       -13.6139 
 123   2.0000      -0.494364       -13.4523 
 124   2.0000      -0.491285       -13.3686 
 125   2.0000      -0.488511       -13.2930 
 126   2.0000      -0.471604       -12.8330 
 127   2.0000      -0.467730       -12.7276 
 128   2.0000      -0.454818       -12.3762 
 129   2.0000      -0.443352       -12.0642 
 130   2.0000      -0.440644       -11.9905 
 131   2.0000      -0.437340       -11.9006 
 132   2.0000      -0.429847       -11.6967 
 133   2.0000      -0.416857       -11.3433 
 134   2.0000      -0.411549       -11.1988 
 135   2.0000      -0.407389       -11.0856 
 136   2.0000      -0.391577       -10.6554 
 137   2.0000      -0.374271       -10.1844 
 138   2.0000      -0.362131        -9.8541 
 139   2.0000      -0.356570        -9.7028 
 140   2.0000      -0.355055        -9.6615 
 141   2.0000      -0.351663        -9.5692 
 142   2.0000      -0.345359        -9.3977 
 143   2.0000      -0.338493        -9.2108 
 144   2.0000      -0.334844        -9.1116 
 145   2.0000      -0.327067        -8.8999 
 146   2.0000      -0.323182        -8.7942 
 147   2.0000      -0.320090        -8.7101 
 148   2.0000      -0.307156        -8.3581 
 149   2.0000      -0.303234        -8.2514 
 150   2.0000      -0.299717        -8.1557 
 151   2.0000      -0.286679        -7.8009 
 152   2.0000      -0.270792        -7.3686 
 153   2.0000      -0.223660        -6.0861 
 154   0.0000      -0.003067        -0.0834 
 155   0.0000       0.053476         1.4551 
 156   0.0000       0.065480         1.7818 
 157   0.0000       0.079444         2.1618 
 158   0.0000       0.086730         2.3600 
 159   0.0000       0.089462         2.4344 
 160   0.0000       0.097241         2.6461 
 161   0.0000       0.098748         2.6871 
 162   0.0000       0.119491         3.2515 
 163   0.0000       0.127467         3.4685 
 164   0.0000       0.133146         3.6231 
 165   0.0000       0.140321         3.8183 
 166   0.0000       0.144874         3.9422 
 167   0.0000       0.158328         4.3083 
 168   0.0000       0.162028         4.4090 
 169   0.0000       0.171598         4.6694 
 170   0.0000       0.174710         4.7541 
 171   0.0000       0.180288         4.9059 
 172   0.0000       0.189246         5.1497 
 173   0.0000       0.196673         5.3517 
 174   0.0000       0.197942         5.3863 
 175   0.0000       0.200868         5.4659 
 176   0.0000       0.223252         6.0750 
 177   0.0000       0.227871         6.2007 
 178   0.0000       0.235598         6.4110 
 179   0.0000       0.236748         6.4422 
 180   0.0000       0.245545         6.6816 
 181   0.0000       0.249999         6.8028 
 182   0.0000       0.255938         6.9644 
 183   0.0000       0.268835         7.3154 
 184   0.0000       0.270954         7.3730 
 185   0.0000       0.273261         7.4358 
 186   0.0000       0.276011         7.5107 
 187   0.0000       0.281089         7.6488 
 188   0.0000       0.284399         7.7389 
 189   0.0000       0.284929         7.7533 
 190   0.0000       0.287614         7.8264 
 191   0.0000       0.290631         7.9085 
 192   0.0000       0.292942         7.9714 
 193   0.0000       0.294435         8.0120 
 194   0.0000       0.301627         8.2077 
 195   0.0000       0.302134         8.2215 
 196   0.0000       0.307720         8.3735 
 197   0.0000       0.309935         8.4338 
 198   0.0000       0.312609         8.5065 
 199   0.0000       0.318297         8.6613 
 200   0.0000       0.321757         8.7555 
 201   0.0000       0.332963         9.0604 
 202   0.0000       0.334696         9.1075 
 203   0.0000       0.336551         9.1580 
 204   0.0000       0.340558         9.2671 
 205   0.0000       0.345986         9.4148 
 206   0.0000       0.347106         9.4452 
 207   0.0000       0.349994         9.5238 
 208   0.0000       0.351222         9.5572 
 209   0.0000       0.357713         9.7339 
 210   0.0000       0.360476         9.8090 
 211   0.0000       0.367078         9.9887 
 212   0.0000       0.368806        10.0357 
 213   0.0000       0.372198        10.1280 
 214   0.0000       0.373373        10.1600 
 215   0.0000       0.381883        10.3916 
 216   0.0000       0.386417        10.5149 
 217   0.0000       0.390238        10.6189 
 218   0.0000       0.393254        10.7010 
 219   0.0000       0.395754        10.7690 
 220   0.0000       0.403299        10.9743 
 221   0.0000       0.405877        11.0445 
 222   0.0000       0.408723        11.1219 
 223   0.0000       0.412107        11.2140 
 224   0.0000       0.413792        11.2599 
 225   0.0000       0.416150        11.3240 
 226   0.0000       0.422679        11.5017 
 227   0.0000       0.424678        11.5561 
 228   0.0000       0.426463        11.6046 
 229   0.0000       0.428701        11.6656 
 230   0.0000       0.430683        11.7195 
 231   0.0000       0.433519        11.7967 
 232   0.0000       0.436598        11.8804 
 233   0.0000       0.439571        11.9613 
 234   0.0000       0.447120        12.1668 
 235   0.0000       0.451486        12.2856 
 236   0.0000       0.458492        12.4762 
 237   0.0000       0.459772        12.5110 
 238   0.0000       0.461668        12.5626 
 239   0.0000       0.467336        12.7169 
 240   0.0000       0.469583        12.7780 
 241   0.0000       0.481032        13.0895 
 242   0.0000       0.484095        13.1729 
 243   0.0000       0.484917        13.1953 
 244   0.0000       0.495125        13.4730 
 245   0.0000       0.498259        13.5583 
 246   0.0000       0.500574        13.6213 
 247   0.0000       0.502168        13.6647 
 248   0.0000       0.504354        13.7242 
 249   0.0000       0.514587        14.0026 
 250   0.0000       0.519190        14.1279 
 251   0.0000       0.526333        14.3223 
 252   0.0000       0.526981        14.3399 
 253   0.0000       0.531767        14.4701 
 254   0.0000       0.543959        14.8019 
 255   0.0000       0.544504        14.8167 
 256   0.0000       0.547202        14.8901 
 257   0.0000       0.554334        15.0842 
 258   0.0000       0.555342        15.1116 
 259   0.0000       0.561310        15.2740 
 260   0.0000       0.568398        15.4669 
 261   0.0000       0.571779        15.5589 
 262   0.0000       0.578038        15.7292 
 263   0.0000       0.584864        15.9150 
 264   0.0000       0.587346        15.9825 
 265   0.0000       0.588870        16.0240 
 266   0.0000       0.593679        16.1548 
 267   0.0000       0.595217        16.1967 
 268   0.0000       0.599051        16.3010 
 269   0.0000       0.606506        16.5039 
 270   0.0000       0.609533        16.5862 
 271   0.0000       0.614009        16.7080 
 272   0.0000       0.619446        16.8560 
 273   0.0000       0.627212        17.0673 
 274   0.0000       0.632789        17.2191 
 275   0.0000       0.636173        17.3111 
 276   0.0000       0.639901        17.4126 
 277   0.0000       0.648331        17.6420 
 278   0.0000       0.651188        17.7197 
 279   0.0000       0.659678        17.9508 
 280   0.0000       0.663142        18.0450 
 281   0.0000       0.666411        18.1340 
 282   0.0000       0.670625        18.2486 
 283   0.0000       0.681391        18.5416 
 284   0.0000       0.688975        18.7480 
 285   0.0000       0.691572        18.8186 
 286   0.0000       0.692993        18.8573 
 287   0.0000       0.694795        18.9063 
 288   0.0000       0.701315        19.0838 
 289   0.0000       0.714156        19.4332 
 290   0.0000       0.720755        19.6127 
 291   0.0000       0.721998        19.6466 
 292   0.0000       0.729131        19.8407 
 293   0.0000       0.732151        19.9229 
 294   0.0000       0.737015        20.0552 
 295   0.0000       0.745315        20.2810 
 296   0.0000       0.749991        20.4083 
 297   0.0000       0.756318        20.5805 
 298   0.0000       0.763727        20.7821 
 299   0.0000       0.765113        20.8198 
 300   0.0000       0.767411        20.8823 
 301   0.0000       0.771229        20.9862 
 302   0.0000       0.776887        21.1402 
 303   0.0000       0.787204        21.4209 
 304   0.0000       0.791570        21.5397 
 305   0.0000       0.797576        21.7031 
 306   0.0000       0.799770        21.7629 
 307   0.0000       0.810714        22.0606 
 308   0.0000       0.812653        22.1134 
 309   0.0000       0.813888        22.1470 
 310   0.0000       0.816549        22.2194 
 311   0.0000       0.824220        22.4282 
 312   0.0000       0.825572        22.4650 
 313   0.0000       0.831409        22.6238 
 314   0.0000       0.837080        22.7781 
 315   0.0000       0.838754        22.8237 
 316   0.0000       0.843355        22.9488 
 317   0.0000       0.847874        23.0718 
 318   0.0000       0.856796        23.3146 
 319   0.0000       0.859096        23.3772 
 320   0.0000       0.861675        23.4474 
 321   0.0000       0.866999        23.5922 
 322   0.0000       0.872218        23.7343 
 323   0.0000       0.876811        23.8592 
 324   0.0000       0.883759        24.0483 
 325   0.0000       0.885207        24.0877 
 326   0.0000       0.892029        24.2733 
 327   0.0000       0.902080        24.5468 
 328   0.0000       0.914723        24.8909 
 329   0.0000       0.918019        24.9806 
 330   0.0000       0.926592        25.2139 
 331   0.0000       0.929313        25.2879 
 332   0.0000       0.931971        25.3602 
 333   0.0000       0.932746        25.3813 
 334   0.0000       0.937466        25.5098 
 335   0.0000       0.938373        25.5344 
 336   0.0000       0.939175        25.5562 
 337   0.0000       0.945311        25.7232 
 338   0.0000       0.956333        26.0231 
 339   0.0000       0.965786        26.2804 
 340   0.0000       0.966986        26.3130 
 341   0.0000       0.970482        26.4082 
 342   0.0000       0.972205        26.4550 
 343   0.0000       0.981885        26.7185 
 344   0.0000       0.990632        26.9565 
 345   0.0000       0.997064        27.1315 
 346   0.0000       1.000415        27.2227 
 347   0.0000       1.004182        27.3252 
 348   0.0000       1.011523        27.5249 
 349   0.0000       1.021844        27.8058 
 350   0.0000       1.026850        27.9420 
 351   0.0000       1.033119        28.1126 
 352   0.0000       1.035725        28.1835 
 353   0.0000       1.038601        28.2618 
 354   0.0000       1.041727        28.3468 
 355   0.0000       1.047822        28.5127 
 356   0.0000       1.058542        28.8044 
 357   0.0000       1.062648        28.9161 
 358   0.0000       1.068447        29.0739 
 359   0.0000       1.074039        29.2261 
 360   0.0000       1.082939        29.4683 
 361   0.0000       1.085400        29.5352 
 362   0.0000       1.094357        29.7790 
 363   0.0000       1.098491        29.8915 
 364   0.0000       1.110633        30.2218 
 365   0.0000       1.122199        30.5366 
 366   0.0000       1.129430        30.7334 
 367   0.0000       1.146543        31.1990 
 368   0.0000       1.151340        31.3296 
 369   0.0000       1.155607        31.4457 
 370   0.0000       1.162173        31.6243 
 371   0.0000       1.169544        31.8249 
 372   0.0000       1.176837        32.0234 
 373   0.0000       1.182648        32.1815 
 374   0.0000       1.185867        32.2691 
 375   0.0000       1.192470        32.4488 
 376   0.0000       1.206948        32.8427 
 377   0.0000       1.212717        32.9997 
 378   0.0000       1.218853        33.1667 
 379   0.0000       1.229282        33.4505 
 380   0.0000       1.238091        33.6902 
 381   0.0000       1.247556        33.9477 
 382   0.0000       1.254110        34.1261 
 383   0.0000       1.261168        34.3181 
 384   0.0000       1.268349        34.5135 
 385   0.0000       1.269692        34.5501 
 386   0.0000       1.274862        34.6907 
 387   0.0000       1.275843        34.7175 
 388   0.0000       1.279004        34.8035 
 389   0.0000       1.288111        35.0513 
 390   0.0000       1.299052        35.3490 
 391   0.0000       1.302442        35.4412 
 392   0.0000       1.310147        35.6509 
 393   0.0000       1.319230        35.8981 
 394   0.0000       1.326437        36.0942 
 395   0.0000       1.336860        36.3778 
 396   0.0000       1.338346        36.4182 
 397   0.0000       1.345394        36.6100 
 398   0.0000       1.350238        36.7418 
 399   0.0000       1.360393        37.0182 
 400   0.0000       1.372118        37.3372 
 401   0.0000       1.373878        37.3851 
 402   0.0000       1.380453        37.5640 
 403   0.0000       1.385999        37.7150 
 404   0.0000       1.391910        37.8758 
 405   0.0000       1.396064        37.9888 
 406   0.0000       1.408693        38.3325 
 407   0.0000       1.423293        38.7298 
 408   0.0000       1.431804        38.9614 
 409   0.0000       1.437168        39.1073 
 410   0.0000       1.451557        39.4989 
 411   0.0000       1.465498        39.8782 
 412   0.0000       1.467046        39.9203 
 413   0.0000       1.477336        40.2003 
 414   0.0000       1.485382        40.4193 
 415   0.0000       1.487109        40.4663 
 416   0.0000       1.491767        40.5931 
 417   0.0000       1.501050        40.8457 
 418   0.0000       1.505123        40.9565 
 419   0.0000       1.512182        41.1486 
 420   0.0000       1.514834        41.2207 
 421   0.0000       1.532803        41.7097 
 422   0.0000       1.538425        41.8627 
 423   0.0000       1.540961        41.9317 
 424   0.0000       1.545839        42.0644 
 425   0.0000       1.551314        42.2134 
 426   0.0000       1.556072        42.3429 
 427   0.0000       1.560967        42.4761 
 428   0.0000       1.562172        42.5089 
 429   0.0000       1.563740        42.5515 
 430   0.0000       1.568095        42.6700 
 431   0.0000       1.577074        42.9144 
 432   0.0000       1.582251        43.0552 
 433   0.0000       1.589081        43.2411 
 434   0.0000       1.593555        43.3628 
 435   0.0000       1.596746        43.4497 
 436   0.0000       1.600884        43.5623 
 437   0.0000       1.607600        43.7450 
 438   0.0000       1.613729        43.9118 
 439   0.0000       1.617339        44.0100 
 440   0.0000       1.624561        44.2065 
 441   0.0000       1.637288        44.5529 
 442   0.0000       1.644679        44.7540 
 443   0.0000       1.648750        44.8648 
 444   0.0000       1.650257        44.9058 
 445   0.0000       1.659390        45.1543 
 446   0.0000       1.665503        45.3207 
 447   0.0000       1.668671        45.4068 
 448   0.0000       1.671508        45.4840 
 449   0.0000       1.674889        45.5760 
 450   0.0000       1.682842        45.7925 
 451   0.0000       1.690699        46.0063 
 452   0.0000       1.698351        46.2145 
 453   0.0000       1.702471        46.3266 
 454   0.0000       1.704265        46.3754 
 455   0.0000       1.705191        46.4006 
 456   0.0000       1.708638        46.4944 
 457   0.0000       1.711303        46.5669 
 458   0.0000       1.713918        46.6381 
 459   0.0000       1.717575        46.7376 
 460   0.0000       1.723084        46.8875 
 461   0.0000       1.724992        46.9394 
 462   0.0000       1.726961        46.9930 
 463   0.0000       1.728166        47.0258 
 464   0.0000       1.733607        47.1738 
 465   0.0000       1.735841        47.2346 
 466   0.0000       1.737639        47.2836 
 467   0.0000       1.744266        47.4639 
 468   0.0000       1.753966        47.7278 
 469   0.0000       1.762174        47.9512 
 470   0.0000       1.765961        48.0542 
 471   0.0000       1.769840        48.1598 
 472   0.0000       1.782103        48.4935 
 473   0.0000       1.785242        48.5789 
 474   0.0000       1.792568        48.7783 
 475   0.0000       1.794170        48.8218 
 476   0.0000       1.797580        48.9146 
 477   0.0000       1.800722        49.0001 
 478   0.0000       1.803533        49.0766 
 479   0.0000       1.807137        49.1747 
 480   0.0000       1.811615        49.2966 
 481   0.0000       1.815998        49.4158 
 482   0.0000       1.816777        49.4370 
 483   0.0000       1.820345        49.5341 
 484   0.0000       1.829629        49.7867 
 485   0.0000       1.834240        49.9122 
 486   0.0000       1.837253        49.9942 
 487   0.0000       1.839971        50.0682 
 488   0.0000       1.844306        50.1861 
 489   0.0000       1.850969        50.3674 
 490   0.0000       1.859093        50.5885 
 491   0.0000       1.863448        50.7070 
 492   0.0000       1.871453        50.9248 
 493   0.0000       1.876850        51.0717 
 494   0.0000       1.886020        51.3212 
 495   0.0000       1.893688        51.5299 
 496   0.0000       1.895535        51.5801 
 497   0.0000       1.907665        51.9102 
 498   0.0000       1.913522        52.0696 
 499   0.0000       1.921458        52.2855 
 500   0.0000       1.924321        52.3634 
 501   0.0000       1.926356        52.4188 
 502   0.0000       1.934566        52.6422 
 503   0.0000       1.938868        52.7593 
 504   0.0000       1.948497        53.0213 
 505   0.0000       1.956403        53.2364 
 506   0.0000       1.957733        53.2726 
 507   0.0000       1.960655        53.3521 
 508   0.0000       1.964330        53.4521 
 509   0.0000       1.966125        53.5010 
 510   0.0000       1.971021        53.6342 
 511   0.0000       1.975821        53.7648 
 512   0.0000       1.986776        54.0629 
 513   0.0000       1.989389        54.1340 
 514   0.0000       2.000120        54.4260 
 515   0.0000       2.000906        54.4474 
 516   0.0000       2.007747        54.6336 
 517   0.0000       2.021714        55.0136 
 518   0.0000       2.025065        55.1048 
 519   0.0000       2.029790        55.2334 
 520   0.0000       2.034966        55.3742 
 521   0.0000       2.042302        55.5739 
 522   0.0000       2.053614        55.8817 
 523   0.0000       2.057188        55.9789 
 524   0.0000       2.060154        56.0596 
 525   0.0000       2.069228        56.3065 
 526   0.0000       2.072638        56.3993 
 527   0.0000       2.075724        56.4833 
 528   0.0000       2.081928        56.6521 
 529   0.0000       2.093235        56.9598 
 530   0.0000       2.096140        57.0389 
 531   0.0000       2.096688        57.0538 
 532   0.0000       2.104282        57.2604 
 533   0.0000       2.110973        57.4425 
 534   0.0000       2.115912        57.5769 
 535   0.0000       2.121364        57.7252 
 536   0.0000       2.131051        57.9888 
 537   0.0000       2.139818        58.2274 
 538   0.0000       2.145444        58.3805 
 539   0.0000       2.153357        58.5958 
 540   0.0000       2.158378        58.7324 
 541   0.0000       2.163619        58.8751 
 542   0.0000       2.182327        59.3841 
 543   0.0000       2.186960        59.5102 
 544   0.0000       2.189830        59.5883 
 545   0.0000       2.198587        59.8266 
 546   0.0000       2.205767        60.0220 
 547   0.0000       2.208048        60.0840 
 548   0.0000       2.220839        60.4321 
 549   0.0000       2.231674        60.7269 
 550   0.0000       2.246568        61.1322 
 551   0.0000       2.258194        61.4486 
 552   0.0000       2.260434        61.5095 
 553   0.0000       2.269683        61.7612 
 554   0.0000       2.283137        62.1273 
 555   0.0000       2.301041        62.6145 
 556   0.0000       2.309434        62.8429 
 557   0.0000       2.314614        62.9839 
 558   0.0000       2.323772        63.2330 
 559   0.0000       2.331682        63.4483 
 560   0.0000       2.338828        63.6428 
 561   0.0000       2.352609        64.0178 
 562   0.0000       2.363899        64.3250 
 563   0.0000       2.370762        64.5117 
 564   0.0000       2.389806        65.0299 
 565   0.0000       2.396480        65.2115 
 566   0.0000       2.401694        65.3534 
 567   0.0000       2.408200        65.5305 
 568   0.0000       2.412879        65.6578 
 569   0.0000       2.426027        66.0155 
 570   0.0000       2.431772        66.1719 
 571   0.0000       2.441778        66.4441 
 572   0.0000       2.446018        66.5595 
 573   0.0000       2.468382        67.1681 
 574   0.0000       2.471929        67.2646 
 575   0.0000       2.485655        67.6381 
 576   0.0000       2.490852        67.7795 
 577   0.0000       2.501020        68.0562 
 578   0.0000       2.513011        68.3825 
 579   0.0000       2.521675        68.6183 
 580   0.0000       2.528523        68.8046 
 581   0.0000       2.544418        69.2371 
 582   0.0000       2.551859        69.4396 
 583   0.0000       2.570673        69.9516 
 584   0.0000       2.585783        70.3627 
 585   0.0000       2.608177        70.9721 
 586   0.0000       2.610392        71.0324 
 587   0.0000       2.621812        71.3431 
 588   0.0000       2.628785        71.5329 
 589   0.0000       2.642955        71.9185 
 590   0.0000       2.643861        71.9431 
 591   0.0000       2.655185        72.2512 
 592   0.0000       2.664581        72.5069 
 593   0.0000       2.672369        72.7188 
 594   0.0000       2.680978        72.9531 
 595   0.0000       2.702107        73.5281 
 596   0.0000       2.713557        73.8396 
 597   0.0000       2.718067        73.9624 
 598   0.0000       2.723667        74.1147 
 599   0.0000       2.730211        74.2928 
 600   0.0000       2.735709        74.4424 
 601   0.0000       2.757272        75.0292 
 602   0.0000       2.768157        75.3254 
 603   0.0000       2.774439        75.4963 
 604   0.0000       2.785162        75.7881 
 605   0.0000       2.790801        75.9416 
 606   0.0000       2.799990        76.1916 
 607   0.0000       2.810414        76.4752 
 608   0.0000       2.819963        76.7351 
 609   0.0000       2.822378        76.8008 
 610   0.0000       2.829069        76.9829 
 611   0.0000       2.831298        77.0435 
 612   0.0000       2.841809        77.3296 
 613   0.0000       2.850784        77.5738 
 614   0.0000       2.853808        77.6561 
 615   0.0000       2.860936        77.8500 
 616   0.0000       2.872366        78.1611 
 617   0.0000       2.877851        78.3103 
 618   0.0000       2.882599        78.4395 
 619   0.0000       2.885148        78.5089 
 620   0.0000       2.891256        78.6751 
 621   0.0000       2.900162        78.9174 
 622   0.0000       2.908499        79.1443 
 623   0.0000       2.917886        79.3997 
 624   0.0000       2.919252        79.4369 
 625   0.0000       2.924599        79.5824 
 626   0.0000       2.935185        79.8704 
 627   0.0000       2.945232        80.1438 
 628   0.0000       2.960568        80.5612 
 629   0.0000       2.965063        80.6835 
 630   0.0000       2.971338        80.8542 
 631   0.0000       2.979627        81.0798 
 632   0.0000       2.988578        81.3234 
 633   0.0000       2.999681        81.6255 
 634   0.0000       3.001638        81.6787 
 635   0.0000       3.003921        81.7409 
 636   0.0000       3.010213        81.9121 
 637   0.0000       3.016578        82.0853 
 638   0.0000       3.023881        82.2840 
 639   0.0000       3.028138        82.3998 
 640   0.0000       3.035454        82.5989 
 641   0.0000       3.042364        82.7869 
 642   0.0000       3.046448        82.8981 
 643   0.0000       3.050061        82.9964 
 644   0.0000       3.061643        83.3115 
 645   0.0000       3.064745        83.3960 
 646   0.0000       3.072103        83.5962 
 647   0.0000       3.076372        83.7124 
 648   0.0000       3.087375        84.0117 
 649   0.0000       3.088590        84.0448 
 650   0.0000       3.091061        84.1120 
 651   0.0000       3.100360        84.3651 
 652   0.0000       3.105795        84.5130 
 653   0.0000       3.110869        84.6510 
 654   0.0000       3.119806        84.8942 
 655   0.0000       3.126441        85.0748 
 656   0.0000       3.137679        85.3806 
 657   0.0000       3.143043        85.5265 
 658   0.0000       3.153589        85.8135 
 659   0.0000       3.161436        86.0270 
 660   0.0000       3.165547        86.1389 
 661   0.0000       3.173841        86.3646 
 662   0.0000       3.177278        86.4581 
 663   0.0000       3.183476        86.6268 
 664   0.0000       3.200808        87.0984 
 665   0.0000       3.207074        87.2689 
 666   0.0000       3.209943        87.3470 
 667   0.0000       3.212208        87.4086 
 668   0.0000       3.223494        87.7157 
 669   0.0000       3.238316        88.1190 
[...]
   149a -> 160a  :     0.010916 
   150a -> 156a  :     0.011518 
   150a -> 160a  :     0.110109 
   151a -> 159a  :     0.125463 
   151a -> 162a  :     0.038979 
   151a -> 163a  :     0.021842 
   152a -> 159a  :     0.183073 
   152a -> 162a  :     0.023828 
   152a -> 163a  :     0.010356 
   153a -> 155a  :     0.014747 
   153a -> 160a  :     0.071972 
   153a -> 164a  :     0.178800 

STATE 17:  E=   0.139587 au      3.798 eV    30635.8 cm**-1 <S**2> =   0.000000
   145a -> 155a  :     0.233663 
   145a -> 156a  :     0.021014 
   145a -> 157a  :     0.019144 
   145a -> 173a  :     0.026726 
   145a -> 174a  :     0.017177 
   148a -> 154a  :     0.031176 
   148a -> 156a  :     0.033323 
   148a -> 157a  :     0.024800 
   149a -> 155a  :     0.076659 
   149a -> 156a  :     0.015827 
   150a -> 155a  :     0.038320 
   151a -> 155a  :     0.103359 
   151a -> 156a  :     0.016731 
   152a -> 155a  :     0.010446 
   152a -> 158a  :     0.011818 
   152a -> 159a  :     0.010244 
   153a -> 156a  :     0.015836 
   153a -> 157a  :     0.028841 
   153a -> 158a  :     0.011528 
   153a -> 161a  :     0.096360 

STATE 18:  E=   0.120766 au      3.286 eV    26505.1 cm**-1 <S**2> =   0.000000
   147a -> 154a  :     0.034745 
   148a -> 154a  :     0.326454 
   148a -> 155a  :     0.059299 
   148a -> 157a  :     0.010105 
   149a -> 154a  :     0.220912 
   149a -> 156a  :     0.042244 
   150a -> 154a  :     0.142521 
   150a -> 155a  :     0.031451 
   153a -> 155a  :     0.011281 
   153a -> 156a  :     0.031995 

STATE 19:  E=   0.140718 au      3.829 eV    30884.1 cm**-1 <S**2> =   0.000000
   145a -> 155a  :     0.020829 
   146a -> 155a  :     0.041345 
   148a -> 154a  :     0.011954 
   148a -> 156a  :     0.040615 
   149a -> 155a  :     0.128311 
   150a -> 157a  :     0.037912 
   151a -> 154a  :     0.012799 
   151a -> 169a  :     0.011039 
   152a -> 158a  :     0.072872 
   153a -> 155a  :     0.013524 
   153a -> 156a  :     0.012855 
   153a -> 160a  :     0.045349 
   153a -> 161a  :     0.429756 

STATE 20:  E=   0.123984 au      3.374 eV    27211.4 cm**-1 <S**2> =   0.000000
   145a -> 155a  :     0.039452 
   146a -> 155a  :     0.496554 
   146a -> 156a  :     0.060546 
   146a -> 157a  :     0.046608 
   146a -> 173a  :     0.068592 
   146a -> 174a  :     0.043926 
   146a -> 175a  :     0.010944 
   148a -> 156a  :     0.029092 
   149a -> 155a  :     0.018121 
   149a -> 156a  :     0.016705 
   153a -> 161a  :     0.033330 

STATE 21:  E=   0.089668 au      2.440 eV    19679.8 cm**-1 <S**2> =   0.000000
   145a -> 154a  :     0.304228 
   146a -> 154a  :     0.048247 
   149a -> 156a  :     0.011049 
   153a -> 155a  :     0.046328 
   153a -> 156a  :     0.205607 
   153a -> 157a  :     0.243941 
   153a -> 160a  :     0.016028 
   153a -> 161a  :     0.014453 

STATE 22:  E=   0.058103 au      1.581 eV    12752.0 cm**-1 <S**2> =   0.000000
   145a -> 154a  :     0.049005 
   147a -> 154a  :     0.804773 
   148a -> 154a  :     0.021454 
   150a -> 154a  :     0.018405 
   153a -> 157a  :     0.016649 

STATE 23:  E=   0.148427 au      4.039 eV    32576.1 cm**-1 <S**2> =   0.000000
   145a -> 154a  :     0.013821 
   147a -> 154a  :     0.046405 
   148a -> 158a  :     0.024497 
   150a -> 158a  :     0.067968 
   151a -> 155a  :     0.042899 
   151a -> 156a  :     0.038904 
   151a -> 157a  :     0.059772 
   152a -> 155a  :     0.196094 
   152a -> 156a  :     0.140741 
   152a -> 157a  :     0.241592 
   153a -> 158a  :     0.036192 

STATE 24:  E=   0.093587 au      2.547 eV    20540.0 cm**-1 <S**2> =   0.000000
   145a -> 154a  :     0.347070 
   146a -> 154a  :     0.067951 
   147a -> 154a  :     0.054610 
   149a -> 155a  :     0.032042 
   150a -> 155a  :     0.029302 
   151a -> 154a  :     0.012220 
   152a -> 155a  :     0.011621 
   152a -> 157a  :     0.013805 
   153a -> 155a  :     0.037711 
   153a -> 156a  :     0.052656 
   153a -> 157a  :     0.178869 
   153a -> 158a  :     0.011533 
   153a -> 161a  :     0.028817 

STATE 25:  E=   0.010138 au      0.276 eV     2224.9 cm**-1 <S**2> =   0.000000
   145a -> 154a  :     0.135916 
   146a -> 154a  :     0.813664 

STATE 26:  E=   0.173159 au      4.712 eV    38004.1 cm**-1 <S**2> =   0.000000
   146a -> 154a  :     0.014171 
   148a -> 155a  :     0.021267 
   148a -> 156a  :     0.040457 
   148a -> 157a  :     0.022696 
   149a -> 156a  :     0.094269 
   149a -> 157a  :     0.054187 
   150a -> 155a  :     0.154802 
   150a -> 156a  :     0.050660 
   151a -> 156a  :     0.011605 
   151a -> 158a  :     0.073005 
   152a -> 155a  :     0.012691 
   152a -> 156a  :     0.010152 
   152a -> 158a  :     0.228854 
   152a -> 161a  :     0.012287 
   153a -> 161a  :     0.072846 

STATE 27:  E=   0.148975 au      4.054 eV    32696.2 cm**-1 <S**2> =   0.000000
   148a -> 154a  :     0.010325 
   148a -> 158a  :     0.011174 
   150a -> 154a  :     0.012195 
   150a -> 155a  :     0.016852 
   150a -> 158a  :     0.038870 
   151a -> 155a  :     0.063661 
   151a -> 156a  :     0.080169 
   151a -> 157a  :     0.066618 
   151a -> 161a  :     0.012483 
   152a -> 156a  :     0.028034 
   152a -> 157a  :     0.051169 
   152a -> 158a  :     0.018322 
   152a -> 160a  :     0.011040 
   152a -> 161a  :     0.223268 
   153a -> 158a  :     0.051324 
   153a -> 162a  :     0.016565 
   153a -> 163a  :     0.012230 
   153a -> 166a  :     0.013753 
   153a -> 169a  :     0.123694 

STATE 28:  E=   0.186335 au      5.070 eV    40895.8 cm**-1 <S**2> =   0.000000
   138a -> 159a  :     0.010464 
   152a -> 156a  :     0.017910 
   152a -> 160a  :     0.043590 
   152a -> 164a  :     0.021263 
   153a -> 159a  :     0.040954 
   153a -> 162a  :     0.290371 
   153a -> 163a  :     0.064500 
   153a -> 165a  :     0.085843 
   153a -> 166a  :     0.205723 
   153a -> 167a  :     0.011112 
   153a -> 168a  :     0.028493 

STATE 29:  E=   0.185215 au      5.040 eV    40649.9 cm**-1 <S**2> =   0.000000
   145a -> 154a  :     0.012534 
   146a -> 154a  :     0.014167 
   147a -> 155a  :     0.067262 
   147a -> 156a  :     0.033610 
   148a -> 155a  :     0.083347 
   148a -> 156a  :     0.179631 
   148a -> 157a  :     0.048799 
   149a -> 155a  :     0.181515 
   149a -> 156a  :     0.044326 
   150a -> 156a  :     0.073994 
   150a -> 157a  :     0.050941 
   151a -> 155a  :     0.010178 
   151a -> 158a  :     0.012566 
   152a -> 158a  :     0.027711 

STATE 30:  E=   0.174326 au      4.744 eV    38260.2 cm**-1 <S**2> =   0.000000
   147a -> 155a  :     0.217649 
   147a -> 157a  :     0.024973 
   147a -> 173a  :     0.011893 
   148a -> 155a  :     0.045331 
   148a -> 156a  :     0.118013 
   148a -> 157a  :     0.023453 
   149a -> 155a  :     0.068195 
   149a -> 156a  :     0.082509 
   149a -> 157a  :     0.024271 
   150a -> 155a  :     0.032726 
   150a -> 156a  :     0.083477 
   151a -> 156a  :     0.027362 
   151a -> 158a  :     0.027571 
   152a -> 158a  :     0.066077 
   153a -> 161a  :     0.017163 


-------------------------
TD-DFT-EXCITATION SPECTRA
-------------------------

Center of mass = (  0.0058, -0.2080,  0.0093)
Calculating the Dipole integrals                  ... done
Transforming integrals                            ... done
Calculating the Linear Momentum integrals         ... done
Transforming integrals                            ... done
Calculating angular momentum integrals            ... done
Transforming integrals                            ... done

-----------------------------------------------------------------------------
         ABSORPTION SPECTRUM VIA TRANSITION ELECTRIC DIPOLE MOMENTS
-----------------------------------------------------------------------------
State   Energy    Wavelength  fosc         T2        TX        TY        TZ  
        (cm-1)      (nm)                 (au**2)    (au)      (au)      (au) 
-----------------------------------------------------------------------------
   1   10136.6    986.5   0.433260703  14.07124   3.74985   0.09543   0.02714
   2   15585.4    641.6   0.013272031   0.28035   0.01853  -0.52853   0.02572
   3   17482.3    572.0   0.004141731   0.07799   0.04302  -0.25131  -0.11396
   4   24963.8    400.6   0.011491487   0.15155  -0.37535   0.10156  -0.01854
   5   19954.9    501.1   0.316472060   5.22110  -0.11789   2.28159  -0.03934
   6   17428.7    573.8   0.045006148   0.85012  -0.02979  -0.92147   0.01114
   7   16480.9    606.8   0.000116464   0.00233   0.00188  -0.04501   0.01722
   8   31709.4    315.4   0.001228589   0.01276  -0.00643  -0.11270   0.00355
   9   31287.6    319.6   0.000635981   0.00669   0.02446   0.07676  -0.01421
  10   23641.7    423.0   0.001442233   0.02008   0.13943   0.02026  -0.01527
  11   23928.8    417.9   0.000332012   0.00457   0.01369   0.06196   0.02327
  12   27437.7    364.5   0.003822527   0.04586  -0.05266  -0.14065  -0.15268
  13   27182.8    367.9   0.005323588   0.06447   0.00344   0.05796   0.24719
  14   27185.4    367.8   0.003970456   0.04808  -0.03314  -0.16378  -0.14199
  15   39014.2    256.3   0.000348382   0.00294   0.02079  -0.03567  -0.03515
  16   38905.8    257.0   0.000114648   0.00097  -0.02960  -0.00627   0.00741
  17   30635.8    326.4   0.003220462   0.03461   0.00422   0.01841  -0.18507
  18   26505.1    377.3   0.004355619   0.05410   0.19211   0.11688  -0.05943
  19   30884.1    323.8   0.014207516   0.15145  -0.01652  -0.25096  -0.29697
  20   27211.4    367.5   0.003268777   0.03955  -0.00740  -0.17424  -0.09556
  21   19679.8    508.1   0.001282474   0.02145   0.07103   0.12801   0.00476
  22   12752.0    784.2   0.018830718   0.48614   0.67915  -0.09634   0.12494
  23   32576.1    307.0   0.636495963   6.43239   2.53335  -0.07523   0.09430
  24   20540.0    486.9   0.069193465   1.10902   0.68403   0.65488  -0.46072
  25    2224.9   4494.5   0.000341703   0.05056  -0.03861   0.21561   0.05080
  26   38004.1    263.1   0.521118147   4.51421  -0.02431  -2.11879   0.15603
  27   32696.2    305.8   0.049161102   0.49499  -0.44257   0.50225  -0.21651
  28   40895.8    244.5   0.010597908   0.08531  -0.14447  -0.05070  -0.24874
  29   40649.9    246.0   0.307999733   2.49440  -0.22573  -0.21312   1.54856
  30   38260.2    261.4   0.199394267   1.71570   0.22504  -0.00597  -1.29036

-----------------------------------------------------------------------------
         ABSORPTION SPECTRUM VIA TRANSITION VELOCITY DIPOLE MOMENTS
-----------------------------------------------------------------------------
State   Energy    Wavelength   fosc        P2         PX        PY        PZ  
        (cm-1)      (nm)                 (au**2)     (au)      (au)      (au) 
-----------------------------------------------------------------------------
   1   10136.6    986.5   2.820699648   0.19541  -0.44190  -0.01122  -0.00314
   2   15585.4    641.6   0.066250123   0.00706  -0.00293   0.08385  -0.00416
   3   17482.3    572.0   0.021171337   0.00253  -0.00774   0.04548   0.02003
   4   24963.8    400.6   0.030545364   0.00521   0.06974  -0.01837   0.00332
   5   19954.9    501.1   1.363916453   0.18601   0.02210  -0.43066   0.00736
   6   17428.7    573.8   0.257478449   0.03067   0.00532   0.17504  -0.00209
   7   16480.9    606.8   0.000795823   0.00009  -0.00030   0.00884  -0.00338
   8   31709.4    315.4   0.002204351   0.00048   0.00110   0.02183  -0.00042
   9   31287.6    319.6   0.001450585   0.00031  -0.00464  -0.01472   0.00848
  10   23641.7    423.0   0.004681510   0.00076  -0.02704  -0.00402   0.00303
  11   23928.8    417.9   0.001181610   0.00019  -0.00237  -0.01241  -0.00581
  12   27437.7    364.5   0.010379132   0.00195   0.01006   0.02848   0.03216
  13   27182.8    367.9   0.014583925   0.00271  -0.00163  -0.01249  -0.05051
  14   27185.4    367.8   0.012514565   0.00233   0.00845   0.03556   0.03145
  15   39014.2    256.3   0.000516865   0.00014  -0.00413   0.00783   0.00771
  16   38905.8    257.0   0.000161818   0.00004   0.00644   0.00113  -0.00054
  17   30635.8    326.4   0.007312750   0.00153  -0.00351  -0.00333   0.03883
  18   26505.1    377.3   0.013312460   0.00241  -0.04020  -0.02551   0.01203
  19   30884.1    323.8   0.031512775   0.00665   0.00234   0.05037   0.06410
  20   27211.4    367.5   0.010029829   0.00187   0.00415   0.03751   0.02101
  21   19679.8    508.1   0.007975602   0.00107  -0.01577  -0.02864  -0.00185
  22   12752.0    784.2   0.275626612   0.02402  -0.15082   0.02180  -0.02826
  23   32576.1    307.0   1.465655323   0.32632  -0.57059   0.01698  -0.02135
  24   20540.0    486.9   0.402232896   0.05647  -0.15364  -0.14786   0.10488
  25    2224.9   4494.5   0.189407757   0.00288   0.00927  -0.05154  -0.01176
  26   38004.1    263.1   1.043048919   0.27092   0.00566   0.51906  -0.03833
  27   32696.2    305.8   0.132845576   0.02969   0.10818  -0.12316   0.05305
  28   40895.8    244.5   0.018519643   0.00518   0.03464   0.01393   0.06150
  29   40649.9    246.0   0.557734975   0.15495   0.05687   0.05033  -0.38624
  30   38260.2    261.4   0.410054080   0.10722  -0.05540  -0.00071   0.32273

-------------------------------------------------------------------
                             CD SPECTRUM
-------------------------------------------------------------------
State  Energy     Wavelength     R         MX        MY        MZ   
       (cm-1)       (nm)     (1e40*cgs)   (au)      (au)      (au)  
-------------------------------------------------------------------
   1   10136.6    986.5      3.36261   0.00847  -0.11123  -0.51692
   2   15585.4    641.6     -0.28884  -0.01135   0.00069  -0.00142
   3   17482.3    572.0      0.17439   0.04396   0.01413  -0.01781
   4   24963.8    400.6     -2.26321   0.00651   0.00898   0.17627
   5   19954.9    501.1    -126.73695   0.06398  -0.11385   0.03877
   6   17428.7    573.8    109.12590   0.03286  -0.25149   0.06335
   7   16480.9    606.8     -0.31863  -0.43365  -0.00820  -0.01340
   8   31709.4    315.4      4.44196  -0.02960  -0.08132   0.01883
   9   31287.6    319.6     -0.09859  -0.00089   0.00945   0.06420
  10   23641.7    423.0     -6.34629  -0.09974  -0.09821  -0.15949
  11   23928.8    417.9      6.08145  -0.05484   0.01865   0.53692
  12   27437.7    364.5     -7.28003  -0.00683  -0.00216   0.10549
  13   27182.8    367.9     12.42882   0.30762  -0.10644   0.12733
  14   27185.4    367.8     -5.28228  -0.07788   0.06746   0.01927
  15   39014.2    256.3     -0.04501  -0.01855  -0.00791  -0.00024
  16   38905.8    257.0     -0.55381   0.03370   0.02745  -0.00072
  17   30635.8    326.4      0.92368  -0.14414  -0.15872  -0.02967
  18   26505.1    377.3      2.56110   0.04434  -0.07686  -0.09925
  19   30884.1    323.8     18.37227  -0.20209  -0.04855  -0.07896
  20   27211.4    367.5    -15.76045  -0.14669   0.09779   0.18289
  21   19679.8    508.1     15.86309   0.38322   0.04955   0.01809
  22   12752.0    784.2      8.26737   0.04066   0.02518  -0.06126
  23   32576.1    307.0      7.14731   0.00857  -0.11251  -0.15929
  24   20540.0    486.9    -29.90280  -0.14261   0.01536  -0.05223
  25    2224.9   4494.5     -4.14677   0.16877  -0.01264   0.00876
  26   38004.1    263.1      3.74218  -0.20977  -0.01244  -0.15074
  27   32696.2    305.8     86.10914  -0.15391  -0.02585  -0.58894
  28   40895.8    244.5     46.29346  -0.32691  -0.11377  -0.18170
  29   40649.9    246.0    -143.30736   1.87204   0.05383   0.08400
  30   38260.2    261.4    -17.74656  -0.99726  -0.04608  -0.14454

Total run time:    18364.524 sec

           *** ORCA-CIS/TD-DFT FINISHED WITHOUT ERROR ***

Maximum memory used throughout the entire CIS-calculation: 4912.9 MB

-----------------------
CIS/TD-DFT TOTAL ENERGY
-----------------------

    E(SCF)  = -11432.531888332 Eh
    DE(CIS) =      0.046185755 Eh (Root  1)
    ----------------------------- ---------
    E(tot)  = -11432.485702576 Eh



-------------------------------------------------------------------------------
                          DFT DISPERSION CORRECTION                            
                                                                               
                              DFTD3 V3.1  Rev 1                                
                          USING Becke-Johnson damping                          
-------------------------------------------------------------------------------
The DSD-BLYP functional is recognized
Active option DFTDOPT                   ...         4   

molecular C6(AA) [au] = 31980.816720 


            DFT-D V3
 parameters
 s6 scaling factor         :     0.5000 
 a1 scaling factor         :     0.0000 
 s8 scaling factor         :     0.2130 
 a2 scaling factor         :     6.0520 
 ad hoc parameters k1-k3   :    16.0000     1.3333    -4.0000 

 Edisp/kcal,au: -30.075198487704  -0.047927874435 
 E6   /kcal   : -22.432580782 
 E8   /kcal   :  -7.642617706 
 % E8         :  25.411694986 

-------------------------   ----------------
Dispersion correction           -0.047927874
-------------------------   ----------------


-------------------------   --------------------
FINAL SINGLE POINT ENERGY    -11432.533630450689
-------------------------   --------------------


                            ***************************************
                            *     ORCA property calculations      *
                            ***************************************


  WARNING: The energy has been calculated at the MP2 level but the densities
           used in the property calculations are still SCF densities
           MP2 response densities have not been calculated 
           use %mp2 Density relaxed end
           or  %mp2 Density unrelaxed end

                                    ---------------------
                                    Active property flags
                                    ---------------------
   (+) Dipole Moment


------------------------------------------------------------------------------
                       ORCA ELECTRIC PROPERTIES CALCULATION
------------------------------------------------------------------------------

Dipole Moment Calculation                       ... on
Quadrupole Moment Calculation                   ... off
Polarizability Calculation                      ... off
GBWName                                         ... Eos_Y_M06L_def2TZVP_coords_Nanelkul.gbw
Electron density                                ... Eos_Y_M06L_def2TZVP_coords_Nanelkul.scfp
The origin for moment calculation is the CENTER OF MASS  = ( 0.005770, -0.208048  0.009322)

-------------
DIPOLE MOMENT
-------------
                                X             Y             Z
Electronic contribution:      2.23624     -63.37875      -2.23987
Nuclear contribution   :     -1.76550      63.66252      -2.85258
                        -----------------------------------------
Total Dipole Moment    :      0.47074       0.28376      -5.09245
                        -----------------------------------------
Magnitude (a.u.)       :      5.12203
Magnitude (Debye)      :     13.01916



--------------------
Rotational spectrum 
--------------------
 
Rotational constants in cm-1:     0.003520     0.002272     0.001480 
Rotational constants in MHz :   105.521627    68.099067    44.374263 

 Dipole components along the rotational axes: 
x,y,z [a.u.] :     0.467249     0.266472    -5.093706 
x,y,z [Debye]:     1.187653     0.677317   -12.947173 

 

Timings for individual modules:

Sum of individual times         ...    19539.245 sec (= 325.654 min)
GTO integral calculation        ...        2.412 sec (=   0.040 min)   0.0 %
SCF iterations                  ...      489.900 sec (=   8.165 min)   2.5 %
MP2 module                      ...      681.861 sec (=  11.364 min)   3.5 %
CIS module                      ...    18365.072 sec (= 306.085 min)  94.0 %
                             ****ORCA TERMINATED NORMALLY****
TOTAL RUN TIME: 0 days 5 hours 25 minutes 44 seconds 409 msec
