 Entering Gaussian System, Link 0=g09
 Input=/home/png4rjv/fotokatalizis/benchmark/OPCs/RESTART_Mes-Acr/Mes-Acr_1_CAM-B3LYP-D3_def2TZVP.gjf
 Output=/home/png4rjv/fotokatalizis/benchmark/OPCs/RESTART_Mes-Acr/Mes-Acr_1_CAM-B3LYP-D3_def2TZVP.log
 Initial command:
 /opt/nce/packages/global/g09/l1.exe "/home/png4rjv/fotokatalizis/benchmark/OPCs/RESTART_Mes-Acr/Mes-Acr_1_CAM-B3LYP-D3_def2TZVP/Gau-46805.inp" -scrdir="/home/png4rjv/fotokatalizis/benchmark/OPCs/RESTART_Mes-Acr/Mes-Acr_1_CAM-B3LYP-D3_def2TZVP/"
 Default is to use a total of  12 processors:
                               12 via shared-memory
                                1 via Linda
 Entering Link 1 = /opt/nce/packages/global/g09/l1.exe PID=     46806.
  
 Copyright (c) 1988,1990,1992,1993,1995,1998,2003,2009,2015,
            Gaussian, Inc.  All Rights Reserved.
  
 This is part of the Gaussian(R) 09 program.  It is based on
 the Gaussian(R) 03 system (copyright 2003, Gaussian, Inc.),
 the Gaussian(R) 98 system (copyright 1998, Gaussian, Inc.),
 the Gaussian(R) 94 system (copyright 1995, Gaussian, Inc.),
 the Gaussian 92(TM) system (copyright 1992, Gaussian, Inc.),
 the Gaussian 90(TM) system (copyright 1990, Gaussian, Inc.),
 the Gaussian 88(TM) system (copyright 1988, Gaussian, Inc.),
 the Gaussian 86(TM) system (copyright 1986, Carnegie Mellon
 University), and the Gaussian 82(TM) system (copyright 1983,
 Carnegie Mellon University). Gaussian is a federally registered
 trademark of Gaussian, Inc.
  
 This software contains proprietary and confidential information,
 including trade secrets, belonging to Gaussian, Inc.
  
 This software is provided under written license and may be
 used, copied, transmitted, or stored only in accord with that
 written license.
  
 The following legend is applicable only to US Government
 contracts under FAR:
  
                    RESTRICTED RIGHTS LEGEND
  
 Use, reproduction and disclosure by the US Government is
 subject to restrictions as set forth in subparagraphs (a)
 and (c) of the Commercial Computer Software - Restricted
 Rights clause in FAR 52.227-19.
  
 Gaussian, Inc.
 340 Quinnipiac St., Bldg. 40, Wallingford CT 06492
  
  
 ---------------------------------------------------------------
 Warning -- This program may not be used in any manner that
 competes with the business of Gaussian, Inc. or will provide
 assistance to any competitor of Gaussian, Inc.  The licensee
 of this program is prohibited from giving any competitor of
 Gaussian, Inc. access to this program.  By using this program,
 the user acknowledges that Gaussian, Inc. is engaged in the
 business of creating and licensing software in the field of
 computational chemistry and represents and warrants to the
 licensee that it is not a competitor of Gaussian, Inc. and that
 it will not use this program in any manner prohibited above.
 ---------------------------------------------------------------
  

 Cite this work as:
 Gaussian 09, Revision E.01,
 M. J. Frisch, G. W. Trucks, H. B. Schlegel, G. E. Scuseria, 
 M. A. Robb, J. R. Cheeseman, G. Scalmani, V. Barone, B. Mennucci, 
 G. A. Petersson, H. Nakatsuji, M. Caricato, X. Li, H. P. Hratchian, 
 A. F. Izmaylov, J. Bloino, G. Zheng, J. L. Sonnenberg, M. Hada, 
 M. Ehara, K. Toyota, R. Fukuda, J. Hasegawa, M. Ishida, T. Nakajima, 
 Y. Honda, O. Kitao, H. Nakai, T. Vreven, J. A. Montgomery, Jr., 
 J. E. Peralta, F. Ogliaro, M. Bearpark, J. J. Heyd, E. Brothers, 
 K. N. Kudin, V. N. Staroverov, T. Keith, R. Kobayashi, J. Normand, 
 K. Raghavachari, A. Rendell, J. C. Burant, S. S. Iyengar, J. Tomasi, 
 M. Cossi, N. Rega, J. M. Millam, M. Klene, J. E. Knox, J. B. Cross, 
 V. Bakken, C. Adamo, J. Jaramillo, R. Gomperts, R. E. Stratmann, 
 O. Yazyev, A. J. Austin, R. Cammi, C. Pomelli, J. W. Ochterski, 
 R. L. Martin, K. Morokuma, V. G. Zakrzewski, G. A. Voth, 
 P. Salvador, J. J. Dannenberg, S. Dapprich, A. D. Daniels, 
 O. Farkas, J. B. Foresman, J. V. Ortiz, J. Cioslowski, 
 and D. J. Fox, Gaussian, Inc., Wallingford CT, 2013.
 
 ******************************************
 Gaussian 09:  ES64L-G09RevE.01 30-Nov-2015
                25-Feb-2022 
 ******************************************
 %chk=cp.chk
 Default route:  MaxDisk=500GB
 ----------------------------------------------------------------------
 #p cam-b3lyp/def2TZVP opt=tight freq=noraman Symmetry=None int=ultrafi
 ne scrf=(SMD,solvent=Acetonitrile) EmpiricalDispersion=GD3BJ
 ----------------------------------------------------------------------
 1/7=10,14=-1,18=20,19=15,26=4,38=1/1,3;
 2/9=110,12=2,15=3,17=6,18=5,40=1/2;
 3/5=44,7=101,11=2,16=1,25=1,30=1,70=32201,71=1,72=2,74=-40,75=-5,124=41/1,2,3;
 4//1;
 5/5=2,38=5,53=2/2;
 6/7=2,8=2,9=2,10=2,28=1/1;
 7/30=1/1,2,3,16;
 1/7=10,14=-1,18=20,19=15,26=4/3(2);
 2/9=110,15=3/2;
 99//99;
 2/9=110,15=3/2;
 3/5=44,7=101,11=2,16=1,25=1,30=1,70=32205,71=1,72=2,74=-40,75=-5,124=41/1,2,3;
 4/5=5,16=3,69=1/1;
 5/5=2,38=5,53=2/2;
 7/30=1/1,2,3,16;
 1/7=10,14=-1,18=20,19=15,26=4/3(-5);
 2/9=110,15=3/2;
 6/7=2,8=2,9=2,10=2,19=2,28=1/1;
 99/9=1/99;
 Leave Link    1 at Fri Feb 25 09:13:56 2022, MaxMem=           0 cpu:         1.4
 (Enter /opt/nce/packages/global/g09/l101.exe)
 -----
 Title
 -----
 Symbolic Z-matrix:
 Charge =  1 Multiplicity = 1
 C                     2.24457   3.62047  -0.11512 
 C                     2.94237   2.43207  -0.05404 
 C                     2.24459   1.20167   0.01544 
 C                     0.80762   1.21485  -0.00996 
 C                     0.13092   2.46762  -0.05599 
 C                     0.83029   3.64797  -0.10297 
 C                     0.09257   0.00003   0.00318 
 C                     0.80955  -1.21363  -0.01282 
 C                     2.2465   -1.19837   0.01357 
 C                     2.94607  -2.42771  -0.05673 
 H                     4.03183  -2.45065  -0.09152 
 C                     2.25002  -3.61699  -0.12029 
 C                     0.83577  -3.64653  -0.11011 
 C                     0.13469  -2.46726  -0.06197 
 H                     2.80191   4.55616  -0.18081 
 H                     4.02806   2.4565   -0.0901 
 H                    -0.95892   2.46108  -0.06288 
 H                     0.30374   4.60188  -0.14343 
 H                     2.80877  -4.5518   -0.18655 
 H                     0.31065  -4.60113  -0.15288 
 H                    -0.95516  -2.46228  -0.07008 
 N                     2.91328   0.00212   0.0951 
 C                     4.37511   0.00333   0.25992 
 H                     4.67625  -0.87838   0.82946 
 H                     4.87225   0.00506  -0.71947 
 H                     4.67447   0.88417   0.83178 
 C                    -1.39476  -0.00105   0.01279 
 C                    -2.10082   0.00085  -1.20648 
 C                    -2.07944  -0.00675   1.2469 
 C                    -3.50114  -0.00199  -1.16752 
 C                    -3.47771  -0.00928   1.23486 
 C                    -4.20878  -0.00548   0.03928 
 H                    -4.05161  -0.00253  -2.11224 
 H                    -4.00936  -0.01549   2.19055 
 C                    -1.32495  -0.01222   2.54817 
 H                    -0.67564  -0.89799   2.63183 
 H                    -0.67242   0.8706    2.63748 
 H                    -2.0171   -0.01373   3.40008 
 C                    -1.37353   0.00356  -2.523 
 H                    -0.72528   0.88857  -2.62169 
 H                    -0.72384  -0.88005  -2.62473 
 H                    -2.08314   0.00448  -3.36041 
 C                    -5.71266   0.00811   0.05906 
 H                    -6.09244   0.97473   0.42748 
 H                    -6.12688  -0.15565  -0.94497 
 H                    -6.11017  -0.76791   0.73045 
 
 NAtoms=     46 NQM=       46 NQMF=       0 NMMI=      0 NMMIF=      0
                NMic=       0 NMicF=      0.
                    Isotopes and Nuclear Properties:
 (Nuclear quadrupole moments (NQMom) in fm**2, nuclear magnetic moments (NMagM)
  in nuclear magnetons)

  Atom         1           2           3           4           5           6           7           8           9          10
 IAtWgt=          12          12          12          12          12          12          12          12          12          12
 AtmWgt=  12.0000000  12.0000000  12.0000000  12.0000000  12.0000000  12.0000000  12.0000000  12.0000000  12.0000000  12.0000000
 NucSpn=           0           0           0           0           0           0           0           0           0           0
 AtZEff=   0.0000000   0.0000000   0.0000000   0.0000000   0.0000000   0.0000000   0.0000000   0.0000000   0.0000000   0.0000000
 NQMom=    0.0000000   0.0000000   0.0000000   0.0000000   0.0000000   0.0000000   0.0000000   0.0000000   0.0000000   0.0000000
 NMagM=    0.0000000   0.0000000   0.0000000   0.0000000   0.0000000   0.0000000   0.0000000   0.0000000   0.0000000   0.0000000
 AtZNuc=   6.0000000   6.0000000   6.0000000   6.0000000   6.0000000   6.0000000   6.0000000   6.0000000   6.0000000   6.0000000

  Atom        11          12          13          14          15          16          17          18          19          20
 IAtWgt=           1          12          12          12           1           1           1           1           1           1
 AtmWgt=   1.0078250  12.0000000  12.0000000  12.0000000   1.0078250   1.0078250   1.0078250   1.0078250   1.0078250   1.0078250
 NucSpn=           1           0           0           0           1           1           1           1           1           1
 AtZEff=   0.0000000   0.0000000   0.0000000   0.0000000   0.0000000   0.0000000   0.0000000   0.0000000   0.0000000   0.0000000
 NQMom=    0.0000000   0.0000000   0.0000000   0.0000000   0.0000000   0.0000000   0.0000000   0.0000000   0.0000000   0.0000000
 NMagM=    2.7928460   0.0000000   0.0000000   0.0000000   2.7928460   2.7928460   2.7928460   2.7928460   2.7928460   2.7928460
 AtZNuc=   1.0000000   6.0000000   6.0000000   6.0000000   1.0000000   1.0000000   1.0000000   1.0000000   1.0000000   1.0000000

  Atom        21          22          23          24          25          26          27          28          29          30
 IAtWgt=           1          14          12           1           1           1          12          12          12          12
 AtmWgt=   1.0078250  14.0030740  12.0000000   1.0078250   1.0078250   1.0078250  12.0000000  12.0000000  12.0000000  12.0000000
 NucSpn=           1           2           0           1           1           1           0           0           0           0
 AtZEff=   0.0000000   0.0000000   0.0000000   0.0000000   0.0000000   0.0000000   0.0000000   0.0000000   0.0000000   0.0000000
 NQMom=    0.0000000   2.0440000   0.0000000   0.0000000   0.0000000   0.0000000   0.0000000   0.0000000   0.0000000   0.0000000
 NMagM=    2.7928460   0.4037610   0.0000000   2.7928460   2.7928460   2.7928460   0.0000000   0.0000000   0.0000000   0.0000000
 AtZNuc=   1.0000000   7.0000000   6.0000000   1.0000000   1.0000000   1.0000000   6.0000000   6.0000000   6.0000000   6.0000000

  Atom        31          32          33          34          35          36          37          38          39          40
 IAtWgt=          12          12           1           1          12           1           1           1          12           1
 AtmWgt=  12.0000000  12.0000000   1.0078250   1.0078250  12.0000000   1.0078250   1.0078250   1.0078250  12.0000000   1.0078250
 NucSpn=           0           0           1           1           0           1           1           1           0           1
 AtZEff=   0.0000000   0.0000000   0.0000000   0.0000000   0.0000000   0.0000000   0.0000000   0.0000000   0.0000000   0.0000000
 NQMom=    0.0000000   0.0000000   0.0000000   0.0000000   0.0000000   0.0000000   0.0000000   0.0000000   0.0000000   0.0000000
 NMagM=    0.0000000   0.0000000   2.7928460   2.7928460   0.0000000   2.7928460   2.7928460   2.7928460   0.0000000   2.7928460
 AtZNuc=   6.0000000   6.0000000   1.0000000   1.0000000   6.0000000   1.0000000   1.0000000   1.0000000   6.0000000   1.0000000

  Atom        41          42          43          44          45          46
 IAtWgt=           1           1          12           1           1           1
 AtmWgt=   1.0078250   1.0078250  12.0000000   1.0078250   1.0078250   1.0078250
 NucSpn=           1           1           0           1           1           1
 AtZEff=   0.0000000   0.0000000   0.0000000   0.0000000   0.0000000   0.0000000
 NQMom=    0.0000000   0.0000000   0.0000000   0.0000000   0.0000000   0.0000000
 NMagM=    2.7928460   2.7928460   0.0000000   2.7928460   2.7928460   2.7928460
 AtZNuc=   1.0000000   1.0000000   6.0000000   1.0000000   1.0000000   1.0000000
 Leave Link  101 at Fri Feb 25 09:13:56 2022, MaxMem=  5242880000 cpu:         4.2
 (Enter /opt/nce/packages/global/g09/l103.exe)

 GradGradGradGradGradGradGradGradGradGradGradGradGradGradGradGradGradGrad
 Berny optimization.
 Initialization pass.
                           ----------------------------
                           !    Initial Parameters    !
                           ! (Angstroms and Degrees)  !
 --------------------------                            --------------------------
 ! Name  Definition              Value          Derivative Info.                !
 --------------------------------------------------------------------------------
 ! R1    R(1,2)                  1.3795         estimate D2E/DX2                !
 ! R2    R(1,6)                  1.4146         estimate D2E/DX2                !
 ! R3    R(1,15)                 1.0911         estimate D2E/DX2                !
 ! R4    R(2,3)                  1.4162         estimate D2E/DX2                !
 ! R5    R(2,16)                 1.0866         estimate D2E/DX2                !
 ! R6    R(3,4)                  1.4373         estimate D2E/DX2                !
 ! R7    R(3,22)                 1.3756         estimate D2E/DX2                !
 ! R8    R(4,5)                  1.4246         estimate D2E/DX2                !
 ! R9    R(4,7)                  1.4097         estimate D2E/DX2                !
 ! R10   R(5,6)                  1.3728         estimate D2E/DX2                !
 ! R11   R(5,17)                 1.0899         estimate D2E/DX2                !
 ! R12   R(6,18)                 1.0903         estimate D2E/DX2                !
 ! R13   R(7,8)                  1.4097         estimate D2E/DX2                !
 ! R14   R(7,27)                 1.4874         estimate D2E/DX2                !
 ! R15   R(8,9)                  1.4373         estimate D2E/DX2                !
 ! R16   R(8,14)                 1.4246         estimate D2E/DX2                !
 ! R17   R(9,10)                 1.4162         estimate D2E/DX2                !
 ! R18   R(9,22)                 1.3757         estimate D2E/DX2                !
 ! R19   R(10,11)                1.0866         estimate D2E/DX2                !
 ! R20   R(10,12)                1.3795         estimate D2E/DX2                !
 ! R21   R(12,13)                1.4146         estimate D2E/DX2                !
 ! R22   R(12,19)                1.0911         estimate D2E/DX2                !
 ! R23   R(13,14)                1.3728         estimate D2E/DX2                !
 ! R24   R(13,20)                1.0903         estimate D2E/DX2                !
 ! R25   R(14,21)                1.0899         estimate D2E/DX2                !
 ! R26   R(22,23)                1.4711         estimate D2E/DX2                !
 ! R27   R(23,24)                1.092          estimate D2E/DX2                !
 ! R28   R(23,25)                1.0983         estimate D2E/DX2                !
 ! R29   R(23,26)                1.092          estimate D2E/DX2                !
 ! R30   R(27,28)                1.4089         estimate D2E/DX2                !
 ! R31   R(27,29)                1.4113         estimate D2E/DX2                !
 ! R32   R(28,30)                1.4009         estimate D2E/DX2                !
 ! R33   R(28,39)                1.5041         estimate D2E/DX2                !
 ! R34   R(29,31)                1.3983         estimate D2E/DX2                !
 ! R35   R(29,35)                1.5042         estimate D2E/DX2                !
 ! R36   R(30,32)                1.399          estimate D2E/DX2                !
 ! R37   R(30,33)                1.0934         estimate D2E/DX2                !
 ! R38   R(31,32)                1.4014         estimate D2E/DX2                !
 ! R39   R(31,34)                1.0936         estimate D2E/DX2                !
 ! R40   R(32,43)                1.5041         estimate D2E/DX2                !
 ! R41   R(35,36)                1.1014         estimate D2E/DX2                !
 ! R42   R(35,37)                1.1014         estimate D2E/DX2                !
 ! R43   R(35,38)                1.0976         estimate D2E/DX2                !
 ! R44   R(39,40)                1.1015         estimate D2E/DX2                !
 ! R45   R(39,41)                1.1015         estimate D2E/DX2                !
 ! R46   R(39,42)                1.0976         estimate D2E/DX2                !
 ! R47   R(43,44)                1.102          estimate D2E/DX2                !
 ! R48   R(43,45)                1.0984         estimate D2E/DX2                !
 ! R49   R(43,46)                1.1005         estimate D2E/DX2                !
 ! A1    A(2,1,6)              121.4729         estimate D2E/DX2                !
 ! A2    A(2,1,15)             118.8862         estimate D2E/DX2                !
 ! A3    A(6,1,15)             119.6396         estimate D2E/DX2                !
 ! A4    A(1,2,3)              120.093          estimate D2E/DX2                !
 ! A5    A(1,2,16)             118.9864         estimate D2E/DX2                !
 ! A6    A(3,2,16)             120.8955         estimate D2E/DX2                !
 ! A7    A(2,3,4)              118.9325         estimate D2E/DX2                !
 ! A8    A(2,3,22)             121.3948         estimate D2E/DX2                !
 ! A9    A(4,3,22)             119.6705         estimate D2E/DX2                !
 ! A10   A(3,4,5)              118.9176         estimate D2E/DX2                !
 ! A11   A(3,4,7)              119.9383         estimate D2E/DX2                !
 ! A12   A(5,4,7)              121.1431         estimate D2E/DX2                !
 ! A13   A(4,5,6)              121.0127         estimate D2E/DX2                !
 ! A14   A(4,5,17)             118.0294         estimate D2E/DX2                !
 ! A15   A(6,5,17)             120.9551         estimate D2E/DX2                !
 ! A16   A(1,6,5)              119.5323         estimate D2E/DX2                !
 ! A17   A(1,6,18)             119.967          estimate D2E/DX2                !
 ! A18   A(5,6,18)             120.4962         estimate D2E/DX2                !
 ! A19   A(4,7,8)              118.9354         estimate D2E/DX2                !
 ! A20   A(4,7,27)             120.5248         estimate D2E/DX2                !
 ! A21   A(8,7,27)             120.5333         estimate D2E/DX2                !
 ! A22   A(7,8,9)              119.943          estimate D2E/DX2                !
 ! A23   A(7,8,14)             121.1359         estimate D2E/DX2                !
 ! A24   A(9,8,14)             118.9203         estimate D2E/DX2                !
 ! A25   A(8,9,10)             118.9299         estimate D2E/DX2                !
 ! A26   A(8,9,22)             119.666          estimate D2E/DX2                !
 ! A27   A(10,9,22)            121.402          estimate D2E/DX2                !
 ! A28   A(9,10,11)            120.8993         estimate D2E/DX2                !
 ! A29   A(9,10,12)            120.094          estimate D2E/DX2                !
 ! A30   A(11,10,12)           118.9816         estimate D2E/DX2                !
 ! A31   A(10,12,13)           121.475          estimate D2E/DX2                !
 ! A32   A(10,12,19)           118.8855         estimate D2E/DX2                !
 ! A33   A(13,12,19)           119.6382         estimate D2E/DX2                !
 ! A34   A(12,13,14)           119.5309         estimate D2E/DX2                !
 ! A35   A(12,13,20)           119.9667         estimate D2E/DX2                !
 ! A36   A(14,13,20)           120.4981         estimate D2E/DX2                !
 ! A37   A(8,14,13)            121.0131         estimate D2E/DX2                !
 ! A38   A(8,14,21)            118.0301         estimate D2E/DX2                !
 ! A39   A(13,14,21)           120.9542         estimate D2E/DX2                !
 ! A40   A(3,22,9)             121.4612         estimate D2E/DX2                !
 ! A41   A(3,22,23)            119.2618         estimate D2E/DX2                !
 ! A42   A(9,22,23)            119.275          estimate D2E/DX2                !
 ! A43   A(22,23,24)           109.3782         estimate D2E/DX2                !
 ! A44   A(22,23,25)           110.4798         estimate D2E/DX2                !
 ! A45   A(22,23,26)           109.3743         estimate D2E/DX2                !
 ! A46   A(24,23,25)           109.9699         estimate D2E/DX2                !
 ! A47   A(24,23,26)           107.6108         estimate D2E/DX2                !
 ! A48   A(25,23,26)           109.9747         estimate D2E/DX2                !
 ! A49   A(7,27,28)            119.7042         estimate D2E/DX2                !
 ! A50   A(7,27,29)            119.3916         estimate D2E/DX2                !
 ! A51   A(28,27,29)           120.9041         estimate D2E/DX2                !
 ! A52   A(27,28,30)           118.4808         estimate D2E/DX2                !
 ! A53   A(27,28,39)           121.0077         estimate D2E/DX2                !
 ! A54   A(30,28,39)           120.5114         estimate D2E/DX2                !
 ! A55   A(27,29,31)           118.5284         estimate D2E/DX2                !
 ! A56   A(27,29,35)           120.8733         estimate D2E/DX2                !
 ! A57   A(31,29,35)           120.5982         estimate D2E/DX2                !
 ! A58   A(28,30,32)           121.9802         estimate D2E/DX2                !
 ! A59   A(28,30,33)           118.6354         estimate D2E/DX2                !
 ! A60   A(32,30,33)           119.3844         estimate D2E/DX2                !
 ! A61   A(29,31,32)           121.9375         estimate D2E/DX2                !
 ! A62   A(29,31,34)           118.5947         estimate D2E/DX2                !
 ! A63   A(32,31,34)           119.4677         estimate D2E/DX2                !
 ! A64   A(30,32,31)           118.1687         estimate D2E/DX2                !
 ! A65   A(30,32,43)           121.137          estimate D2E/DX2                !
 ! A66   A(31,32,43)           120.6916         estimate D2E/DX2                !
 ! A67   A(29,35,36)           111.3663         estimate D2E/DX2                !
 ! A68   A(29,35,37)           111.3706         estimate D2E/DX2                !
 ! A69   A(29,35,38)           110.8017         estimate D2E/DX2                !
 ! A70   A(36,35,37)           106.8077         estimate D2E/DX2                !
 ! A71   A(36,35,38)           108.16           estimate D2E/DX2                !
 ! A72   A(37,35,38)           108.1646         estimate D2E/DX2                !
 ! A73   A(28,39,40)           111.3751         estimate D2E/DX2                !
 ! A74   A(28,39,41)           111.3836         estimate D2E/DX2                !
 ! A75   A(28,39,42)           110.8046         estimate D2E/DX2                !
 ! A76   A(40,39,41)           106.8072         estimate D2E/DX2                !
 ! A77   A(40,39,42)           108.1473         estimate D2E/DX2                !
 ! A78   A(41,39,42)           108.1516         estimate D2E/DX2                !
 ! A79   A(32,43,44)           110.9114         estimate D2E/DX2                !
 ! A80   A(32,43,45)           111.3274         estimate D2E/DX2                !
 ! A81   A(32,43,46)           111.2736         estimate D2E/DX2                !
 ! A82   A(44,43,45)           107.8436         estimate D2E/DX2                !
 ! A83   A(44,43,46)           106.864          estimate D2E/DX2                !
 ! A84   A(45,43,46)           108.4416         estimate D2E/DX2                !
 ! D1    D(6,1,2,3)              0.3524         estimate D2E/DX2                !
 ! D2    D(6,1,2,16)           178.5474         estimate D2E/DX2                !
 ! D3    D(15,1,2,3)          -179.237          estimate D2E/DX2                !
 ! D4    D(15,1,2,16)           -1.0421         estimate D2E/DX2                !
 ! D5    D(2,1,6,5)             -1.3026         estimate D2E/DX2                !
 ! D6    D(2,1,6,18)           179.4613         estimate D2E/DX2                !
 ! D7    D(15,1,6,5)           178.2838         estimate D2E/DX2                !
 ! D8    D(15,1,6,18)           -0.9522         estimate D2E/DX2                !
 ! D9    D(1,2,3,4)              1.4096         estimate D2E/DX2                !
 ! D10   D(1,2,3,22)          -179.1305         estimate D2E/DX2                !
 ! D11   D(16,2,3,4)          -176.7504         estimate D2E/DX2                !
 ! D12   D(16,2,3,22)            2.7095         estimate D2E/DX2                !
 ! D13   D(2,3,4,5)             -2.2186         estimate D2E/DX2                !
 ! D14   D(2,3,4,7)            177.4249         estimate D2E/DX2                !
 ! D15   D(22,3,4,5)           178.312          estimate D2E/DX2                !
 ! D16   D(22,3,4,7)            -2.0445         estimate D2E/DX2                !
 ! D17   D(2,3,22,9)          -172.6975         estimate D2E/DX2                !
 ! D18   D(2,3,22,23)            6.7873         estimate D2E/DX2                !
 ! D19   D(4,3,22,9)             6.7585         estimate D2E/DX2                !
 ! D20   D(4,3,22,23)         -173.7568         estimate D2E/DX2                !
 ! D21   D(3,4,5,6)              1.3099         estimate D2E/DX2                !
 ! D22   D(3,4,5,17)          -179.2904         estimate D2E/DX2                !
 ! D23   D(7,4,5,6)           -178.3291         estimate D2E/DX2                !
 ! D24   D(7,4,5,17)             1.0706         estimate D2E/DX2                !
 ! D25   D(3,4,7,8)             -2.5141         estimate D2E/DX2                !
 ! D26   D(3,4,7,27)           178.4088         estimate D2E/DX2                !
 ! D27   D(5,4,7,8)            177.1212         estimate D2E/DX2                !
 ! D28   D(5,4,7,27)            -1.9559         estimate D2E/DX2                !
 ! D29   D(4,5,6,1)              0.4362         estimate D2E/DX2                !
 ! D30   D(4,5,6,18)           179.6681         estimate D2E/DX2                !
 ! D31   D(17,5,6,1)          -178.9459         estimate D2E/DX2                !
 ! D32   D(17,5,6,18)            0.286          estimate D2E/DX2                !
 ! D33   D(4,7,8,9)              2.5582         estimate D2E/DX2                !
 ! D34   D(4,7,8,14)          -177.1132         estimate D2E/DX2                !
 ! D35   D(27,7,8,9)          -178.3648         estimate D2E/DX2                !
 ! D36   D(27,7,8,14)            1.9638         estimate D2E/DX2                !
 ! D37   D(4,7,27,28)           89.4857         estimate D2E/DX2                !
 ! D38   D(4,7,27,29)          -90.6438         estimate D2E/DX2                !
 ! D39   D(8,7,27,28)          -89.5766         estimate D2E/DX2                !
 ! D40   D(8,7,27,29)           90.2939         estimate D2E/DX2                !
 ! D41   D(7,8,9,10)          -177.5219         estimate D2E/DX2                !
 ! D42   D(7,8,9,22)             1.9547         estimate D2E/DX2                !
 ! D43   D(14,8,9,10)            2.1568         estimate D2E/DX2                !
 ! D44   D(14,8,9,22)         -178.3666         estimate D2E/DX2                !
 ! D45   D(7,8,14,13)          178.4083         estimate D2E/DX2                !
 ! D46   D(7,8,14,21)           -1.0048         estimate D2E/DX2                !
 ! D47   D(9,8,14,13)           -1.2664         estimate D2E/DX2                !
 ! D48   D(9,8,14,21)          179.3205         estimate D2E/DX2                !
 ! D49   D(8,9,10,11)          176.785          estimate D2E/DX2                !
 ! D50   D(8,9,10,12)           -1.3737         estimate D2E/DX2                !
 ! D51   D(22,9,10,11)          -2.6821         estimate D2E/DX2                !
 ! D52   D(22,9,10,12)         179.1591         estimate D2E/DX2                !
 ! D53   D(8,9,22,3)            -6.7137         estimate D2E/DX2                !
 ! D54   D(8,9,22,23)          173.8016         estimate D2E/DX2                !
 ! D55   D(10,9,22,3)          172.7496         estimate D2E/DX2                !
 ! D56   D(10,9,22,23)          -6.7351         estimate D2E/DX2                !
 ! D57   D(9,10,12,13)          -0.3426         estimate D2E/DX2                !
 ! D58   D(9,10,12,19)         179.2382         estimate D2E/DX2                !
 ! D59   D(11,10,12,13)       -178.5365         estimate D2E/DX2                !
 ! D60   D(11,10,12,19)          1.0443         estimate D2E/DX2                !
 ! D61   D(10,12,13,14)          1.2734         estimate D2E/DX2                !
 ! D62   D(10,12,13,20)       -179.4836         estimate D2E/DX2                !
 ! D63   D(19,12,13,14)       -178.3044         estimate D2E/DX2                !
 ! D64   D(19,12,13,20)          0.9387         estimate D2E/DX2                !
 ! D65   D(12,13,14,8)          -0.4345         estimate D2E/DX2                !
 ! D66   D(12,13,14,21)        178.9614         estimate D2E/DX2                !
 ! D67   D(20,13,14,8)        -179.6735         estimate D2E/DX2                !
 ! D68   D(20,13,14,21)         -0.2776         estimate D2E/DX2                !
 ! D69   D(3,22,23,24)         149.0947         estimate D2E/DX2                !
 ! D70   D(3,22,23,25)         -89.7187         estimate D2E/DX2                !
 ! D71   D(3,22,23,26)          31.4714         estimate D2E/DX2                !
 ! D72   D(9,22,23,24)         -31.4091         estimate D2E/DX2                !
 ! D73   D(9,22,23,25)          89.7775         estimate D2E/DX2                !
 ! D74   D(9,22,23,26)        -149.0325         estimate D2E/DX2                !
 ! D75   D(7,27,28,30)         179.918          estimate D2E/DX2                !
 ! D76   D(7,27,28,39)           0.0176         estimate D2E/DX2                !
 ! D77   D(29,27,28,30)          0.0496         estimate D2E/DX2                !
 ! D78   D(29,27,28,39)       -179.8509         estimate D2E/DX2                !
 ! D79   D(7,27,29,31)        -179.9254         estimate D2E/DX2                !
 ! D80   D(7,27,29,35)          -0.0218         estimate D2E/DX2                !
 ! D81   D(28,27,29,31)         -0.0566         estimate D2E/DX2                !
 ! D82   D(28,27,29,35)        179.847          estimate D2E/DX2                !
 ! D83   D(27,28,30,32)          0.0547         estimate D2E/DX2                !
 ! D84   D(27,28,30,33)       -179.8802         estimate D2E/DX2                !
 ! D85   D(39,28,30,32)        179.9556         estimate D2E/DX2                !
 ! D86   D(39,28,30,33)          0.0207         estimate D2E/DX2                !
 ! D87   D(27,28,39,40)        -59.5846         estimate D2E/DX2                !
 ! D88   D(27,28,39,41)         59.5409         estimate D2E/DX2                !
 ! D89   D(27,28,39,42)        179.9837         estimate D2E/DX2                !
 ! D90   D(30,28,39,40)        120.5169         estimate D2E/DX2                !
 ! D91   D(30,28,39,41)       -120.3575         estimate D2E/DX2                !
 ! D92   D(30,28,39,42)          0.0853         estimate D2E/DX2                !
 ! D93   D(27,29,31,32)         -0.0401         estimate D2E/DX2                !
 ! D94   D(27,29,31,34)        179.8925         estimate D2E/DX2                !
 ! D95   D(35,29,31,32)       -179.944          estimate D2E/DX2                !
 ! D96   D(35,29,31,34)         -0.0114         estimate D2E/DX2                !
 ! D97   D(27,29,35,36)        -59.7            estimate D2E/DX2                !
 ! D98   D(27,29,35,37)         59.4116         estimate D2E/DX2                !
 ! D99   D(27,29,35,38)        179.8602         estimate D2E/DX2                !
 ! D100  D(31,29,35,36)        120.2017         estimate D2E/DX2                !
 ! D101  D(31,29,35,37)       -120.6868         estimate D2E/DX2                !
 ! D102  D(31,29,35,38)         -0.2382         estimate D2E/DX2                !
 ! D103  D(28,30,32,31)         -0.1469         estimate D2E/DX2                !
 ! D104  D(28,30,32,43)        179.261          estimate D2E/DX2                !
 ! D105  D(33,30,32,31)        179.7875         estimate D2E/DX2                !
 ! D106  D(33,30,32,43)         -0.8046         estimate D2E/DX2                !
 ! D107  D(29,31,32,30)          0.1394         estimate D2E/DX2                !
 ! D108  D(29,31,32,43)       -179.2712         estimate D2E/DX2                !
 ! D109  D(34,31,32,30)       -179.7926         estimate D2E/DX2                !
 ! D110  D(34,31,32,43)          0.7968         estimate D2E/DX2                !
 ! D111  D(30,32,43,44)       -110.1924         estimate D2E/DX2                !
 ! D112  D(30,32,43,45)          9.8951         estimate D2E/DX2                !
 ! D113  D(30,32,43,46)        130.9892         estimate D2E/DX2                !
 ! D114  D(31,32,43,44)         69.2005         estimate D2E/DX2                !
 ! D115  D(31,32,43,45)       -170.7119         estimate D2E/DX2                !
 ! D116  D(31,32,43,46)        -49.6178         estimate D2E/DX2                !
 --------------------------------------------------------------------------------
 Trust Radius=3.00D-01 FncErr=1.00D-07 GrdErr=1.00D-06
 Number of steps in this run=    259 maximum allowed number of steps=    276.
 GradGradGradGradGradGradGradGradGradGradGradGradGradGradGradGradGradGrad

 Leave Link  103 at Fri Feb 25 09:13:56 2022, MaxMem=  5242880000 cpu:         0.2
 (Enter /opt/nce/packages/global/g09/l202.exe)
                          Input orientation:                          
 ---------------------------------------------------------------------
 Center     Atomic      Atomic             Coordinates (Angstroms)
 Number     Number       Type             X           Y           Z
 ---------------------------------------------------------------------
      1          6           0        2.244570    3.620471   -0.115122
      2          6           0        2.942369    2.432072   -0.054036
      3          6           0        2.244594    1.201669    0.015438
      4          6           0        0.807619    1.214850   -0.009960
      5          6           0        0.130924    2.467617   -0.055988
      6          6           0        0.830288    3.647968   -0.102971
      7          6           0        0.092568    0.000029    0.003175
      8          6           0        0.809550   -1.213629   -0.012819
      9          6           0        2.246503   -1.198369    0.013569
     10          6           0        2.946071   -2.427706   -0.056730
     11          1           0        4.031827   -2.450646   -0.091523
     12          6           0        2.250023   -3.616994   -0.120287
     13          6           0        0.835771   -3.646534   -0.110110
     14          6           0        0.134691   -2.467264   -0.061970
     15          1           0        2.801905    4.556160   -0.180812
     16          1           0        4.028057    2.456497   -0.090098
     17          1           0       -0.958920    2.461084   -0.062878
     18          1           0        0.303737    4.601880   -0.143434
     19          1           0        2.808765   -4.551804   -0.186552
     20          1           0        0.310649   -4.601132   -0.152879
     21          1           0       -0.955158   -2.462278   -0.070079
     22          7           0        2.913279    0.002121    0.095099
     23          6           0        4.375109    0.003326    0.259918
     24          1           0        4.676245   -0.878381    0.829464
     25          1           0        4.872249    0.005057   -0.719466
     26          1           0        4.674469    0.884165    0.831783
     27          6           0       -1.394763   -0.001051    0.012788
     28          6           0       -2.100824    0.000847   -1.206477
     29          6           0       -2.079444   -0.006751    1.246899
     30          6           0       -3.501135   -0.001991   -1.167522
     31          6           0       -3.477706   -0.009276    1.234864
     32          6           0       -4.208781   -0.005483    0.039279
     33          1           0       -4.051612   -0.002533   -2.112241
     34          1           0       -4.009364   -0.015494    2.190547
     35          6           0       -1.324951   -0.012221    2.548166
     36          1           0       -0.675637   -0.897985    2.631828
     37          1           0       -0.672420    0.870598    2.637478
     38          1           0       -2.017102   -0.013732    3.400079
     39          6           0       -1.373531    0.003564   -2.522999
     40          1           0       -0.725278    0.888570   -2.621691
     41          1           0       -0.723843   -0.880053   -2.624726
     42          1           0       -2.083142    0.004475   -3.360406
     43          6           0       -5.712664    0.008112    0.059056
     44          1           0       -6.092445    0.974725    0.427476
     45          1           0       -6.126881   -0.155648   -0.944973
     46          1           0       -6.110169   -0.767909    0.730452
 ---------------------------------------------------------------------
                    Distance matrix (angstroms):
                    1          2          3          4          5
     1  C    0.000000
     2  C    1.379473   0.000000
     3  C    2.422323   1.416195   0.000000
     4  C    2.804086   2.457790   1.437260   0.000000
     5  C    2.408333   2.811670   2.464818   1.424591   0.000000
     6  C    1.414601   2.437557   2.828190   2.435001   1.372788
     7  C    4.213396   3.746928   2.464813   1.409702   2.468595
     8  C    5.043637   4.223950   2.809593   2.428481   3.743524
     9  C    4.820558   3.697148   2.400039   2.809727   4.233198
    10  C    6.089003   4.859780   3.697248   4.224142   5.647056
    11  H    6.328768   5.002925   4.067560   4.882421   6.277549
    12  C    7.237469   6.088919   4.820577   5.043750   6.443385
    13  C    7.402304   6.433533   5.050309   4.862497   6.154883
    14  C    6.443208   5.646823   4.233055   3.743461   4.934886
    15  H    1.091078   2.132499   3.406130   3.894961   3.392894
    16  H    2.129856   1.086561   2.183225   3.452438   3.897298
    17  H    3.407236   3.901407   3.443074   2.162535   1.089885
    18  H    2.175040   3.417373   3.918367   3.426906   2.143033
    19  H    8.192039   6.986411   5.784595   6.106559   7.513997
    20  H    8.446078   7.510105   6.118903   5.838926   7.071697
    21  H    6.873145   6.256647   4.865206   4.078268   5.048132
    22  N    3.685624   2.434697   1.375646   2.432191   3.720618
    23  C    4.214687   2.837273   2.456601   3.777249   4.917889
    24  H    5.200476   3.840052   3.301844   4.478004   5.713114
    25  H    4.510116   3.171378   2.979351   4.299792   5.383732
    26  H    3.780001   2.486134   2.582929   3.971198   4.892776
    27  C    5.135808   4.973456   3.832944   2.515834   2.902890
    28  C    5.759790   5.716010   4.670943   3.371127   3.519841
    29  C    5.805940   5.732268   4.655543   3.377445   3.564511
    30  C    6.873347   6.977339   5.988455   4.624501   4.530599
    31  C    6.909556   6.988477   5.974789   4.627319   4.563278
    32  C    7.403859   7.555748   6.565351   5.162936   4.995832
    33  H    7.533694   7.686305   6.754208   5.432654   5.274791
    34  H    7.592631   7.704241   6.732353   5.436847   5.324917
    35  C    5.747263   5.563816   4.542014   3.549305   3.879534
    36  H    6.040678   5.602956   4.447673   3.693665   4.382028
    37  H    4.862863   4.769607   3.936200   3.052532   3.232737
    38  H    6.612558   6.519910   5.576293   4.595305   4.766079
    39  C    5.654250   5.533572   4.579295   3.541185   3.797510
    40  H    4.750386   4.735703   3.984046   3.045878   3.131981
    41  H    5.946789   5.569536   4.485047   3.683883   4.305338
    42  H    6.506642   6.486992   5.617730   4.587700   4.678497
    43  C    8.740541   8.988769   8.046393   6.631370   6.341129
    44  H    8.763573   9.164255   8.350299   6.918085   6.418161
    45  H    9.221113   9.473192   8.535004   7.130204   6.843386
    46  H    9.474943   9.633470   8.613510   7.234316   7.073780
                    6          7          8          9         10
     6  C    0.000000
     7  C    3.723299   0.000000
     8  C    4.862477   1.409711   0.000000
     9  C    5.050369   2.464894   1.437276   0.000000
    10  C    6.433700   3.746994   2.457770   1.416194   0.000000
    11  H    6.887893   4.640316   3.452459   2.183260   1.086556
    12  C    7.402406   4.213397   2.804046   2.422329   1.379467
    13  C    7.294508   3.723252   2.434991   2.828246   2.437572
    14  C    6.154803   2.468512   1.424588   2.464863   2.811663
    15  H    2.172129   5.304026   6.106404   5.784536   6.986456
    16  H    3.412550   4.640152   4.882068   4.067275   5.002724
    17  H    2.147456   2.677085   4.078420   4.865406   6.256937
    18  H    1.090340   4.609026   5.838926   6.118977   7.510295
    19  H    8.435497   5.304046   3.894927   3.406129   2.132487
    20  H    8.265601   4.608969   3.426908   3.918422   3.417378
    21  H    6.365847   2.676948   2.162544   3.443123   3.901405
    22  N    4.203604   2.822209   2.432153   1.375650   2.434787
    23  C    5.097142   4.290231   3.777377   2.456771   2.837663
    24  H    6.012375   4.739668   3.971544   2.582968   2.485810
    25  H    5.476159   4.834003   4.300008   2.979952   3.172967
    26  H    4.825982   4.739420   4.477911   3.301733   3.839962
    27  C    4.275464   1.487362   2.515949   3.833065   4.973563
    28  C    4.807352   2.504841   3.371950   4.671818   5.717599
    29  C    4.862680   2.502905   3.374867   4.653480   5.728549
    30  C    5.763393   3.779582   4.624220   5.988459   6.977422
    31  C    5.807241   3.776771   4.624688   5.972610   6.984406
    32  C    6.225765   4.301504   5.161974   6.564627   7.554356
    33  H    6.418432   4.652872   5.431871   6.753913   7.685971
    34  H    6.488714   4.648729   5.432521   6.728618   7.697214
    35  C    5.007052   2.913158   3.543744   4.537225   5.555329
    36  H    5.514764   2.882080   3.049520   3.935024   4.762894
    37  H    4.181145   2.877959   3.682976   4.436850   5.588474
    38  H    5.812662   3.998732   4.591033   5.572265   6.512287
    39  C    4.898473   2.920790   3.542373   4.580771   5.536472
    40  H    4.046976   2.889342   3.685261   4.486802   5.572748
    41  H    5.410873   2.889106   3.047068   3.985584   4.738998
    42  H    5.689815   4.005922   4.588876   5.619285   6.490205
    43  C    7.488994   5.805507   6.636045   8.050218   8.995572
    44  H    7.439881   6.275703   7.253984   8.627381   9.669838
    45  H    7.973623   6.293232   7.078299   8.492328   9.395195
    46  H    8.268283   6.292266   6.973782   8.398404   9.240674
                   11         12         13         14         15
    11  H    0.000000
    12  C    2.129794   0.000000
    13  C    3.412516   1.414597   0.000000
    14  C    3.897283   2.408300   1.372774   0.000000
    15  H    7.114493   8.191989   8.435335   7.513763   0.000000
    16  H    4.907145   6.328476   6.887531   6.277142   2.433159
    17  H    7.002390   6.873401   6.366015   5.048227   4.306629
    18  H    7.977435   8.446209   8.265622   7.071634   2.498866
    19  H    2.433059   1.091079   2.172110   3.392860   9.107968
    20  H    4.298316   2.175031   1.090339   2.143040   9.490160
    21  H    4.987045   3.407209   2.147438   1.089891   7.961549
    22  N    2.702229   3.685688   4.203669   3.720630   4.563749
    23  C    2.502665   4.215123   5.097579   4.918188   4.837097
    24  H    1.932746   3.780024   4.826459   4.893354   5.836784
    25  H    2.670412   4.511578   5.477097   5.384155   5.028818
    26  H    3.519438   5.200462   6.012487   5.713183   4.244454
    27  C    5.954769   5.135876   4.275504   2.902934   6.198199
    28  C    6.697936   5.761810   4.809262   3.521221   6.770496
    29  C    6.716519   5.800632   4.856745   3.559446   6.832722
    30  C    7.993698   6.873192   5.762774   4.529795   7.840832
    31  C    8.007039   6.903546   5.800404   4.557729   7.891822
    32  C    8.596717   7.401663   6.223108   4.993633   8.367003
    33  H    8.684385   7.532783   6.416680   5.272916   8.454750
    34  H    8.706237   7.582261   6.477099   5.315844   8.539130
    35  C    6.450500   5.735457   4.994335   3.869186   6.734120
    36  H    5.655759   4.850426   4.166185   3.221151   7.053505
    37  H    6.372444   6.023655   5.498033   4.368040   5.796297
    38  H    7.397255   6.601881   5.801514   4.757711   7.545165
    39  C    6.415070   5.657880   4.901659   3.799525   6.606530
    40  H    6.338940   5.950592   5.414063   4.307359   5.643592
    41  H    5.612511   4.754676   4.050816   3.134332   6.925029
    42  H    7.355682   6.510739   5.693360   4.680594   7.395359
    43  C   10.051033   8.750882   7.501137   6.350881   9.656095
    44  H   10.700627   9.538380   8.345371   7.131905   9.607609
    45  H   10.449629   9.101294   7.833378   6.732796  10.124638
    46  H   10.313454   8.873210   7.565653   6.520277  10.421189
                   16         17         18         19         20
    16  H    0.000000
    17  H    4.987053   0.000000
    18  H    4.298380   2.486725   0.000000
    19  H    7.114229   7.961868   9.490361   0.000000
    20  H    7.977041   7.175988   9.203019   2.498830   0.000000
    21  H    7.001941   4.923369   7.175829   4.306600   2.486729
    22  N    2.702034   4.589704   5.293807   4.563823   5.293875
    23  C    2.502200   5.881891   6.155117   4.837559   6.155589
    24  H    3.519539   6.610854   7.078038   4.244267   5.820851
    25  H    2.668018   6.361266   6.506450   5.030601   6.507395
    26  H    1.933893   5.917953   5.820288   5.836747   7.078204
    27  C    5.954587   2.501558   4.908796   6.198285   4.908831
    28  C    6.696245   2.943557   5.299196   6.772809   5.301272
    29  C    6.719875   3.010199   5.371411   6.826923   5.364724
    30  C    7.993356   3.708077   6.059821   7.840787   6.058985
    31  C    8.010745   3.759135   6.120603   7.885094   6.112496
    32  C    8.597883   4.081175   6.451666   8.364567   6.448423
    33  H    8.684293   4.453543   6.636707   8.453929   6.634420
    34  H    8.712762   4.529522   6.735759   8.527344   6.721773
    35  C    6.458305   3.615075   5.584556   6.721168   5.570362
    36  H    6.386405   4.315673   6.237769   5.782276   4.737156
    37  H    5.661204   3.147007   4.754873   7.035356   6.220317
    38  H    7.404547   4.385947   6.264715   7.533061   6.251894
    39  C    6.411945   3.501928   5.442432   6.610746   5.445838
    40  H    5.609060   3.012460   4.581408   6.929432   6.107782
    41  H    6.335413   4.216814   6.104451   5.648519   4.585480
    42  H    7.352148   4.262921   6.097724   7.400256   6.101646
    43  C   10.044824   5.350703   7.572370   9.667880   7.587513
    44  H   10.241489   5.366823   7.375184  10.495289   8.510382
    45  H   10.520308   5.859454   8.039240   9.987350   7.863303
    46  H   10.670226   6.131161   8.410499   9.731708   7.529992
                   21         22         23         24         25
    21  H    0.000000
    22  N    4.589701   0.000000
    23  C    5.882163   1.471093   0.000000
    24  H    5.918666   2.103004   1.092004   0.000000
    25  H    6.361456   2.121577   1.098337   1.793896   0.000000
    26  H    6.610956   2.102973   1.092027   1.762548   1.793968
    27  C    2.501551   4.308829   5.775164   6.188199   6.309649
    28  C    2.944645   5.180283   6.639882   7.130692   6.990060
    29  C    3.004674   5.123866   6.529586   6.824465   7.224456
    30  C    3.706669   6.537502   8.004551   8.463188   8.385366
    31  C    3.752778   6.491832   7.913115   8.210153   8.575626
    32  C    4.078463   7.122283   8.586730   8.962702   9.112679
    33  H    4.450708   7.306304   8.754245   9.251823   9.031898
    34  H    4.519442   7.232856   8.603899   8.833851   9.346210
    35  C    3.604821   4.896972   6.142231   6.302263   7.005926
    36  H    3.134557   4.486146   5.652287   5.647260   6.544134
    37  H    4.303355   4.480534   5.646459   5.910673   6.539235
    38  H    4.377796   5.935638   7.121886   7.221951   8.027089
    39  C    3.503174   5.023065   6.386822   6.972562   6.500962
    40  H    4.218027   4.626644   5.924633   6.648988   5.977572
    41  H    3.013829   4.626482   5.924596   6.410334   5.977431
    42  H    4.264208   6.074927   7.403766   8.001485   7.439894
    43  C    5.362217   8.626020  10.089774  10.455086  10.613505
    44  H    6.200989   9.064188  10.513866  10.934362  11.067079
    45  H    5.729983   9.101161  10.572078  10.971714  11.002615
    46  H    5.485059   9.078504  10.524128  10.787434  11.104650
                   26         27         28         29         30
    26  H    0.000000
    27  C    6.187886   0.000000
    28  C    7.130172   1.408947   0.000000
    29  C    6.825056   1.411329   2.453481   0.000000
    30  C    8.463037   2.414526   1.400856   2.801902   0.000000
    31  C    8.210887   2.414993   2.802865   1.398316   2.402511
    32  C    8.962793   2.814146   2.448557   2.447943   1.398980
    33  H    9.251919   3.402146   2.150812   3.895290   1.093398
    34  H    8.835416   3.402790   3.896481   2.148288   3.396337
    35  C    6.304167   2.536364   3.833992   1.504189   4.306068
    36  H    5.919447   2.860245   4.191854   2.164024   4.818849
    37  H    5.643575   2.858417   4.191992   2.164063   4.820899
    38  H    7.223537   3.444010   4.607340   2.154094   4.802652
    39  C    6.971967   2.535880   1.504059   3.835434   2.522706
    40  H    6.409662   2.860090   2.164026   4.195397   3.257774
    41  H    6.648435   2.859940   2.164138   4.194018   3.256960
    42  H    8.000851   3.442722   2.154005   4.607320   2.611415
    43  C   10.452612   4.318159   3.827142   3.822496   2.528924
    44  H   10.774883   4.815841   4.421683   4.211760   3.195760
    45  H   10.995783   4.830543   4.037575   4.605238   2.639636
    46  H   10.910913   4.830959   4.518576   4.134347   3.316021
                   31         32         33         34         35
    31  C    0.000000
    32  C    1.401395   0.000000
    33  H    3.395957   2.157255   0.000000
    34  H    1.093631   2.160514   4.303015   0.000000
    35  C    2.521731   3.822438   5.399460   2.708131   0.000000
    36  H    3.254674   4.472245   5.891115   3.476673   1.101447
    37  H    3.257474   4.474819   5.894160   3.481394   1.101428
    38  H    2.611808   4.012294   5.875800   2.330682   1.097648
    39  C    4.306884   3.821517   2.709405   5.400509   5.071422
    40  H    4.822344   4.473800   3.481106   5.895777   5.281899
    41  H    4.820627   4.472872   3.479472   5.893129   5.279515
    42  H    4.802239   4.009526   2.330845   5.875696   5.957043
    43  C    2.525443   1.504074   2.733814   2.728560   5.044612
    44  H    2.908091   2.158633   3.401499   2.903133   5.310404
    45  H    3.433838   2.161113   2.385938   3.786160   5.939792
    46  H    2.785645   2.162011   3.592264   2.666718   5.174308
                   36         37         38         39         40
    36  H    0.000000
    37  H    1.768595   0.000000
    38  H    1.780910   1.780946   0.000000
    39  C    5.279402   5.279567   5.957964   0.000000
    40  H    5.549208   5.259465   6.224522   1.101457   0.000000
    41  H    5.256806   5.546009   6.222645   1.101464   1.768626
    42  H    6.221123   6.222131   6.760832   1.097633   1.780763
    43  C    5.728159   5.726797   4.981977   5.049268   5.730238
    44  H    6.140686   5.854197   5.140218   5.649478   6.173437
    45  H    6.562060   6.605928   5.982466   5.010973   5.751442
    46  H    5.759018   5.990874   4.944582   5.797918   6.555748
                   41         42         43         44         45
    41  H    0.000000
    42  H    1.780817   0.000000
    43  C    5.734096   4.986598   0.000000
    44  H    6.448103   5.600352   1.101956   0.000000
    45  H    5.704310   4.712938   1.098393   1.778355   0.000000
    46  H    6.346834   5.792119   1.100451   1.768865   1.783870
                   46
    46  H    0.000000
 Symmetry turned off by external request.
 Stoichiometry    C23H22N
 Rotational constants (GHZ):      0.3617098      0.2049980      0.1540330
 Leave Link  202 at Fri Feb 25 09:13:56 2022, MaxMem=  5242880000 cpu:         0.1
 (Enter /opt/nce/packages/global/g09/l301.exe)
 Standard basis: def2TZVP (5D, 7F)
 Ernie: Thresh=  0.10000D-02 Tol=  0.10000D-05 Strict=F.
   876 basis functions,  1400 primitive gaussians,   996 cartesian basis functions
    83 alpha electrons       83 beta electrons
       nuclear repulsion energy      1987.1108135457 Hartrees.
 IExCor=20419 DFT=T Ex+Corr=CAM-B3LYP ExCW=0 ScaHFX=  1.000000
 ScaDFX=  1.000000  1.000000  1.000000  0.810000 ScalE2=  1.000000  1.000000
 IRadAn=      5 IRanWt=     -1 IRanGd=            0 ICorTp=0 IEmpDi=141
  HFx wShort=  0.000000 wLong=  0.330000 cFull=  0.190000 cShort=  0.000000 cLong=  0.460000
  DFx wShort=  0.000000 wLong=  0.330000 cFull=  0.190000 cShort=  0.000000 cLong=  0.460000
 NAtoms=   46 NActive=   46 NUniq=   46 SFac= 1.00D+00 NAtFMM=   60 NAOKFM=F Big=F
 Integral buffers will be    131072 words long.
 Raffenetti 2 integral format.
 Two-electron integral symmetry is turned off.
 R6Disp:  Grimme-D3(BJ) Dispersion energy=       -0.0567908637 Hartrees.
 Nuclear repulsion after empirical dispersion term =     1987.0540226820 Hartrees.
 ------------------------------------------------------------------------------
 Polarizable Continuum Model (PCM)
 =================================
 Model                : PCM (using non-symmetric T matrix).
 Atomic radii         : SMD-Coulomb.
 Polarization charges : Total charges.
 Charge compensation  : None.
 Solution method      : On-the-fly selection.
 Cavity type          : VdW (van der Waals Surface) (Alpha=1.000).
 Cavity algorithm     : GePol (No added spheres)
                        Default sphere list used, NSphG=   46.
                        Lebedev-Laikov grids with approx.  5.0 points / Ang**2.
                        Smoothing algorithm: York/Karplus (Gamma=1.0000).
                        Polarization charges: spherical gaussians, with
                                              point-specific exponents (IZeta= 3).
                        Self-potential: point-specific (ISelfS= 7).
                        Self-field    : sphere-specific E.n sum rule (ISelfD= 2).
 1st derivatives      : Analytical E(r).r(x)/FMM algorithm (CHGder, D1EAlg=3).
                        Cavity 1st derivative terms included.
 Solvent              : Acetonitrile, Eps=  35.688000 Eps(inf)=   1.806874
 ------------------------------------------------------------------------------
 GePol: Number of generator spheres                  =      46
 GePol: Total number of spheres                      =      46
 GePol: Number of exposed spheres                    =      46 (100.00%)
 GePol: Number of points                             =    3351
 GePol: Average weight of points                     =       0.11
 GePol: Minimum weight of points                     =   0.88D-08
 GePol: Maximum weight of points                     =    0.17992
 GePol: Number of points with low weight             =     225
 GePol: Fraction of low-weight points (<1% of avg)   =       6.71%
 GePol: Cavity surface area                          =    352.898 Ang**2
 GePol: Cavity volume                                =    336.541 Ang**3
 ------------------------------------------------------------------------------
 Atomic radii for non-electrostatic terms: SMD-CDS.
 ------------------------------------------------------------------------------
 PCM non-electrostatic energy =        -0.0074409696 Hartrees.
 Nuclear repulsion after PCM non-electrostatic terms =     1987.0465817124 Hartrees.
 Leave Link  301 at Fri Feb 25 09:13:56 2022, MaxMem=  5242880000 cpu:         1.4
 (Enter /opt/nce/packages/global/g09/l302.exe)
 NPDir=0 NMtPBC=     1 NCelOv=     1 NCel=       1 NClECP=     1 NCelD=      1
         NCelK=      1 NCelE2=     1 NClLst=     1 CellRange=     0.0.
 One-electron integrals computed using PRISM.
   1 Symmetry operations used in ECPInt.
 ECPInt:  NShTT=   62128 NPrTT=  188172 LenC2=   54745 LenP2D=  117658.
 LDataN:  DoStor=T MaxTD1= 6 Len=  172
 NBasis=   876 RedAO= T EigKep=  3.25D-06  NBF=   876
 NBsUse=   876 1.00D-06 EigRej= -1.00D+00 NBFU=   876
 Precomputing XC quadrature grid using
 IXCGrd= 4 IRadAn=           5 IRanWt=          -1 IRanGd=           0 AccXCQ= 0.00D+00.
 Generated NRdTot=       0 NPtTot=           0 NUsed=           0 NTot=          32
 NSgBfM=   982   982   982   982   982 MxSgAt=    46 MxSgA2=    46.
 Leave Link  302 at Fri Feb 25 09:13:58 2022, MaxMem=  5242880000 cpu:        21.2
 (Enter /opt/nce/packages/global/g09/l303.exe)
 DipDrv:  MaxL=1.
 Leave Link  303 at Fri Feb 25 09:13:59 2022, MaxMem=  5242880000 cpu:         3.8
 (Enter /opt/nce/packages/global/g09/l401.exe)
 ExpMin= 9.52D-02 ExpMax= 1.97D+04 ExpMxC= 6.73D+02 IAcc=3 IRadAn=         5 AccDes= 0.00D+00
 Harris functional with IExCor=20419 and IRadAn=       5 diagonalized for initial guess.
 HarFok:  IExCor=20419 AccDes= 0.00D+00 IRadAn=         5 IDoV= 1 UseB2=F ITyADJ=14
 ICtDFT=  3500011 ScaDFX=  1.000000  1.000000  1.000000  1.000000
 FoFCou: FMM=F IPFlag=           0 FMFlag=      100000 FMFlg1=           0
         NFxFlg=           0 DoJE=T BraDBF=F KetDBF=T FulRan=T
         wScrn=  0.000000 ICntrl=     500 IOpCl=  0 I1Cent=   200000004 NGrid=           0
         NMat0=    1 NMatS0=      1 NMatT0=    0 NMatD0=    1 NMtDS0=    0 NMtDT0=    0
 Symmetry not used in FoFCou.
 Harris En= -905.494792717368    
 JPrj=0 DoOrth=F DoCkMO=F.
 Leave Link  401 at Fri Feb 25 09:14:08 2022, MaxMem=  5242880000 cpu:       106.8
 (Enter /opt/nce/packages/global/g09/l502.exe)
 Closed shell SCF:
 Using DIIS extrapolation, IDIIS=  1040.
 Two-electron integral symmetry not used.
 IVT=     3012618 IEndB=     3012618 NGot=  5242880000 MDV=  5240877035
 LenX=  5240877035 LenY=  5239884023
 Requested convergence on RMS density matrix=1.00D-08 within 128 cycles.
 Requested convergence on MAX density matrix=1.00D-06.
 Requested convergence on             energy=1.00D-06.
 No special actions if energy rises.
 Fock matrices will be formed incrementally for  20 cycles.

 Cycle   1  Pass 1  IDiag  1:
 FoFJK:  IHMeth= 1 ICntrl=       0 DoSepK=T KAlg= 0 I1Cent=   0 FoldK=F
 IRaf=         1 NMat=   1 IRICut=       1 DoRegI=T DoRafI=F ISym2E= 0.
 FoFCou: FMM=F IPFlag=           0 FMFlag=      100000 FMFlg1=           0
         NFxFlg=           0 DoJE=T BraDBF=F KetDBF=F FulRan=T
         wScrn=  0.000000 ICntrl=     500 IOpCl=  0 I1Cent=           0 NGrid=           0
         NMat0=    1 NMatS0=      1 NMatT0=    0 NMatD0=    1 NMtDS0=    0 NMtDT0=    0
 Symmetry not used in FoFCou.
 Inv3:  Mode=1 IEnd=    33687603.
 Iteration    1 A*A^-1 deviation from unit magnitude is 7.33D-15 for   3338.
 Iteration    1 A*A^-1 deviation from orthogonality  is 3.89D-15 for   3347   2774.
 Iteration    1 A^-1*A deviation from unit magnitude is 7.55D-15 for   3338.
 Iteration    1 A^-1*A deviation from orthogonality  is 2.33D-10 for   1059   1023.
 Iteration    2 A*A^-1 deviation from unit magnitude is 2.44D-15 for     77.
 Iteration    2 A*A^-1 deviation from orthogonality  is 3.59D-15 for   1671    495.
 Iteration    2 A^-1*A deviation from unit magnitude is 8.88D-16 for    384.
 Iteration    2 A^-1*A deviation from orthogonality  is 4.66D-16 for   3346   2773.
 E= -943.876206598777    
 DIIS: error= 3.07D-02 at cycle   1 NSaved=   1.
 NSaved= 1 IEnMin= 1 EnMin= -943.876206598777     IErMin= 1 ErrMin= 3.07D-02
 ErrMax= 3.07D-02  0.00D+00 EMaxC= 1.00D-01 BMatC= 1.69D+00 BMatP= 1.69D+00
 IDIUse=3 WtCom= 6.93D-01 WtEn= 3.07D-01
 Coeff-Com:  0.100D+01
 Coeff-En:   0.100D+01
 Coeff:      0.100D+01
 Gap=     0.232 Goal=   None    Shift=    0.000
 GapD=    0.232 DampG=1.000 DampE=0.500 DampFc=0.5000 IDamp=-1.
 Damping current iteration by 5.00D-01
 RMSDP=1.78D-03 MaxDP=1.35D-01              OVMax= 2.56D-01

 Cycle   2  Pass 1  IDiag  1:
 RMSU=  8.01D-04    CP:  9.36D-01
 E= -944.014087817397     Delta-E=       -0.137881218620 Rises=F Damp=T
 DIIS: error= 1.49D-02 at cycle   2 NSaved=   2.
 NSaved= 2 IEnMin= 2 EnMin= -944.014087817397     IErMin= 2 ErrMin= 1.49D-02
 ErrMax= 1.49D-02  0.00D+00 EMaxC= 1.00D-01 BMatC= 3.57D-01 BMatP= 1.69D+00
 IDIUse=3 WtCom= 8.51D-01 WtEn= 1.49D-01
 Coeff-Com: -0.527D+00 0.153D+01
 Coeff-En:   0.000D+00 0.100D+01
 Coeff:     -0.449D+00 0.145D+01
 Gap=     0.265 Goal=   None    Shift=    0.000
 RMSDP=9.65D-04 MaxDP=7.07D-02 DE=-1.38D-01 OVMax= 3.43D-01

 Cycle   3  Pass 1  IDiag  1:
 RMSU=  7.28D-04    CP:  8.68D-01  1.60D+00
 E= -944.023007244333     Delta-E=       -0.008919426936 Rises=F Damp=F
 DIIS: error= 1.73D-02 at cycle   3 NSaved=   3.
 NSaved= 3 IEnMin= 3 EnMin= -944.023007244333     IErMin= 2 ErrMin= 1.49D-02
 ErrMax= 1.73D-02  0.00D+00 EMaxC= 1.00D-01 BMatC= 1.82D-01 BMatP= 3.57D-01
 IDIUse=3 WtCom= 8.27D-01 WtEn= 1.73D-01
 Coeff-Com: -0.394D+00 0.857D+00 0.537D+00
 Coeff-En:   0.000D+00 0.469D+00 0.531D+00
 Coeff:     -0.326D+00 0.790D+00 0.536D+00
 Gap=     0.234 Goal=   None    Shift=    0.000
 RMSDP=3.86D-04 MaxDP=6.35D-02 DE=-8.92D-03 OVMax= 1.57D-01

 Cycle   4  Pass 1  IDiag  1:
 RMSU=  1.86D-04    CP:  8.66D-01  1.83D+00  6.08D-01
 E= -944.184039219361     Delta-E=       -0.161031975028 Rises=F Damp=F
 DIIS: error= 4.19D-03 at cycle   4 NSaved=   4.
 NSaved= 4 IEnMin= 4 EnMin= -944.184039219361     IErMin= 4 ErrMin= 4.19D-03
 ErrMax= 4.19D-03  0.00D+00 EMaxC= 1.00D-01 BMatC= 7.25D-03 BMatP= 1.82D-01
 IDIUse=3 WtCom= 9.58D-01 WtEn= 4.19D-02
 Coeff-Com: -0.153D+00 0.334D+00 0.291D+00 0.529D+00
 Coeff-En:   0.000D+00 0.000D+00 0.000D+00 0.100D+01
 Coeff:     -0.147D+00 0.320D+00 0.278D+00 0.548D+00
 Gap=     0.206 Goal=   None    Shift=    0.000
 RMSDP=7.75D-05 MaxDP=1.06D-02 DE=-1.61D-01 OVMax= 2.62D-02

 Cycle   5  Pass 1  IDiag  1:
 RMSU=  6.12D-05    CP:  8.66D-01  1.82D+00  6.61D-01  8.54D-01
 E= -944.189989603177     Delta-E=       -0.005950383816 Rises=F Damp=F
 DIIS: error= 7.50D-04 at cycle   5 NSaved=   5.
 NSaved= 5 IEnMin= 5 EnMin= -944.189989603177     IErMin= 5 ErrMin= 7.50D-04
 ErrMax= 7.50D-04  0.00D+00 EMaxC= 1.00D-01 BMatC= 1.38D-04 BMatP= 7.25D-03
 IDIUse=3 WtCom= 9.93D-01 WtEn= 7.50D-03
 Coeff-Com:  0.783D-02-0.166D-01 0.127D-01 0.137D+00 0.859D+00
 Coeff-En:   0.000D+00 0.000D+00 0.000D+00 0.000D+00 0.100D+01
 Coeff:      0.777D-02-0.165D-01 0.126D-01 0.136D+00 0.860D+00
 Gap=     0.210 Goal=   None    Shift=    0.000
 RMSDP=3.24D-05 MaxDP=2.07D-03 DE=-5.95D-03 OVMax= 7.65D-03

 Cycle   6  Pass 1  IDiag  1:
 RMSU=  2.66D-05    CP:  8.65D-01  1.83D+00  6.72D-01  9.19D-01  8.89D-01
 E= -944.190147142831     Delta-E=       -0.000157539655 Rises=F Damp=F
 DIIS: error= 3.06D-04 at cycle   6 NSaved=   6.
 NSaved= 6 IEnMin= 6 EnMin= -944.190147142831     IErMin= 6 ErrMin= 3.06D-04
 ErrMax= 3.06D-04  0.00D+00 EMaxC= 1.00D-01 BMatC= 5.95D-05 BMatP= 1.38D-04
 IDIUse=3 WtCom= 9.97D-01 WtEn= 3.06D-03
 Coeff-Com:  0.174D-01-0.378D-01-0.204D-01 0.516D-02 0.447D+00 0.589D+00
 Coeff-En:   0.000D+00 0.000D+00 0.000D+00 0.000D+00 0.453D-01 0.955D+00
 Coeff:      0.173D-01-0.377D-01-0.204D-01 0.515D-02 0.446D+00 0.590D+00
 Gap=     0.210 Goal=   None    Shift=    0.000
 RMSDP=1.19D-05 MaxDP=9.08D-04 DE=-1.58D-04 OVMax= 2.47D-03

 Cycle   7  Pass 1  IDiag  1:
 RMSU=  7.49D-06    CP:  8.65D-01  1.83D+00  6.74D-01  9.29D-01  1.01D+00
                    CP:  8.31D-01
 E= -944.190214646452     Delta-E=       -0.000067503621 Rises=F Damp=F
 DIIS: error= 1.16D-04 at cycle   7 NSaved=   7.
 NSaved= 7 IEnMin= 7 EnMin= -944.190214646452     IErMin= 7 ErrMin= 1.16D-04
 ErrMax= 1.16D-04  0.00D+00 EMaxC= 1.00D-01 BMatC= 2.23D-06 BMatP= 5.95D-05
 IDIUse=3 WtCom= 9.99D-01 WtEn= 1.16D-03
 Coeff-Com:  0.335D-02-0.735D-02-0.631D-02-0.169D-01 0.332D-01 0.141D+00
 Coeff-Com:  0.853D+00
 Coeff-En:   0.000D+00 0.000D+00 0.000D+00 0.000D+00 0.000D+00 0.000D+00
 Coeff-En:   0.100D+01
 Coeff:      0.335D-02-0.734D-02-0.630D-02-0.168D-01 0.331D-01 0.141D+00
 Coeff:      0.853D+00
 Gap=     0.210 Goal=   None    Shift=    0.000
 RMSDP=3.73D-06 MaxDP=2.68D-04 DE=-6.75D-05 OVMax= 1.39D-03

 Cycle   8  Pass 1  IDiag  1:
 RMSU=  2.74D-06    CP:  8.65D-01  1.83D+00  6.74D-01  9.36D-01  1.03D+00
                    CP:  8.77D-01  1.18D+00
 E= -944.190219201147     Delta-E=       -0.000004554695 Rises=F Damp=F
 DIIS: error= 4.97D-05 at cycle   8 NSaved=   8.
 NSaved= 8 IEnMin= 8 EnMin= -944.190219201147     IErMin= 8 ErrMin= 4.97D-05
 ErrMax= 4.97D-05  0.00D+00 EMaxC= 1.00D-01 BMatC= 6.07D-07 BMatP= 2.23D-06
 IDIUse=1 WtCom= 1.00D+00 WtEn= 0.00D+00
 Coeff-Com: -0.204D-02 0.441D-02 0.167D-02-0.955D-02-0.614D-01-0.515D-01
 Coeff-Com:  0.326D+00 0.793D+00
 Coeff:     -0.204D-02 0.441D-02 0.167D-02-0.955D-02-0.614D-01-0.515D-01
 Coeff:      0.326D+00 0.793D+00
 Gap=     0.210 Goal=   None    Shift=    0.000
 RMSDP=1.79D-06 MaxDP=1.69D-04 DE=-4.55D-06 OVMax= 5.95D-04

 Cycle   9  Pass 1  IDiag  1:
 RMSU=  1.05D-06    CP:  8.65D-01  1.83D+00  6.74D-01  9.34D-01  1.04D+00
                    CP:  9.00D-01  1.33D+00  1.14D+00
 E= -944.190220401822     Delta-E=       -0.000001200674 Rises=F Damp=F
 DIIS: error= 1.78D-05 at cycle   9 NSaved=   9.
 NSaved= 9 IEnMin= 9 EnMin= -944.190220401822     IErMin= 9 ErrMin= 1.78D-05
 ErrMax= 1.78D-05  0.00D+00 EMaxC= 1.00D-01 BMatC= 8.82D-08 BMatP= 6.07D-07
 IDIUse=1 WtCom= 1.00D+00 WtEn= 0.00D+00
 Coeff-Com: -0.718D-03 0.155D-02 0.939D-03-0.215D-02-0.157D-01-0.315D-01
 Coeff-Com: -0.433D-01 0.186D+00 0.905D+00
 Coeff:     -0.718D-03 0.155D-02 0.939D-03-0.215D-02-0.157D-01-0.315D-01
 Coeff:     -0.433D-01 0.186D+00 0.905D+00
 Gap=     0.210 Goal=   None    Shift=    0.000
 RMSDP=7.82D-07 MaxDP=8.11D-05 DE=-1.20D-06 OVMax= 3.42D-04

 Cycle  10  Pass 1  IDiag  1:
 RMSU=  4.17D-07    CP:  8.65D-01  1.83D+00  6.74D-01  9.34D-01  1.04D+00
                    CP:  9.06D-01  1.38D+00  1.27D+00  1.26D+00
 E= -944.190220583307     Delta-E=       -0.000000181485 Rises=F Damp=F
 DIIS: error= 6.21D-06 at cycle  10 NSaved=  10.
 NSaved=10 IEnMin=10 EnMin= -944.190220583307     IErMin=10 ErrMin= 6.21D-06
 ErrMax= 6.21D-06  0.00D+00 EMaxC= 1.00D-01 BMatC= 1.24D-08 BMatP= 8.82D-08
 IDIUse=1 WtCom= 1.00D+00 WtEn= 0.00D+00
 Coeff-Com: -0.780D-04 0.164D-03 0.255D-03 0.162D-03 0.211D-02-0.666D-02
 Coeff-Com: -0.601D-01-0.361D-01 0.351D+00 0.749D+00
 Coeff:     -0.780D-04 0.164D-03 0.255D-03 0.162D-03 0.211D-02-0.666D-02
 Coeff:     -0.601D-01-0.361D-01 0.351D+00 0.749D+00
 Gap=     0.210 Goal=   None    Shift=    0.000
 RMSDP=2.71D-07 MaxDP=2.02D-05 DE=-1.81D-07 OVMax= 1.20D-04

 Cycle  11  Pass 1  IDiag  1:
 RMSU=  1.49D-07    CP:  8.65D-01  1.83D+00  6.74D-01  9.34D-01  1.04D+00
                    CP:  9.05D-01  1.40D+00  1.31D+00  1.37D+00  1.09D+00
 E= -944.190220608430     Delta-E=       -0.000000025123 Rises=F Damp=F
 DIIS: error= 3.05D-06 at cycle  11 NSaved=  11.
 NSaved=11 IEnMin=11 EnMin= -944.190220608430     IErMin=11 ErrMin= 3.05D-06
 ErrMax= 3.05D-06  0.00D+00 EMaxC= 1.00D-01 BMatC= 1.23D-09 BMatP= 1.24D-08
 IDIUse=1 WtCom= 1.00D+00 WtEn= 0.00D+00
 Coeff-Com:  0.952D-04-0.207D-03-0.679D-04 0.343D-03 0.364D-02 0.293D-02
 Coeff-Com: -0.125D-01-0.460D-01-0.131D-01 0.218D+00 0.847D+00
 Coeff:      0.952D-04-0.207D-03-0.679D-04 0.343D-03 0.364D-02 0.293D-02
 Coeff:     -0.125D-01-0.460D-01-0.131D-01 0.218D+00 0.847D+00
 Gap=     0.210 Goal=   None    Shift=    0.000
 RMSDP=1.11D-07 MaxDP=1.24D-05 DE=-2.51D-08 OVMax= 6.15D-05

 Cycle  12  Pass 1  IDiag  1:
 RMSU=  7.01D-08    CP:  8.65D-01  1.83D+00  6.74D-01  9.33D-01  1.04D+00
                    CP:  9.05D-01  1.41D+00  1.32D+00  1.41D+00  1.19D+00
                    CP:  1.19D+00
 E= -944.190220612702     Delta-E=       -0.000000004272 Rises=F Damp=F
 DIIS: error= 1.35D-06 at cycle  12 NSaved=  12.
 NSaved=12 IEnMin=12 EnMin= -944.190220612702     IErMin=12 ErrMin= 1.35D-06
 ErrMax= 1.35D-06  0.00D+00 EMaxC= 1.00D-01 BMatC= 1.92D-10 BMatP= 1.23D-09
 IDIUse=1 WtCom= 1.00D+00 WtEn= 0.00D+00
 Coeff-Com:  0.340D-04-0.726D-04-0.507D-04 0.274D-04 0.554D-03 0.144D-02
 Coeff-Com:  0.612D-02-0.540D-02-0.407D-01-0.900D-01 0.173D+00 0.955D+00
 Coeff:      0.340D-04-0.726D-04-0.507D-04 0.274D-04 0.554D-03 0.144D-02
 Coeff:      0.612D-02-0.540D-02-0.407D-01-0.900D-01 0.173D+00 0.955D+00
 Gap=     0.210 Goal=   None    Shift=    0.000
 RMSDP=4.87D-08 MaxDP=3.28D-06 DE=-4.27D-09 OVMax= 2.98D-05

 Cycle  13  Pass 1  IDiag  1:
 RMSU=  2.91D-08    CP:  8.65D-01  1.83D+00  6.74D-01  9.33D-01  1.04D+00
                    CP:  9.05D-01  1.41D+00  1.33D+00  1.42D+00  1.22D+00
                    CP:  1.36D+00  1.26D+00
 E= -944.190220613574     Delta-E=       -0.000000000873 Rises=F Damp=F
 DIIS: error= 4.09D-07 at cycle  13 NSaved=  13.
 NSaved=13 IEnMin=13 EnMin= -944.190220613574     IErMin=13 ErrMin= 4.09D-07
 ErrMax= 4.09D-07  0.00D+00 EMaxC= 1.00D-01 BMatC= 4.99D-11 BMatP= 1.92D-10
 IDIUse=1 WtCom= 1.00D+00 WtEn= 0.00D+00
 Coeff-Com:  0.225D-05-0.455D-05-0.103D-04-0.462D-04-0.256D-03 0.478D-04
 Coeff-Com:  0.347D-02 0.375D-02-0.103D-01-0.700D-01-0.788D-01 0.337D+00
 Coeff-Com:  0.815D+00
 Coeff:      0.225D-05-0.455D-05-0.103D-04-0.462D-04-0.256D-03 0.478D-04
 Coeff:      0.347D-02 0.375D-02-0.103D-01-0.700D-01-0.788D-01 0.337D+00
 Coeff:      0.815D+00
 Gap=     0.210 Goal=   None    Shift=    0.000
 RMSDP=2.14D-08 MaxDP=9.89D-07 DE=-8.73D-10 OVMax= 1.17D-05

 Cycle  14  Pass 1  IDiag  1:
 RMSU=  1.00D-08    CP:  8.65D-01  1.83D+00  6.74D-01  9.33D-01  1.04D+00
                    CP:  9.05D-01  1.41D+00  1.33D+00  1.43D+00  1.23D+00
                    CP:  1.43D+00  1.39D+00  1.28D+00
 E= -944.190220613684     Delta-E=       -0.000000000109 Rises=F Damp=F
 DIIS: error= 1.53D-07 at cycle  14 NSaved=  14.
 NSaved=14 IEnMin=14 EnMin= -944.190220613684     IErMin=14 ErrMin= 1.53D-07
 ErrMax= 1.53D-07  0.00D+00 EMaxC= 1.00D-01 BMatC= 5.36D-12 BMatP= 4.99D-11
 IDIUse=1 WtCom= 1.00D+00 WtEn= 0.00D+00
 Coeff-Com: -0.390D-05 0.835D-05 0.522D-05-0.280D-04-0.154D-03-0.257D-03
 Coeff-Com: -0.470D-04 0.213D-02 0.524D-02-0.482D-02-0.529D-01-0.536D-01
 Coeff-Com:  0.215D+00 0.889D+00
 Coeff:     -0.390D-05 0.835D-05 0.522D-05-0.280D-04-0.154D-03-0.257D-03
 Coeff:     -0.470D-04 0.213D-02 0.524D-02-0.482D-02-0.529D-01-0.536D-01
 Coeff:      0.215D+00 0.889D+00
 Gap=     0.210 Goal=   None    Shift=    0.000
 RMSDP=8.03D-09 MaxDP=4.41D-07 DE=-1.09D-10 OVMax= 3.59D-06

 Error on total polarization charges =  0.06773
 SCF Done:  E(RCAM-B3LYP) =  -944.190220614     A.U. after   14 cycles
            NFock= 14  Conv=0.80D-08     -V/T= 2.0056
 KE= 9.389620188445D+02 PE=-6.141726779215D+03 EE= 2.271527958045D+03
 SMD-CDS (non-electrostatic) energy       (kcal/mol) =      -4.67
 (included in total energy above)
 Leave Link  502 at Fri Feb 25 09:39:31 2022, MaxMem=  5242880000 cpu:     18238.0
 (Enter /opt/nce/packages/global/g09/l601.exe)
 Copying SCF densities to generalized density rwf, IOpCl= 0 IROHF=0.

 **********************************************************************

            Population analysis using the SCF density.

 **********************************************************************

 Alpha  occ. eigenvalues --  -14.49172 -10.33766 -10.33763 -10.31672 -10.29233
 Alpha  occ. eigenvalues --  -10.29232 -10.28842 -10.27785 -10.27785 -10.27343
 Alpha  occ. eigenvalues --  -10.27342 -10.27048 -10.27048 -10.26610 -10.26598
 Alpha  occ. eigenvalues --  -10.26550 -10.26549 -10.26261 -10.26002 -10.24272
 Alpha  occ. eigenvalues --  -10.24249 -10.23777 -10.23773 -10.23533  -1.10640
 Alpha  occ. eigenvalues --   -0.98135  -0.96903  -0.94936  -0.91512  -0.87115
 Alpha  occ. eigenvalues --   -0.86791  -0.86761  -0.85280  -0.84044  -0.81429
 Alpha  occ. eigenvalues --   -0.77952  -0.77424  -0.75780  -0.74836  -0.74183
 Alpha  occ. eigenvalues --   -0.69267  -0.69035  -0.65277  -0.65193  -0.65055
 Alpha  occ. eigenvalues --   -0.63447  -0.60751  -0.57111  -0.57053  -0.57003
 Alpha  occ. eigenvalues --   -0.55781  -0.55510  -0.55192  -0.53401  -0.51989
 Alpha  occ. eigenvalues --   -0.51682  -0.51285  -0.49747  -0.49403  -0.48667
 Alpha  occ. eigenvalues --   -0.48154  -0.47570  -0.47457  -0.47050  -0.46862
 Alpha  occ. eigenvalues --   -0.46362  -0.46215  -0.45794  -0.45458  -0.43515
 Alpha  occ. eigenvalues --   -0.43015  -0.42806  -0.42576  -0.41429  -0.40452
 Alpha  occ. eigenvalues --   -0.40279  -0.39667  -0.38040  -0.34113  -0.32265
 Alpha  occ. eigenvalues --   -0.29988  -0.29672  -0.29196
 Alpha virt. eigenvalues --   -0.08159  -0.00774   0.01776   0.02476   0.03464
 Alpha virt. eigenvalues --    0.03617   0.07154   0.07623   0.08719   0.08973
 Alpha virt. eigenvalues --    0.10049   0.10149   0.10494   0.11857   0.12117
 Alpha virt. eigenvalues --    0.12466   0.12977   0.13142   0.13771   0.15077
 Alpha virt. eigenvalues --    0.15210   0.15358   0.16022   0.16344   0.16598
 Alpha virt. eigenvalues --    0.17044   0.17131   0.17151   0.17968   0.18553
 Alpha virt. eigenvalues --    0.18634   0.18942   0.19356   0.19652   0.20011
 Alpha virt. eigenvalues --    0.21429   0.21666   0.21928   0.22416   0.22890
 Alpha virt. eigenvalues --    0.23544   0.23770   0.24047   0.24423   0.24814
 Alpha virt. eigenvalues --    0.25089   0.25665   0.26561   0.26760   0.26877
 Alpha virt. eigenvalues --    0.27110   0.27648   0.27734   0.27995   0.29179
 Alpha virt. eigenvalues --    0.29374   0.29534   0.30269   0.31621   0.31734
 Alpha virt. eigenvalues --    0.31919   0.32246   0.32496   0.32824   0.33092
 Alpha virt. eigenvalues --    0.33677   0.33838   0.34484   0.34730   0.35014
 Alpha virt. eigenvalues --    0.35490   0.36139   0.36440   0.36912   0.37701
 Alpha virt. eigenvalues --    0.37815   0.38150   0.38697   0.39128   0.39819
 Alpha virt. eigenvalues --    0.40077   0.40351   0.40839   0.41243   0.41464
 Alpha virt. eigenvalues --    0.42302   0.42390   0.42881   0.43016   0.43980
 Alpha virt. eigenvalues --    0.44028   0.44453   0.44753   0.44916   0.45121
 Alpha virt. eigenvalues --    0.45793   0.46217   0.46317   0.46517   0.46928
 Alpha virt. eigenvalues --    0.47266   0.47827   0.48066   0.48628   0.48881
 Alpha virt. eigenvalues --    0.49693   0.49791   0.50021   0.50123   0.50872
 Alpha virt. eigenvalues --    0.50980   0.51411   0.51952   0.52027   0.52616
 Alpha virt. eigenvalues --    0.53021   0.53443   0.53842   0.54069   0.54326
 Alpha virt. eigenvalues --    0.54751   0.55451   0.55598   0.55725   0.56072
 Alpha virt. eigenvalues --    0.56442   0.57284   0.57866   0.58197   0.58728
 Alpha virt. eigenvalues --    0.59381   0.59528   0.60413   0.61073   0.61341
 Alpha virt. eigenvalues --    0.61512   0.62619   0.62888   0.63627   0.64252
 Alpha virt. eigenvalues --    0.64721   0.65147   0.65597   0.66003   0.67816
 Alpha virt. eigenvalues --    0.68173   0.68634   0.68947   0.70342   0.70451
 Alpha virt. eigenvalues --    0.70536   0.71230   0.71747   0.72225   0.72469
 Alpha virt. eigenvalues --    0.73546   0.74090   0.74407   0.74582   0.75281
 Alpha virt. eigenvalues --    0.76190   0.76949   0.77204   0.77403   0.77706
 Alpha virt. eigenvalues --    0.78497   0.78615   0.79737   0.80030   0.80630
 Alpha virt. eigenvalues --    0.80945   0.81254   0.81318   0.81840   0.82208
 Alpha virt. eigenvalues --    0.83017   0.83128   0.84056   0.84946   0.85226
 Alpha virt. eigenvalues --    0.86644   0.86802   0.88274   0.88515   0.88728
 Alpha virt. eigenvalues --    0.89583   0.90304   0.90666   0.91079   0.91292
 Alpha virt. eigenvalues --    0.92106   0.92576   0.93337   0.93653   0.93995
 Alpha virt. eigenvalues --    0.95216   0.95858   0.96672   0.97068   0.98142
 Alpha virt. eigenvalues --    0.98314   0.98731   0.99699   1.00117   1.01892
 Alpha virt. eigenvalues --    1.02788   1.03218   1.03746   1.04174   1.04429
 Alpha virt. eigenvalues --    1.05740   1.07777   1.08000   1.08822   1.09194
 Alpha virt. eigenvalues --    1.09835   1.10249   1.12325   1.12746   1.13310
 Alpha virt. eigenvalues --    1.13745   1.13903   1.14941   1.15080   1.15702
 Alpha virt. eigenvalues --    1.16235   1.17381   1.17550   1.18434   1.19098
 Alpha virt. eigenvalues --    1.19732   1.20365   1.20410   1.21065   1.21525
 Alpha virt. eigenvalues --    1.21989   1.22275   1.23252   1.25078   1.26325
 Alpha virt. eigenvalues --    1.26780   1.27473   1.27813   1.28180   1.29092
 Alpha virt. eigenvalues --    1.30466   1.30709   1.30973   1.32029   1.32285
 Alpha virt. eigenvalues --    1.33311   1.33638   1.34263   1.34787   1.35825
 Alpha virt. eigenvalues --    1.36313   1.36823   1.37583   1.38231   1.38803
 Alpha virt. eigenvalues --    1.41386   1.41721   1.42061   1.43288   1.44290
 Alpha virt. eigenvalues --    1.45636   1.46042   1.46126   1.48025   1.48341
 Alpha virt. eigenvalues --    1.48485   1.49647   1.49987   1.51584   1.52357
 Alpha virt. eigenvalues --    1.52673   1.53056   1.53375   1.54970   1.55175
 Alpha virt. eigenvalues --    1.55697   1.55871   1.56953   1.57043   1.57935
 Alpha virt. eigenvalues --    1.58504   1.58764   1.59188   1.59668   1.59849
 Alpha virt. eigenvalues --    1.60329   1.60907   1.61717   1.62166   1.62853
 Alpha virt. eigenvalues --    1.63194   1.63365   1.63620   1.64248   1.65418
 Alpha virt. eigenvalues --    1.66127   1.66231   1.67077   1.67372   1.68184
 Alpha virt. eigenvalues --    1.68356   1.68494   1.69118   1.69341   1.69945
 Alpha virt. eigenvalues --    1.70892   1.71896   1.72178   1.72506   1.73159
 Alpha virt. eigenvalues --    1.73410   1.75006   1.75146   1.75425   1.75711
 Alpha virt. eigenvalues --    1.76491   1.77383   1.77565   1.77904   1.79196
 Alpha virt. eigenvalues --    1.79527   1.79990   1.80682   1.81387   1.82513
 Alpha virt. eigenvalues --    1.83053   1.83728   1.84321   1.84447   1.87254
 Alpha virt. eigenvalues --    1.88168   1.88823   1.89168   1.90754   1.91479
 Alpha virt. eigenvalues --    1.92177   1.92447   1.93359   1.94289   1.95214
 Alpha virt. eigenvalues --    1.96269   1.96715   1.99671   2.01340   2.03046
 Alpha virt. eigenvalues --    2.03140   2.03766   2.03934   2.04122   2.04847
 Alpha virt. eigenvalues --    2.05571   2.06484   2.06977   2.07641   2.08380
 Alpha virt. eigenvalues --    2.08786   2.09634   2.10020   2.11518   2.11738
 Alpha virt. eigenvalues --    2.13059   2.14755   2.16464   2.16602   2.16861
 Alpha virt. eigenvalues --    2.17016   2.17758   2.19031   2.20127   2.20690
 Alpha virt. eigenvalues --    2.20929   2.21838   2.22662   2.22749   2.24138
 Alpha virt. eigenvalues --    2.24247   2.24604   2.26403   2.27109   2.27424
 Alpha virt. eigenvalues --    2.28114   2.29364   2.29548   2.30092   2.30577
 Alpha virt. eigenvalues --    2.32619   2.32835   2.33049   2.34067   2.36071
 Alpha virt. eigenvalues --    2.37456   2.37662   2.37952   2.39438   2.40648
 Alpha virt. eigenvalues --    2.41963   2.42469   2.42990   2.43540   2.45386
 Alpha virt. eigenvalues --    2.45420   2.46717   2.46896   2.47512   2.49107
[...]
    41  H   -0.000001   0.000004   0.000492   0.000066   0.000002   0.000000
    42  H    0.000000   0.000000  -0.000031  -0.000002  -0.000000  -0.000000
    43  C    0.000000   0.000000  -0.000013   0.000000   0.000000   0.000000
    44  H   -0.000000   0.000000   0.000002  -0.000000   0.000000   0.000000
    45  H    0.000000  -0.000000  -0.000001   0.000000  -0.000000  -0.000000
    46  H    0.000000   0.000000  -0.000007   0.000000  -0.000000  -0.000000
              25         26         27         28         29         30
     1  C   -0.000288   0.003827   0.000039   0.000030  -0.000062  -0.000006
     2  C    0.004240  -0.008529  -0.003535  -0.000141   0.000161   0.000018
     3  C   -0.004419  -0.016153   0.032757   0.001952   0.003731  -0.000152
     4  C   -0.002567   0.000114  -0.217204   0.008885   0.011050  -0.000278
     5  C   -0.000142   0.000443  -0.053430  -0.001104  -0.002635   0.000722
     6  C    0.000079  -0.000577  -0.007107   0.000544   0.000227  -0.000044
     7  C    0.000666  -0.000327  -0.198304  -0.156975  -0.155627   0.021197
     8  C   -0.002568   0.000984  -0.216592   0.007405   0.008702  -0.000130
     9  C   -0.004399   0.013022   0.032613   0.001611   0.003382  -0.000181
    10  C    0.004231   0.000890  -0.003499  -0.000113   0.000189   0.000020
    11  H   -0.000547   0.000962   0.000026  -0.000004  -0.000001   0.000000
    12  C   -0.000288  -0.000085   0.000027   0.000008  -0.000078  -0.000007
    13  C    0.000079   0.000011  -0.007151   0.000700   0.000344  -0.000028
    14  C   -0.000142  -0.000021  -0.053812  -0.000619  -0.002020   0.000727
    15  H   -0.000007   0.000052  -0.000005   0.000000  -0.000000  -0.000000
    16  H   -0.000548  -0.008384   0.000025  -0.000004  -0.000002   0.000000
    17  H   -0.000000   0.000001  -0.002150   0.000172   0.000637   0.000723
    18  H    0.000000  -0.000001   0.000174   0.000001  -0.000001   0.000004
    19  H   -0.000007  -0.000001  -0.000005   0.000000  -0.000000  -0.000000
    20  H    0.000000  -0.000000   0.000177   0.000001  -0.000001   0.000004
    21  H   -0.000000  -0.000000  -0.002954   0.000084   0.000507   0.000886
    22  N   -0.034234  -0.021117  -0.003209   0.000205   0.000144  -0.000004
    23  C    0.420547   0.406296   0.000353  -0.000000   0.000001  -0.000000
    24  H   -0.022726  -0.018603   0.000009   0.000001  -0.000003  -0.000000
    25  H    0.470721  -0.022748  -0.000018  -0.000001   0.000001   0.000000
    26  H   -0.022748   0.485279   0.000009   0.000001  -0.000003  -0.000000
    27  C   -0.000018   0.000009   6.830496   0.146583   0.134582  -0.011681
    28  C   -0.000001   0.000001   0.146583   5.438236   0.107779   0.401254
    29  C    0.000001  -0.000003   0.134582   0.107779   5.425066  -0.089819
    30  C    0.000000  -0.000000  -0.011681   0.401254  -0.089819   5.245029
    31  C   -0.000000   0.000000  -0.000312  -0.091996   0.401042  -0.031130
    32  C   -0.000000   0.000000  -0.131022   0.030363   0.043445   0.423958
    33  H   -0.000000   0.000000   0.021902  -0.054572  -0.006360   0.445691
    34  H    0.000000  -0.000000   0.023822  -0.006942  -0.061945   0.013899
    35  C   -0.000001   0.000003  -0.062647   0.020669   0.224833  -0.003735
    36  H    0.000001  -0.000002  -0.013418   0.001526  -0.039778  -0.000204
    37  H    0.000001  -0.000003  -0.013984   0.001434  -0.039396  -0.000166
    38  H    0.000000   0.000000   0.018959  -0.001548  -0.066190   0.000869
    39  C    0.000000  -0.000000  -0.059210   0.215247   0.019152  -0.060554
    40  H   -0.000002   0.000000  -0.014016  -0.038073   0.001370  -0.002865
    41  H   -0.000001   0.000000  -0.014156  -0.038168   0.001443  -0.002356
    42  H    0.000000  -0.000000   0.017817  -0.068268  -0.001343  -0.004841
    43  C   -0.000000   0.000000  -0.002483   0.014333   0.006755  -0.066352
    44  H   -0.000000  -0.000000  -0.000597  -0.000604  -0.000153  -0.006400
    45  H    0.000000  -0.000000   0.001140   0.001334  -0.000934  -0.002193
    46  H    0.000000  -0.000000   0.000064  -0.000824   0.000395   0.003570
              31         32         33         34         35         36
     1  C    0.000000   0.000001   0.000000   0.000000   0.000150  -0.000016
     2  C    0.000011  -0.000004   0.000000   0.000000  -0.000307   0.000031
     3  C   -0.000309   0.000108  -0.000004  -0.000002   0.003332   0.000194
     4  C   -0.000131   0.001025   0.000017   0.000005  -0.007499  -0.006133
     5  C    0.001056  -0.000442  -0.000006  -0.000004  -0.002669   0.000358
     6  C   -0.000036  -0.000041  -0.000003  -0.000002  -0.000633   0.000081
     7  C    0.025467  -0.014978   0.000258   0.000175  -0.044927  -0.004860
     8  C   -0.000209   0.000928   0.000012  -0.000005  -0.007654   0.001883
     9  C   -0.000341   0.000113  -0.000004  -0.000002   0.003344   0.002089
    10  C    0.000012  -0.000004   0.000000   0.000000  -0.000309  -0.000261
    11  H   -0.000000  -0.000000  -0.000000  -0.000000  -0.000002  -0.000001
    12  C   -0.000001   0.000001   0.000000   0.000000   0.000148   0.000091
    13  C   -0.000023  -0.000038  -0.000003  -0.000001  -0.000629  -0.000002
    14  C    0.001105  -0.000432  -0.000007  -0.000003  -0.002674  -0.000540
    15  H   -0.000000  -0.000000   0.000000   0.000000   0.000000  -0.000000
    16  H   -0.000000  -0.000000  -0.000000  -0.000000  -0.000002   0.000000
    17  H    0.000372   0.000581   0.000006   0.000002   0.000782  -0.000091
    18  H    0.000003  -0.000002   0.000000   0.000000  -0.000004   0.000000
    19  H   -0.000000  -0.000000   0.000000   0.000000   0.000000  -0.000001
    20  H    0.000003  -0.000002   0.000000   0.000000  -0.000004  -0.000002
    21  H    0.000571   0.000661   0.000001  -0.000002   0.000807   0.000581
    22  N   -0.000004   0.000000   0.000000   0.000000  -0.000023   0.000096
    23  C   -0.000000   0.000000  -0.000000  -0.000000   0.000017   0.000005
    24  H    0.000000   0.000000   0.000000  -0.000000   0.000003  -0.000003
    25  H   -0.000000  -0.000000  -0.000000   0.000000  -0.000001   0.000001
    26  H    0.000000   0.000000   0.000000  -0.000000   0.000003  -0.000002
    27  C   -0.000312  -0.131022   0.021902   0.023822  -0.062647  -0.013418
    28  C   -0.091996   0.030363  -0.054572  -0.006942   0.020669   0.001526
    29  C    0.401042   0.043445  -0.006360  -0.061945   0.224833  -0.039778
    30  C   -0.031130   0.423958   0.445691   0.013899  -0.003735  -0.000204
    31  C    5.271347   0.355845   0.014204   0.458841  -0.067203  -0.002360
    32  C    0.355845   5.148561  -0.055457  -0.063935   0.011355  -0.000140
    33  H    0.014204  -0.055457   0.496209  -0.000069   0.000024  -0.000004
    34  H    0.458841  -0.063935  -0.000069   0.498813  -0.010865   0.000033
    35  C   -0.067203   0.011355   0.000024  -0.010865   5.089987   0.429308
    36  H   -0.002360  -0.000140  -0.000004   0.000033   0.429308   0.526431
    37  H   -0.002932   0.000011  -0.000003   0.000035   0.430237  -0.032502
    38  H   -0.005251   0.000063   0.000002   0.004918   0.429056  -0.021092
    39  C   -0.003518   0.011457  -0.010092   0.000018   0.000611   0.000068
    40  H   -0.000162  -0.000027   0.000022  -0.000003   0.000054   0.000008
    41  H   -0.000220  -0.000131   0.000034  -0.000003   0.000059  -0.000021
    42  H    0.000808   0.000589   0.004490   0.000001   0.000002  -0.000000
    43  C   -0.064703   0.256074  -0.007097  -0.004782  -0.000214   0.000014
    44  H   -0.006335  -0.024674   0.000075   0.000182   0.000049   0.000001
    45  H    0.012190  -0.076018   0.002933   0.000160  -0.000009  -0.000000
    46  H   -0.008137  -0.046045   0.000115   0.000519  -0.000018  -0.000002
              37         38         39         40         41         42
     1  C    0.000089  -0.000002  -0.000005   0.000112  -0.000020  -0.000002
     2  C   -0.000258   0.000005   0.000005  -0.000283   0.000005   0.000004
     3  C    0.002015  -0.000113   0.003319   0.002086  -0.000426  -0.000104
     4  C    0.001778  -0.000047  -0.007139   0.003469  -0.006250   0.000142
     5  C   -0.000450   0.000016  -0.004624  -0.001451   0.000454   0.000007
     6  C    0.000001   0.000001  -0.000210   0.000272   0.000086  -0.000011
     7  C   -0.004621  -0.000290  -0.039027  -0.005178  -0.005445  -0.000609
     8  C   -0.006197  -0.000032  -0.007343  -0.006284   0.003589   0.000148
     9  C    0.000170  -0.000111   0.003310  -0.000420   0.002108  -0.000103
    10  C    0.000031   0.000004   0.000001   0.000006  -0.000290   0.000004
    11  H    0.000000   0.000000  -0.000001   0.000000  -0.000004   0.000000
    12  C   -0.000016  -0.000002  -0.000003  -0.000020   0.000118  -0.000002
    13  C    0.000082  -0.000000  -0.000205   0.000087   0.000248  -0.000011
    14  C    0.000369   0.000013  -0.004535   0.000451  -0.001447   0.000002
    15  H   -0.000001   0.000000  -0.000001  -0.000001  -0.000000   0.000000
    16  H   -0.000001   0.000000  -0.000001  -0.000003   0.000000   0.000000
    17  H    0.000557  -0.000039   0.000509   0.000466  -0.000104  -0.000028
    18  H   -0.000002   0.000000   0.000003   0.000004   0.000000   0.000000
    19  H   -0.000000   0.000000  -0.000001  -0.000000  -0.000001   0.000000
    20  H    0.000000   0.000000   0.000003   0.000000   0.000004   0.000000
    21  H   -0.000093  -0.000040   0.000550  -0.000106   0.000492  -0.000031
    22  N    0.000097  -0.000002  -0.000091   0.000066   0.000066  -0.000002
    23  C    0.000005  -0.000000   0.000009   0.000002   0.000002  -0.000000
    24  H   -0.000002   0.000000  -0.000000   0.000000   0.000000  -0.000000
    25  H    0.000001   0.000000   0.000000  -0.000002  -0.000001   0.000000
    26  H   -0.000003   0.000000  -0.000000   0.000000   0.000000  -0.000000
    27  C   -0.013984   0.018959  -0.059210  -0.014016  -0.014156   0.017817
    28  C    0.001434  -0.001548   0.215247  -0.038073  -0.038168  -0.068268
    29  C   -0.039396  -0.066190   0.019152   0.001370   0.001443  -0.001343
    30  C   -0.000166   0.000869  -0.060554  -0.002865  -0.002356  -0.004841
    31  C   -0.002932  -0.005251  -0.003518  -0.000162  -0.000220   0.000808
    32  C    0.000011   0.000063   0.011457  -0.000027  -0.000131   0.000589
    33  H   -0.000003   0.000002  -0.010092   0.000022   0.000034   0.004490
    34  H    0.000035   0.004918   0.000018  -0.000003  -0.000003   0.000001
    35  C    0.430237   0.429056   0.000611   0.000054   0.000059   0.000002
    36  H   -0.032502  -0.021092   0.000068   0.000008  -0.000021  -0.000000
    37  H    0.526152  -0.021145   0.000065  -0.000020   0.000008  -0.000000
    38  H   -0.021145   0.512894   0.000001  -0.000000  -0.000000  -0.000000
    39  C    0.000065   0.000001   5.087483   0.429037   0.428809   0.432024
    40  H   -0.000020  -0.000000   0.429037   0.526395  -0.032313  -0.021345
    41  H    0.000008  -0.000000   0.428809  -0.032313   0.526496  -0.021352
    42  H   -0.000000  -0.000000   0.432024  -0.021345  -0.021352   0.512371
    43  C    0.000009  -0.000137  -0.000750   0.000012   0.000016  -0.000087
    44  H   -0.000002  -0.000001   0.000042  -0.000001  -0.000000  -0.000002
    45  H   -0.000000   0.000002  -0.000196   0.000002   0.000000   0.000025
    46  H    0.000002   0.000005   0.000014  -0.000000  -0.000000   0.000001
              43         44         45         46
     1  C    0.000000   0.000000   0.000000  -0.000000
     2  C   -0.000000  -0.000000   0.000000   0.000000
     3  C    0.000000   0.000000  -0.000000  -0.000000
     4  C   -0.000004   0.000003  -0.000001   0.000001
     5  C    0.000004  -0.000006   0.000001   0.000000
     6  C   -0.000001  -0.000000  -0.000000   0.000000
     7  C    0.000213  -0.000050   0.000022  -0.000024
     8  C   -0.000016   0.000002  -0.000001   0.000001
     9  C    0.000000   0.000000  -0.000000   0.000000
    10  C   -0.000000   0.000000   0.000000  -0.000000
    11  H   -0.000000  -0.000000   0.000000   0.000000
    12  C    0.000000  -0.000000   0.000000   0.000000
    13  C   -0.000001   0.000000  -0.000000  -0.000000
    14  C    0.000013  -0.000000   0.000000  -0.000003
    15  H    0.000000   0.000000  -0.000000  -0.000000
    16  H   -0.000000   0.000000   0.000000  -0.000000
    17  H   -0.000004  -0.000009   0.000000   0.000002
    18  H    0.000000   0.000000  -0.000000  -0.000000
    19  H    0.000000  -0.000000   0.000000   0.000000
    20  H    0.000000   0.000000  -0.000000   0.000000
    21  H   -0.000013   0.000002  -0.000001  -0.000007
    22  N    0.000000  -0.000000   0.000000   0.000000
    23  C    0.000000   0.000000  -0.000000  -0.000000
    24  H    0.000000   0.000000  -0.000000  -0.000000
    25  H   -0.000000  -0.000000   0.000000   0.000000
    26  H    0.000000  -0.000000  -0.000000  -0.000000
    27  C   -0.002483  -0.000597   0.001140   0.000064
    28  C    0.014333  -0.000604   0.001334  -0.000824
    29  C    0.006755  -0.000153  -0.000934   0.000395
    30  C   -0.066352  -0.006400  -0.002193   0.003570
    31  C   -0.064703  -0.006335   0.012190  -0.008137
    32  C    0.256074  -0.024674  -0.076018  -0.046045
    33  H   -0.007097   0.000075   0.002933   0.000115
    34  H   -0.004782   0.000182   0.000160   0.000519
    35  C   -0.000214   0.000049  -0.000009  -0.000018
    36  H    0.000014   0.000001  -0.000000  -0.000002
    37  H    0.000009  -0.000002  -0.000000   0.000002
    38  H   -0.000137  -0.000001   0.000002   0.000005
    39  C   -0.000750   0.000042  -0.000196   0.000014
    40  H    0.000012  -0.000001   0.000002  -0.000000
    41  H    0.000016  -0.000000   0.000000  -0.000000
    42  H   -0.000087  -0.000002   0.000025   0.000001
    43  C    5.024063   0.402867   0.442716   0.422294
    44  H    0.402867   0.537236  -0.021438  -0.029651
    45  H    0.442716  -0.021438   0.519344  -0.024197
    46  H    0.422294  -0.029651  -0.024197   0.534195
 Mulliken charges:
               1
     1  C   -0.122804
     2  C   -0.227760
     3  C    0.128930
     4  C    0.137208
     5  C   -0.225278
     6  C   -0.151123
     7  C    0.234989
     8  C    0.137944
     9  C    0.128427
    10  C   -0.227539
    11  H    0.190292
    12  C   -0.123034
    13  C   -0.150929
    14  C   -0.226177
    15  H    0.182911
    16  H    0.190342
    17  H    0.194741
    18  H    0.177583
    19  H    0.182900
    20  H    0.177578
    21  H    0.195111
    22  N    0.037984
    23  C   -0.344783
    24  H    0.184641
    25  H    0.195090
    26  H    0.184662
    27  C   -0.169072
    28  C    0.059598
    29  C    0.071414
    30  C   -0.275444
    31  C   -0.257564
    32  C    0.128253
    33  H    0.147685
    34  H    0.147140
    35  C   -0.432803
    36  H    0.158636
    37  H    0.158650
    38  H    0.149236
    39  C   -0.434235
    40  H    0.158652
    41  H    0.158667
    42  H    0.149702
    43  C   -0.422737
    44  H    0.149464
    45  H    0.145119
    46  H    0.147732
 Sum of Mulliken charges =   1.00000
 Mulliken charges with hydrogens summed into heavy atoms:
               1
     1  C    0.060107
     2  C   -0.037418
     3  C    0.128930
     4  C    0.137208
     5  C   -0.030537
     6  C    0.026459
     7  C    0.234989
     8  C    0.137944
     9  C    0.128427
    10  C   -0.037247
    12  C    0.059866
    13  C    0.026649
    14  C   -0.031066
    22  N    0.037984
    23  C    0.219610
    27  C   -0.169072
    28  C    0.059598
    29  C    0.071414
    30  C   -0.127759
    31  C   -0.110425
    32  C    0.128253
    35  C    0.033719
    39  C    0.032787
    43  C    0.019579
 Electronic spatial extent (au):  <R**2>=           7311.9252
 Charge=              1.0000 electrons
 Dipole moment (field-independent basis, Debye):
    X=              8.8932    Y=              0.0331    Z=              0.1142  Tot=              8.8940
 Quadrupole moment (field-independent basis, Debye-Ang):
   XX=            -80.9790   YY=           -105.5422   ZZ=           -136.3118
   XY=             -0.1203   XZ=              0.8340   YZ=              0.0022
 Traceless Quadrupole moment (field-independent basis, Debye-Ang):
   XX=             26.6320   YY=              2.0688   ZZ=            -28.7008
   XY=             -0.1203   XZ=              0.8340   YZ=              0.0022
 Octapole moment (field-independent basis, Debye-Ang**2):
  XXX=            144.3617  YYY=              0.5903  ZZZ=              1.8162  XYY=             75.1275
  XXY=              0.6860  XXZ=              6.7158  XZZ=            -19.2006  YZZ=             -0.3674
  YYZ=             -6.5399  XYZ=              0.0508
 Hexadecapole moment (field-independent basis, Debye-Ang**3):
 XXXX=          -4836.3961 YYYY=          -2366.6962 ZZZZ=           -971.8801 XXXY=             -2.8985
 XXXZ=             19.0298 YYYX=             -2.6234 YYYZ=              0.3580 ZZZX=              5.5874
 ZZZY=             -0.2165 XXYY=          -1326.5556 XXZZ=          -1116.4660 YYZZ=           -744.4464
 XXYZ=             -0.0480 YYXZ=            -13.6520 ZZXY=              2.2075
 N-N= 2.001613346785D+03 E-N=-6.171521341280D+03  KE= 9.399445471586D+02
 Leave Link  601 at Fri Feb 25 23:11:58 2022, MaxMem=  5242880000 cpu:         4.5
 (Enter /opt/nce/packages/global/g09/l9999.exe)
 1\1\GINC-CN082\SP\RCAM-B3LYP TD-FC\Gen\C23H22N1(1+)\PNG4RJV\25-Feb-202
 2\0\\#p cam-b3lyp chkbasis geom=allcheck Guess=Read int=ultrafine scrf
 =(SMD,solvent=Acetonitrile) td=(NStates=30) EmpiricalDispersion=GD3BJ\
 \Title\\1,1\C,0,2.2301189893,3.5900080882,-0.1141626769\C,0,2.91966391
 79,2.416862508,-0.0536189355\C,0,2.2243261894,1.1897290936,0.016253834
 9\C,0,0.8045211357,1.2051796758,-0.0091502998\C,0,0.1302023105,2.45460
 57845,-0.0552174067\C,0,0.8212263473,3.6197810937,-0.1021848897\C,0,0.
 0974254235,-0.0001084144,0.002864916\C,0,0.8064154969,-1.204249461,-0.
 0125212686\C,0,2.2261969469,-1.1867055587,0.0133711567\C,0,2.923377358
 9,-2.4126532328,-0.058917359\H,0,3.9990497515,-2.4353139394,-0.0943474
 948\C,0,2.2355988487,-3.5866665987,-0.1225435517\C,0,0.8267443657,-3.6
 185736938,-0.1115385285\C,0,0.1339697794,-2.4545504601,-0.0621181799\H
 ,0,2.7814223863,4.5185855791,-0.1795836865\H,0,3.9952856581,2.44114946
 23,-0.0895885057\H,0,-0.9495973865,2.4531579982,-0.0609504155\H,0,0.30
 16944981,4.5668447595,-0.1426650094\H,0,2.7883174133,-4.5142752261,-0.
 1897549278\H,0,0.3086612909,-4.5663134063,-0.1546575643\H,0,-0.9458352
 699,-2.454700843,-0.0684203138\N,0,2.8871655337,0.0019367685,0.0939794
 782\C,0,4.3449680162,0.0029839042,0.2614218065\H,0,4.6430747938,-0.869
 3533492,0.8279688941\H,0,4.8396057963,0.0049081482,-0.7085580061\H,0,4
 .6414497778,0.8741483914,0.8306409925\C,0,-1.3885177338,-0.0012055368,
 0.011861778\C,0,-2.0872016361,-0.0002070896,-1.1947018625\C,0,-2.06575
 7615,-0.0056182655,1.2342046619\C,0,-3.4758835248,-0.0028363308,-1.158
 2314336\C,0,-3.4516378643,-0.0081753679,1.2245169784\C,0,-4.1750711484
 ,-0.0054640645,0.038630204\H,0,-4.0223432606,-0.0038531572,-2.09388169
 17\H,0,-3.9803046962,-0.0133484828,2.170766228\C,0,-1.3159613518,-0.00
 93844912,2.534056749\H,0,-0.6743831575,-0.8884391528,2.6197867033\H,0,
 -0.6730060817,0.8682207672,2.6240589689\H,0,-2.0062732064,-0.010894041
 5,3.3754982345\C,0,-1.3652663172,0.0018529525,-2.5100812715\H,0,-0.725
 392053,0.8805913726,-2.6105276506\H,0,-0.7245594939,-0.8760048509,-2.6
 129632878\H,0,-2.0731714476,0.0026922217,-3.3367639582\C,0,-5.67466114
 91,0.0081417792,0.0606431689\H,0,-6.0486505097,0.967908609,0.423866376
 5\H,0,-6.0855111955,-0.1567216637,-0.9346068406\H,0,-6.0654339275,-0.7
 626792784,0.7264748861\\Version=ES64L-G09RevE.01\State=1-A\HF=-944.194
 8022\RMSD=7.695e-09\PG=C01 [X(C23H22N1)]\\@


 THE CAUTIOUS SELDOM ERR...CONFUCIUS                   
 Job cpu time:       1 days 13 hours 30 minutes 43.7 seconds.
 File lengths (MBytes):  RWF=   3789 Int=      0 D2E=      0 Chk=    685 Scr=      1
 Normal termination of Gaussian 09 at Fri Feb 25 23:11:59 2022.
