 Entering Gaussian System, Link 0=g09
 Input=/home/png4rjv/fotokatalizis/benchmark/OPCs/RESTART_Mes-Acr/Mes-Acr_1_B3LYP-D3_def2TZVP.gjf
 Output=/home/png4rjv/fotokatalizis/benchmark/OPCs/RESTART_Mes-Acr/Mes-Acr_1_B3LYP-D3_def2TZVP.log
 Initial command:
 /opt/nce/packages/global/g09/l1.exe "/home/png4rjv/fotokatalizis/benchmark/OPCs/RESTART_Mes-Acr/Mes-Acr_1_B3LYP-D3_def2TZVP/Gau-33549.inp" -scrdir="/home/png4rjv/fotokatalizis/benchmark/OPCs/RESTART_Mes-Acr/Mes-Acr_1_B3LYP-D3_def2TZVP/"
 Default is to use a total of  12 processors:
                               12 via shared-memory
                                1 via Linda
 Entering Link 1 = /opt/nce/packages/global/g09/l1.exe PID=     33550.
  
 Copyright (c) 1988,1990,1992,1993,1995,1998,2003,2009,2015,
            Gaussian, Inc.  All Rights Reserved.
  
 This is part of the Gaussian(R) 09 program.  It is based on
 the Gaussian(R) 03 system (copyright 2003, Gaussian, Inc.),
 the Gaussian(R) 98 system (copyright 1998, Gaussian, Inc.),
 the Gaussian(R) 94 system (copyright 1995, Gaussian, Inc.),
 the Gaussian 92(TM) system (copyright 1992, Gaussian, Inc.),
 the Gaussian 90(TM) system (copyright 1990, Gaussian, Inc.),
 the Gaussian 88(TM) system (copyright 1988, Gaussian, Inc.),
 the Gaussian 86(TM) system (copyright 1986, Carnegie Mellon
 University), and the Gaussian 82(TM) system (copyright 1983,
 Carnegie Mellon University). Gaussian is a federally registered
 trademark of Gaussian, Inc.
  
 This software contains proprietary and confidential information,
 including trade secrets, belonging to Gaussian, Inc.
  
 This software is provided under written license and may be
 used, copied, transmitted, or stored only in accord with that
 written license.
  
 The following legend is applicable only to US Government
 contracts under FAR:
  
                    RESTRICTED RIGHTS LEGEND
  
 Use, reproduction and disclosure by the US Government is
 subject to restrictions as set forth in subparagraphs (a)
 and (c) of the Commercial Computer Software - Restricted
 Rights clause in FAR 52.227-19.
  
 Gaussian, Inc.
 340 Quinnipiac St., Bldg. 40, Wallingford CT 06492
  
  
 ---------------------------------------------------------------
 Warning -- This program may not be used in any manner that
 competes with the business of Gaussian, Inc. or will provide
 assistance to any competitor of Gaussian, Inc.  The licensee
 of this program is prohibited from giving any competitor of
 Gaussian, Inc. access to this program.  By using this program,
 the user acknowledges that Gaussian, Inc. is engaged in the
 business of creating and licensing software in the field of
 computational chemistry and represents and warrants to the
 licensee that it is not a competitor of Gaussian, Inc. and that
 it will not use this program in any manner prohibited above.
 ---------------------------------------------------------------
  

 Cite this work as:
 Gaussian 09, Revision E.01,
 M. J. Frisch, G. W. Trucks, H. B. Schlegel, G. E. Scuseria, 
 M. A. Robb, J. R. Cheeseman, G. Scalmani, V. Barone, B. Mennucci, 
 G. A. Petersson, H. Nakatsuji, M. Caricato, X. Li, H. P. Hratchian, 
 A. F. Izmaylov, J. Bloino, G. Zheng, J. L. Sonnenberg, M. Hada, 
 M. Ehara, K. Toyota, R. Fukuda, J. Hasegawa, M. Ishida, T. Nakajima, 
 Y. Honda, O. Kitao, H. Nakai, T. Vreven, J. A. Montgomery, Jr., 
 J. E. Peralta, F. Ogliaro, M. Bearpark, J. J. Heyd, E. Brothers, 
 K. N. Kudin, V. N. Staroverov, T. Keith, R. Kobayashi, J. Normand, 
 K. Raghavachari, A. Rendell, J. C. Burant, S. S. Iyengar, J. Tomasi, 
 M. Cossi, N. Rega, J. M. Millam, M. Klene, J. E. Knox, J. B. Cross, 
 V. Bakken, C. Adamo, J. Jaramillo, R. Gomperts, R. E. Stratmann, 
 O. Yazyev, A. J. Austin, R. Cammi, C. Pomelli, J. W. Ochterski, 
 R. L. Martin, K. Morokuma, V. G. Zakrzewski, G. A. Voth, 
 P. Salvador, J. J. Dannenberg, S. Dapprich, A. D. Daniels, 
 O. Farkas, J. B. Foresman, J. V. Ortiz, J. Cioslowski, 
 and D. J. Fox, Gaussian, Inc., Wallingford CT, 2013.
 
 ******************************************
 Gaussian 09:  ES64L-G09RevE.01 30-Nov-2015
                25-Feb-2022 
 ******************************************
 %chk=cp.chk
 Default route:  MaxDisk=500GB
 ----------------------------------------------------------------------
 #p b3lyp/def2TZVP opt=tight freq=noraman Symmetry=None int=ultrafine s
 crf=(SMD,solvent=Acetonitrile) EmpiricalDispersion=GD3BJ
 ----------------------------------------------------------------------
 1/7=10,14=-1,18=20,19=15,26=4,38=1/1,3;
 2/9=110,12=2,15=3,17=6,18=5,40=1/2;
 3/5=44,7=101,11=2,16=1,25=1,30=1,70=32201,71=1,72=2,74=-5,75=-5,124=41/1,2,3;
 4//1;
 5/5=2,38=5,53=2/2;
 6/7=2,8=2,9=2,10=2,28=1/1;
 7/30=1/1,2,3,16;
 1/7=10,14=-1,18=20,19=15,26=4/3(2);
 2/9=110,15=3/2;
 99//99;
 2/9=110,15=3/2;
 3/5=44,7=101,11=2,16=1,25=1,30=1,70=32205,71=1,72=2,74=-5,75=-5,124=41/1,2,3;
 4/5=5,16=3,69=1/1;
 5/5=2,38=5,53=2/2;
 7/30=1/1,2,3,16;
 1/7=10,14=-1,18=20,19=15,26=4/3(-5);
 2/9=110,15=3/2;
 6/7=2,8=2,9=2,10=2,19=2,28=1/1;
 99/9=1/99;
 Leave Link    1 at Fri Feb 25 04:58:04 2022, MaxMem=           0 cpu:         2.2
 (Enter /opt/nce/packages/global/g09/l101.exe)
 -----
 Title
 -----
 Symbolic Z-matrix:
 Charge =  1 Multiplicity = 1
 C                     2.24457   3.62047  -0.11512 
 C                     2.94237   2.43207  -0.05404 
 C                     2.24459   1.20167   0.01544 
 C                     0.80762   1.21485  -0.00996 
 C                     0.13092   2.46762  -0.05599 
 C                     0.83029   3.64797  -0.10297 
 C                     0.09257   0.00003   0.00318 
 C                     0.80955  -1.21363  -0.01282 
 C                     2.2465   -1.19837   0.01357 
 C                     2.94607  -2.42771  -0.05673 
 H                     4.03183  -2.45065  -0.09152 
 C                     2.25002  -3.61699  -0.12029 
 C                     0.83577  -3.64653  -0.11011 
 C                     0.13469  -2.46726  -0.06197 
 H                     2.80191   4.55616  -0.18081 
 H                     4.02806   2.4565   -0.0901 
 H                    -0.95892   2.46108  -0.06288 
 H                     0.30374   4.60188  -0.14343 
 H                     2.80877  -4.5518   -0.18655 
 H                     0.31065  -4.60113  -0.15288 
 H                    -0.95516  -2.46228  -0.07008 
 N                     2.91328   0.00212   0.0951 
 C                     4.37511   0.00333   0.25992 
 H                     4.67625  -0.87838   0.82946 
 H                     4.87225   0.00506  -0.71947 
 H                     4.67447   0.88417   0.83178 
 C                    -1.39476  -0.00105   0.01279 
 C                    -2.10082   0.00085  -1.20648 
 C                    -2.07944  -0.00675   1.2469 
 C                    -3.50114  -0.00199  -1.16752 
 C                    -3.47771  -0.00928   1.23486 
 C                    -4.20878  -0.00548   0.03928 
 H                    -4.05161  -0.00253  -2.11224 
 H                    -4.00936  -0.01549   2.19055 
 C                    -1.32495  -0.01222   2.54817 
 H                    -0.67564  -0.89799   2.63183 
 H                    -0.67242   0.8706    2.63748 
 H                    -2.0171   -0.01373   3.40008 
 C                    -1.37353   0.00356  -2.523 
 H                    -0.72528   0.88857  -2.62169 
 H                    -0.72384  -0.88005  -2.62473 
 H                    -2.08314   0.00448  -3.36041 
 C                    -5.71266   0.00811   0.05906 
 H                    -6.09244   0.97473   0.42748 
 H                    -6.12688  -0.15565  -0.94497 
 H                    -6.11017  -0.76791   0.73045 
 
 NAtoms=     46 NQM=       46 NQMF=       0 NMMI=      0 NMMIF=      0
                NMic=       0 NMicF=      0.
                    Isotopes and Nuclear Properties:
 (Nuclear quadrupole moments (NQMom) in fm**2, nuclear magnetic moments (NMagM)
  in nuclear magnetons)

  Atom         1           2           3           4           5           6           7           8           9          10
 IAtWgt=          12          12          12          12          12          12          12          12          12          12
 AtmWgt=  12.0000000  12.0000000  12.0000000  12.0000000  12.0000000  12.0000000  12.0000000  12.0000000  12.0000000  12.0000000
 NucSpn=           0           0           0           0           0           0           0           0           0           0
 AtZEff=   0.0000000   0.0000000   0.0000000   0.0000000   0.0000000   0.0000000   0.0000000   0.0000000   0.0000000   0.0000000
 NQMom=    0.0000000   0.0000000   0.0000000   0.0000000   0.0000000   0.0000000   0.0000000   0.0000000   0.0000000   0.0000000
 NMagM=    0.0000000   0.0000000   0.0000000   0.0000000   0.0000000   0.0000000   0.0000000   0.0000000   0.0000000   0.0000000
 AtZNuc=   6.0000000   6.0000000   6.0000000   6.0000000   6.0000000   6.0000000   6.0000000   6.0000000   6.0000000   6.0000000

  Atom        11          12          13          14          15          16          17          18          19          20
 IAtWgt=           1          12          12          12           1           1           1           1           1           1
 AtmWgt=   1.0078250  12.0000000  12.0000000  12.0000000   1.0078250   1.0078250   1.0078250   1.0078250   1.0078250   1.0078250
 NucSpn=           1           0           0           0           1           1           1           1           1           1
 AtZEff=   0.0000000   0.0000000   0.0000000   0.0000000   0.0000000   0.0000000   0.0000000   0.0000000   0.0000000   0.0000000
 NQMom=    0.0000000   0.0000000   0.0000000   0.0000000   0.0000000   0.0000000   0.0000000   0.0000000   0.0000000   0.0000000
 NMagM=    2.7928460   0.0000000   0.0000000   0.0000000   2.7928460   2.7928460   2.7928460   2.7928460   2.7928460   2.7928460
 AtZNuc=   1.0000000   6.0000000   6.0000000   6.0000000   1.0000000   1.0000000   1.0000000   1.0000000   1.0000000   1.0000000

  Atom        21          22          23          24          25          26          27          28          29          30
 IAtWgt=           1          14          12           1           1           1          12          12          12          12
 AtmWgt=   1.0078250  14.0030740  12.0000000   1.0078250   1.0078250   1.0078250  12.0000000  12.0000000  12.0000000  12.0000000
 NucSpn=           1           2           0           1           1           1           0           0           0           0
 AtZEff=   0.0000000   0.0000000   0.0000000   0.0000000   0.0000000   0.0000000   0.0000000   0.0000000   0.0000000   0.0000000
 NQMom=    0.0000000   2.0440000   0.0000000   0.0000000   0.0000000   0.0000000   0.0000000   0.0000000   0.0000000   0.0000000
 NMagM=    2.7928460   0.4037610   0.0000000   2.7928460   2.7928460   2.7928460   0.0000000   0.0000000   0.0000000   0.0000000
 AtZNuc=   1.0000000   7.0000000   6.0000000   1.0000000   1.0000000   1.0000000   6.0000000   6.0000000   6.0000000   6.0000000

  Atom        31          32          33          34          35          36          37          38          39          40
 IAtWgt=          12          12           1           1          12           1           1           1          12           1
 AtmWgt=  12.0000000  12.0000000   1.0078250   1.0078250  12.0000000   1.0078250   1.0078250   1.0078250  12.0000000   1.0078250
 NucSpn=           0           0           1           1           0           1           1           1           0           1
 AtZEff=   0.0000000   0.0000000   0.0000000   0.0000000   0.0000000   0.0000000   0.0000000   0.0000000   0.0000000   0.0000000
 NQMom=    0.0000000   0.0000000   0.0000000   0.0000000   0.0000000   0.0000000   0.0000000   0.0000000   0.0000000   0.0000000
 NMagM=    0.0000000   0.0000000   2.7928460   2.7928460   0.0000000   2.7928460   2.7928460   2.7928460   0.0000000   2.7928460
 AtZNuc=   6.0000000   6.0000000   1.0000000   1.0000000   6.0000000   1.0000000   1.0000000   1.0000000   6.0000000   1.0000000

  Atom        41          42          43          44          45          46
 IAtWgt=           1           1          12           1           1           1
 AtmWgt=   1.0078250   1.0078250  12.0000000   1.0078250   1.0078250   1.0078250
 NucSpn=           1           1           0           1           1           1
 AtZEff=   0.0000000   0.0000000   0.0000000   0.0000000   0.0000000   0.0000000
 NQMom=    0.0000000   0.0000000   0.0000000   0.0000000   0.0000000   0.0000000
 NMagM=    2.7928460   2.7928460   0.0000000   2.7928460   2.7928460   2.7928460
 AtZNuc=   1.0000000   1.0000000   6.0000000   1.0000000   1.0000000   1.0000000
 Leave Link  101 at Fri Feb 25 04:58:04 2022, MaxMem=  5242880000 cpu:         4.3
 (Enter /opt/nce/packages/global/g09/l103.exe)

 GradGradGradGradGradGradGradGradGradGradGradGradGradGradGradGradGradGrad
 Berny optimization.
 Initialization pass.
                           ----------------------------
                           !    Initial Parameters    !
                           ! (Angstroms and Degrees)  !
 --------------------------                            --------------------------
 ! Name  Definition              Value          Derivative Info.                !
 --------------------------------------------------------------------------------
 ! R1    R(1,2)                  1.3795         estimate D2E/DX2                !
 ! R2    R(1,6)                  1.4146         estimate D2E/DX2                !
 ! R3    R(1,15)                 1.0911         estimate D2E/DX2                !
 ! R4    R(2,3)                  1.4162         estimate D2E/DX2                !
 ! R5    R(2,16)                 1.0866         estimate D2E/DX2                !
 ! R6    R(3,4)                  1.4373         estimate D2E/DX2                !
 ! R7    R(3,22)                 1.3756         estimate D2E/DX2                !
 ! R8    R(4,5)                  1.4246         estimate D2E/DX2                !
 ! R9    R(4,7)                  1.4097         estimate D2E/DX2                !
 ! R10   R(5,6)                  1.3728         estimate D2E/DX2                !
 ! R11   R(5,17)                 1.0899         estimate D2E/DX2                !
 ! R12   R(6,18)                 1.0903         estimate D2E/DX2                !
 ! R13   R(7,8)                  1.4097         estimate D2E/DX2                !
 ! R14   R(7,27)                 1.4874         estimate D2E/DX2                !
 ! R15   R(8,9)                  1.4373         estimate D2E/DX2                !
 ! R16   R(8,14)                 1.4246         estimate D2E/DX2                !
 ! R17   R(9,10)                 1.4162         estimate D2E/DX2                !
 ! R18   R(9,22)                 1.3757         estimate D2E/DX2                !
 ! R19   R(10,11)                1.0866         estimate D2E/DX2                !
 ! R20   R(10,12)                1.3795         estimate D2E/DX2                !
 ! R21   R(12,13)                1.4146         estimate D2E/DX2                !
 ! R22   R(12,19)                1.0911         estimate D2E/DX2                !
 ! R23   R(13,14)                1.3728         estimate D2E/DX2                !
 ! R24   R(13,20)                1.0903         estimate D2E/DX2                !
 ! R25   R(14,21)                1.0899         estimate D2E/DX2                !
 ! R26   R(22,23)                1.4711         estimate D2E/DX2                !
 ! R27   R(23,24)                1.092          estimate D2E/DX2                !
 ! R28   R(23,25)                1.0983         estimate D2E/DX2                !
 ! R29   R(23,26)                1.092          estimate D2E/DX2                !
 ! R30   R(27,28)                1.4089         estimate D2E/DX2                !
 ! R31   R(27,29)                1.4113         estimate D2E/DX2                !
 ! R32   R(28,30)                1.4009         estimate D2E/DX2                !
 ! R33   R(28,39)                1.5041         estimate D2E/DX2                !
 ! R34   R(29,31)                1.3983         estimate D2E/DX2                !
 ! R35   R(29,35)                1.5042         estimate D2E/DX2                !
 ! R36   R(30,32)                1.399          estimate D2E/DX2                !
 ! R37   R(30,33)                1.0934         estimate D2E/DX2                !
 ! R38   R(31,32)                1.4014         estimate D2E/DX2                !
 ! R39   R(31,34)                1.0936         estimate D2E/DX2                !
 ! R40   R(32,43)                1.5041         estimate D2E/DX2                !
 ! R41   R(35,36)                1.1014         estimate D2E/DX2                !
 ! R42   R(35,37)                1.1014         estimate D2E/DX2                !
 ! R43   R(35,38)                1.0976         estimate D2E/DX2                !
 ! R44   R(39,40)                1.1015         estimate D2E/DX2                !
 ! R45   R(39,41)                1.1015         estimate D2E/DX2                !
 ! R46   R(39,42)                1.0976         estimate D2E/DX2                !
 ! R47   R(43,44)                1.102          estimate D2E/DX2                !
 ! R48   R(43,45)                1.0984         estimate D2E/DX2                !
 ! R49   R(43,46)                1.1005         estimate D2E/DX2                !
 ! A1    A(2,1,6)              121.4729         estimate D2E/DX2                !
 ! A2    A(2,1,15)             118.8862         estimate D2E/DX2                !
 ! A3    A(6,1,15)             119.6396         estimate D2E/DX2                !
 ! A4    A(1,2,3)              120.093          estimate D2E/DX2                !
 ! A5    A(1,2,16)             118.9864         estimate D2E/DX2                !
 ! A6    A(3,2,16)             120.8955         estimate D2E/DX2                !
 ! A7    A(2,3,4)              118.9325         estimate D2E/DX2                !
 ! A8    A(2,3,22)             121.3948         estimate D2E/DX2                !
 ! A9    A(4,3,22)             119.6705         estimate D2E/DX2                !
 ! A10   A(3,4,5)              118.9176         estimate D2E/DX2                !
 ! A11   A(3,4,7)              119.9383         estimate D2E/DX2                !
 ! A12   A(5,4,7)              121.1431         estimate D2E/DX2                !
 ! A13   A(4,5,6)              121.0127         estimate D2E/DX2                !
 ! A14   A(4,5,17)             118.0294         estimate D2E/DX2                !
 ! A15   A(6,5,17)             120.9551         estimate D2E/DX2                !
 ! A16   A(1,6,5)              119.5323         estimate D2E/DX2                !
 ! A17   A(1,6,18)             119.967          estimate D2E/DX2                !
 ! A18   A(5,6,18)             120.4962         estimate D2E/DX2                !
 ! A19   A(4,7,8)              118.9354         estimate D2E/DX2                !
 ! A20   A(4,7,27)             120.5248         estimate D2E/DX2                !
 ! A21   A(8,7,27)             120.5333         estimate D2E/DX2                !
 ! A22   A(7,8,9)              119.943          estimate D2E/DX2                !
 ! A23   A(7,8,14)             121.1359         estimate D2E/DX2                !
 ! A24   A(9,8,14)             118.9203         estimate D2E/DX2                !
 ! A25   A(8,9,10)             118.9299         estimate D2E/DX2                !
 ! A26   A(8,9,22)             119.666          estimate D2E/DX2                !
 ! A27   A(10,9,22)            121.402          estimate D2E/DX2                !
 ! A28   A(9,10,11)            120.8993         estimate D2E/DX2                !
 ! A29   A(9,10,12)            120.094          estimate D2E/DX2                !
 ! A30   A(11,10,12)           118.9816         estimate D2E/DX2                !
 ! A31   A(10,12,13)           121.475          estimate D2E/DX2                !
 ! A32   A(10,12,19)           118.8855         estimate D2E/DX2                !
 ! A33   A(13,12,19)           119.6382         estimate D2E/DX2                !
 ! A34   A(12,13,14)           119.5309         estimate D2E/DX2                !
 ! A35   A(12,13,20)           119.9667         estimate D2E/DX2                !
 ! A36   A(14,13,20)           120.4981         estimate D2E/DX2                !
 ! A37   A(8,14,13)            121.0131         estimate D2E/DX2                !
 ! A38   A(8,14,21)            118.0301         estimate D2E/DX2                !
 ! A39   A(13,14,21)           120.9542         estimate D2E/DX2                !
 ! A40   A(3,22,9)             121.4612         estimate D2E/DX2                !
 ! A41   A(3,22,23)            119.2618         estimate D2E/DX2                !
 ! A42   A(9,22,23)            119.275          estimate D2E/DX2                !
 ! A43   A(22,23,24)           109.3782         estimate D2E/DX2                !
 ! A44   A(22,23,25)           110.4798         estimate D2E/DX2                !
 ! A45   A(22,23,26)           109.3743         estimate D2E/DX2                !
 ! A46   A(24,23,25)           109.9699         estimate D2E/DX2                !
 ! A47   A(24,23,26)           107.6108         estimate D2E/DX2                !
 ! A48   A(25,23,26)           109.9747         estimate D2E/DX2                !
 ! A49   A(7,27,28)            119.7042         estimate D2E/DX2                !
 ! A50   A(7,27,29)            119.3916         estimate D2E/DX2                !
 ! A51   A(28,27,29)           120.9041         estimate D2E/DX2                !
 ! A52   A(27,28,30)           118.4808         estimate D2E/DX2                !
 ! A53   A(27,28,39)           121.0077         estimate D2E/DX2                !
 ! A54   A(30,28,39)           120.5114         estimate D2E/DX2                !
 ! A55   A(27,29,31)           118.5284         estimate D2E/DX2                !
 ! A56   A(27,29,35)           120.8733         estimate D2E/DX2                !
 ! A57   A(31,29,35)           120.5982         estimate D2E/DX2                !
 ! A58   A(28,30,32)           121.9802         estimate D2E/DX2                !
 ! A59   A(28,30,33)           118.6354         estimate D2E/DX2                !
 ! A60   A(32,30,33)           119.3844         estimate D2E/DX2                !
 ! A61   A(29,31,32)           121.9375         estimate D2E/DX2                !
 ! A62   A(29,31,34)           118.5947         estimate D2E/DX2                !
 ! A63   A(32,31,34)           119.4677         estimate D2E/DX2                !
 ! A64   A(30,32,31)           118.1687         estimate D2E/DX2                !
 ! A65   A(30,32,43)           121.137          estimate D2E/DX2                !
 ! A66   A(31,32,43)           120.6916         estimate D2E/DX2                !
 ! A67   A(29,35,36)           111.3663         estimate D2E/DX2                !
 ! A68   A(29,35,37)           111.3706         estimate D2E/DX2                !
 ! A69   A(29,35,38)           110.8017         estimate D2E/DX2                !
 ! A70   A(36,35,37)           106.8077         estimate D2E/DX2                !
 ! A71   A(36,35,38)           108.16           estimate D2E/DX2                !
 ! A72   A(37,35,38)           108.1646         estimate D2E/DX2                !
 ! A73   A(28,39,40)           111.3751         estimate D2E/DX2                !
 ! A74   A(28,39,41)           111.3836         estimate D2E/DX2                !
 ! A75   A(28,39,42)           110.8046         estimate D2E/DX2                !
 ! A76   A(40,39,41)           106.8072         estimate D2E/DX2                !
 ! A77   A(40,39,42)           108.1473         estimate D2E/DX2                !
 ! A78   A(41,39,42)           108.1516         estimate D2E/DX2                !
 ! A79   A(32,43,44)           110.9114         estimate D2E/DX2                !
 ! A80   A(32,43,45)           111.3274         estimate D2E/DX2                !
 ! A81   A(32,43,46)           111.2736         estimate D2E/DX2                !
 ! A82   A(44,43,45)           107.8436         estimate D2E/DX2                !
 ! A83   A(44,43,46)           106.864          estimate D2E/DX2                !
 ! A84   A(45,43,46)           108.4416         estimate D2E/DX2                !
 ! D1    D(6,1,2,3)              0.3524         estimate D2E/DX2                !
 ! D2    D(6,1,2,16)           178.5474         estimate D2E/DX2                !
 ! D3    D(15,1,2,3)          -179.237          estimate D2E/DX2                !
 ! D4    D(15,1,2,16)           -1.0421         estimate D2E/DX2                !
 ! D5    D(2,1,6,5)             -1.3026         estimate D2E/DX2                !
 ! D6    D(2,1,6,18)           179.4613         estimate D2E/DX2                !
 ! D7    D(15,1,6,5)           178.2838         estimate D2E/DX2                !
 ! D8    D(15,1,6,18)           -0.9522         estimate D2E/DX2                !
 ! D9    D(1,2,3,4)              1.4096         estimate D2E/DX2                !
 ! D10   D(1,2,3,22)          -179.1305         estimate D2E/DX2                !
 ! D11   D(16,2,3,4)          -176.7504         estimate D2E/DX2                !
 ! D12   D(16,2,3,22)            2.7095         estimate D2E/DX2                !
 ! D13   D(2,3,4,5)             -2.2186         estimate D2E/DX2                !
 ! D14   D(2,3,4,7)            177.4249         estimate D2E/DX2                !
 ! D15   D(22,3,4,5)           178.312          estimate D2E/DX2                !
 ! D16   D(22,3,4,7)            -2.0445         estimate D2E/DX2                !
 ! D17   D(2,3,22,9)          -172.6975         estimate D2E/DX2                !
 ! D18   D(2,3,22,23)            6.7873         estimate D2E/DX2                !
 ! D19   D(4,3,22,9)             6.7585         estimate D2E/DX2                !
 ! D20   D(4,3,22,23)         -173.7568         estimate D2E/DX2                !
 ! D21   D(3,4,5,6)              1.3099         estimate D2E/DX2                !
 ! D22   D(3,4,5,17)          -179.2904         estimate D2E/DX2                !
 ! D23   D(7,4,5,6)           -178.3291         estimate D2E/DX2                !
 ! D24   D(7,4,5,17)             1.0706         estimate D2E/DX2                !
 ! D25   D(3,4,7,8)             -2.5141         estimate D2E/DX2                !
 ! D26   D(3,4,7,27)           178.4088         estimate D2E/DX2                !
 ! D27   D(5,4,7,8)            177.1212         estimate D2E/DX2                !
 ! D28   D(5,4,7,27)            -1.9559         estimate D2E/DX2                !
 ! D29   D(4,5,6,1)              0.4362         estimate D2E/DX2                !
 ! D30   D(4,5,6,18)           179.6681         estimate D2E/DX2                !
 ! D31   D(17,5,6,1)          -178.9459         estimate D2E/DX2                !
 ! D32   D(17,5,6,18)            0.286          estimate D2E/DX2                !
 ! D33   D(4,7,8,9)              2.5582         estimate D2E/DX2                !
 ! D34   D(4,7,8,14)          -177.1132         estimate D2E/DX2                !
 ! D35   D(27,7,8,9)          -178.3648         estimate D2E/DX2                !
 ! D36   D(27,7,8,14)            1.9638         estimate D2E/DX2                !
 ! D37   D(4,7,27,28)           89.4857         estimate D2E/DX2                !
 ! D38   D(4,7,27,29)          -90.6438         estimate D2E/DX2                !
 ! D39   D(8,7,27,28)          -89.5766         estimate D2E/DX2                !
 ! D40   D(8,7,27,29)           90.2939         estimate D2E/DX2                !
 ! D41   D(7,8,9,10)          -177.5219         estimate D2E/DX2                !
 ! D42   D(7,8,9,22)             1.9547         estimate D2E/DX2                !
 ! D43   D(14,8,9,10)            2.1568         estimate D2E/DX2                !
 ! D44   D(14,8,9,22)         -178.3666         estimate D2E/DX2                !
 ! D45   D(7,8,14,13)          178.4083         estimate D2E/DX2                !
 ! D46   D(7,8,14,21)           -1.0048         estimate D2E/DX2                !
 ! D47   D(9,8,14,13)           -1.2664         estimate D2E/DX2                !
 ! D48   D(9,8,14,21)          179.3205         estimate D2E/DX2                !
 ! D49   D(8,9,10,11)          176.785          estimate D2E/DX2                !
 ! D50   D(8,9,10,12)           -1.3737         estimate D2E/DX2                !
 ! D51   D(22,9,10,11)          -2.6821         estimate D2E/DX2                !
 ! D52   D(22,9,10,12)         179.1591         estimate D2E/DX2                !
 ! D53   D(8,9,22,3)            -6.7137         estimate D2E/DX2                !
 ! D54   D(8,9,22,23)          173.8016         estimate D2E/DX2                !
 ! D55   D(10,9,22,3)          172.7496         estimate D2E/DX2                !
 ! D56   D(10,9,22,23)          -6.7351         estimate D2E/DX2                !
 ! D57   D(9,10,12,13)          -0.3426         estimate D2E/DX2                !
 ! D58   D(9,10,12,19)         179.2382         estimate D2E/DX2                !
 ! D59   D(11,10,12,13)       -178.5365         estimate D2E/DX2                !
 ! D60   D(11,10,12,19)          1.0443         estimate D2E/DX2                !
 ! D61   D(10,12,13,14)          1.2734         estimate D2E/DX2                !
 ! D62   D(10,12,13,20)       -179.4836         estimate D2E/DX2                !
 ! D63   D(19,12,13,14)       -178.3044         estimate D2E/DX2                !
 ! D64   D(19,12,13,20)          0.9387         estimate D2E/DX2                !
 ! D65   D(12,13,14,8)          -0.4345         estimate D2E/DX2                !
 ! D66   D(12,13,14,21)        178.9614         estimate D2E/DX2                !
 ! D67   D(20,13,14,8)        -179.6735         estimate D2E/DX2                !
 ! D68   D(20,13,14,21)         -0.2776         estimate D2E/DX2                !
 ! D69   D(3,22,23,24)         149.0947         estimate D2E/DX2                !
 ! D70   D(3,22,23,25)         -89.7187         estimate D2E/DX2                !
 ! D71   D(3,22,23,26)          31.4714         estimate D2E/DX2                !
 ! D72   D(9,22,23,24)         -31.4091         estimate D2E/DX2                !
 ! D73   D(9,22,23,25)          89.7775         estimate D2E/DX2                !
 ! D74   D(9,22,23,26)        -149.0325         estimate D2E/DX2                !
 ! D75   D(7,27,28,30)         179.918          estimate D2E/DX2                !
 ! D76   D(7,27,28,39)           0.0176         estimate D2E/DX2                !
 ! D77   D(29,27,28,30)          0.0496         estimate D2E/DX2                !
 ! D78   D(29,27,28,39)       -179.8509         estimate D2E/DX2                !
 ! D79   D(7,27,29,31)        -179.9254         estimate D2E/DX2                !
 ! D80   D(7,27,29,35)          -0.0218         estimate D2E/DX2                !
 ! D81   D(28,27,29,31)         -0.0566         estimate D2E/DX2                !
 ! D82   D(28,27,29,35)        179.847          estimate D2E/DX2                !
 ! D83   D(27,28,30,32)          0.0547         estimate D2E/DX2                !
 ! D84   D(27,28,30,33)       -179.8802         estimate D2E/DX2                !
 ! D85   D(39,28,30,32)        179.9556         estimate D2E/DX2                !
 ! D86   D(39,28,30,33)          0.0207         estimate D2E/DX2                !
 ! D87   D(27,28,39,40)        -59.5846         estimate D2E/DX2                !
 ! D88   D(27,28,39,41)         59.5409         estimate D2E/DX2                !
 ! D89   D(27,28,39,42)        179.9837         estimate D2E/DX2                !
 ! D90   D(30,28,39,40)        120.5169         estimate D2E/DX2                !
 ! D91   D(30,28,39,41)       -120.3575         estimate D2E/DX2                !
 ! D92   D(30,28,39,42)          0.0853         estimate D2E/DX2                !
 ! D93   D(27,29,31,32)         -0.0401         estimate D2E/DX2                !
 ! D94   D(27,29,31,34)        179.8925         estimate D2E/DX2                !
 ! D95   D(35,29,31,32)       -179.944          estimate D2E/DX2                !
 ! D96   D(35,29,31,34)         -0.0114         estimate D2E/DX2                !
 ! D97   D(27,29,35,36)        -59.7            estimate D2E/DX2                !
 ! D98   D(27,29,35,37)         59.4116         estimate D2E/DX2                !
 ! D99   D(27,29,35,38)        179.8602         estimate D2E/DX2                !
 ! D100  D(31,29,35,36)        120.2017         estimate D2E/DX2                !
 ! D101  D(31,29,35,37)       -120.6868         estimate D2E/DX2                !
 ! D102  D(31,29,35,38)         -0.2382         estimate D2E/DX2                !
 ! D103  D(28,30,32,31)         -0.1469         estimate D2E/DX2                !
 ! D104  D(28,30,32,43)        179.261          estimate D2E/DX2                !
 ! D105  D(33,30,32,31)        179.7875         estimate D2E/DX2                !
 ! D106  D(33,30,32,43)         -0.8046         estimate D2E/DX2                !
 ! D107  D(29,31,32,30)          0.1394         estimate D2E/DX2                !
 ! D108  D(29,31,32,43)       -179.2712         estimate D2E/DX2                !
 ! D109  D(34,31,32,30)       -179.7926         estimate D2E/DX2                !
 ! D110  D(34,31,32,43)          0.7968         estimate D2E/DX2                !
 ! D111  D(30,32,43,44)       -110.1924         estimate D2E/DX2                !
 ! D112  D(30,32,43,45)          9.8951         estimate D2E/DX2                !
 ! D113  D(30,32,43,46)        130.9892         estimate D2E/DX2                !
 ! D114  D(31,32,43,44)         69.2005         estimate D2E/DX2                !
 ! D115  D(31,32,43,45)       -170.7119         estimate D2E/DX2                !
 ! D116  D(31,32,43,46)        -49.6178         estimate D2E/DX2                !
 --------------------------------------------------------------------------------
 Trust Radius=3.00D-01 FncErr=1.00D-07 GrdErr=1.00D-06
 Number of steps in this run=    259 maximum allowed number of steps=    276.
 GradGradGradGradGradGradGradGradGradGradGradGradGradGradGradGradGradGrad

 Leave Link  103 at Fri Feb 25 04:58:04 2022, MaxMem=  5242880000 cpu:         0.2
 (Enter /opt/nce/packages/global/g09/l202.exe)
                          Input orientation:                          
 ---------------------------------------------------------------------
 Center     Atomic      Atomic             Coordinates (Angstroms)
 Number     Number       Type             X           Y           Z
 ---------------------------------------------------------------------
      1          6           0        2.244570    3.620471   -0.115122
      2          6           0        2.942369    2.432072   -0.054036
      3          6           0        2.244594    1.201669    0.015438
      4          6           0        0.807619    1.214850   -0.009960
      5          6           0        0.130924    2.467617   -0.055988
      6          6           0        0.830288    3.647968   -0.102971
      7          6           0        0.092568    0.000029    0.003175
      8          6           0        0.809550   -1.213629   -0.012819
      9          6           0        2.246503   -1.198369    0.013569
     10          6           0        2.946071   -2.427706   -0.056730
     11          1           0        4.031827   -2.450646   -0.091523
     12          6           0        2.250023   -3.616994   -0.120287
     13          6           0        0.835771   -3.646534   -0.110110
     14          6           0        0.134691   -2.467264   -0.061970
     15          1           0        2.801905    4.556160   -0.180812
     16          1           0        4.028057    2.456497   -0.090098
     17          1           0       -0.958920    2.461084   -0.062878
     18          1           0        0.303737    4.601880   -0.143434
     19          1           0        2.808765   -4.551804   -0.186552
     20          1           0        0.310649   -4.601132   -0.152879
     21          1           0       -0.955158   -2.462278   -0.070079
     22          7           0        2.913279    0.002121    0.095099
     23          6           0        4.375109    0.003326    0.259918
     24          1           0        4.676245   -0.878381    0.829464
     25          1           0        4.872249    0.005057   -0.719466
     26          1           0        4.674469    0.884165    0.831783
     27          6           0       -1.394763   -0.001051    0.012788
     28          6           0       -2.100824    0.000847   -1.206477
     29          6           0       -2.079444   -0.006751    1.246899
     30          6           0       -3.501135   -0.001991   -1.167522
     31          6           0       -3.477706   -0.009276    1.234864
     32          6           0       -4.208781   -0.005483    0.039279
     33          1           0       -4.051612   -0.002533   -2.112241
     34          1           0       -4.009364   -0.015494    2.190547
     35          6           0       -1.324951   -0.012221    2.548166
     36          1           0       -0.675637   -0.897985    2.631828
     37          1           0       -0.672420    0.870598    2.637478
     38          1           0       -2.017102   -0.013732    3.400079
     39          6           0       -1.373531    0.003564   -2.522999
     40          1           0       -0.725278    0.888570   -2.621691
     41          1           0       -0.723843   -0.880053   -2.624726
     42          1           0       -2.083142    0.004475   -3.360406
     43          6           0       -5.712664    0.008112    0.059056
     44          1           0       -6.092445    0.974725    0.427476
     45          1           0       -6.126881   -0.155648   -0.944973
     46          1           0       -6.110169   -0.767909    0.730452
 ---------------------------------------------------------------------
                    Distance matrix (angstroms):
                    1          2          3          4          5
     1  C    0.000000
     2  C    1.379473   0.000000
     3  C    2.422323   1.416195   0.000000
     4  C    2.804086   2.457790   1.437260   0.000000
     5  C    2.408333   2.811670   2.464818   1.424591   0.000000
     6  C    1.414601   2.437557   2.828190   2.435001   1.372788
     7  C    4.213396   3.746928   2.464813   1.409702   2.468595
     8  C    5.043637   4.223950   2.809593   2.428481   3.743524
     9  C    4.820558   3.697148   2.400039   2.809727   4.233198
    10  C    6.089003   4.859780   3.697248   4.224142   5.647056
    11  H    6.328768   5.002925   4.067560   4.882421   6.277549
    12  C    7.237469   6.088919   4.820577   5.043750   6.443385
    13  C    7.402304   6.433533   5.050309   4.862497   6.154883
    14  C    6.443208   5.646823   4.233055   3.743461   4.934886
    15  H    1.091078   2.132499   3.406130   3.894961   3.392894
    16  H    2.129856   1.086561   2.183225   3.452438   3.897298
    17  H    3.407236   3.901407   3.443074   2.162535   1.089885
    18  H    2.175040   3.417373   3.918367   3.426906   2.143033
    19  H    8.192039   6.986411   5.784595   6.106559   7.513997
    20  H    8.446078   7.510105   6.118903   5.838926   7.071697
    21  H    6.873145   6.256647   4.865206   4.078268   5.048132
    22  N    3.685624   2.434697   1.375646   2.432191   3.720618
    23  C    4.214687   2.837273   2.456601   3.777249   4.917889
    24  H    5.200476   3.840052   3.301844   4.478004   5.713114
    25  H    4.510116   3.171378   2.979351   4.299792   5.383732
    26  H    3.780001   2.486134   2.582929   3.971198   4.892776
    27  C    5.135808   4.973456   3.832944   2.515834   2.902890
    28  C    5.759790   5.716010   4.670943   3.371127   3.519841
    29  C    5.805940   5.732268   4.655543   3.377445   3.564511
    30  C    6.873347   6.977339   5.988455   4.624501   4.530599
    31  C    6.909556   6.988477   5.974789   4.627319   4.563278
    32  C    7.403859   7.555748   6.565351   5.162936   4.995832
    33  H    7.533694   7.686305   6.754208   5.432654   5.274791
    34  H    7.592631   7.704241   6.732353   5.436847   5.324917
    35  C    5.747263   5.563816   4.542014   3.549305   3.879534
    36  H    6.040678   5.602956   4.447673   3.693665   4.382028
    37  H    4.862863   4.769607   3.936200   3.052532   3.232737
    38  H    6.612558   6.519910   5.576293   4.595305   4.766079
    39  C    5.654250   5.533572   4.579295   3.541185   3.797510
    40  H    4.750386   4.735703   3.984046   3.045878   3.131981
    41  H    5.946789   5.569536   4.485047   3.683883   4.305338
    42  H    6.506642   6.486992   5.617730   4.587700   4.678497
    43  C    8.740541   8.988769   8.046393   6.631370   6.341129
    44  H    8.763573   9.164255   8.350299   6.918085   6.418161
    45  H    9.221113   9.473192   8.535004   7.130204   6.843386
    46  H    9.474943   9.633470   8.613510   7.234316   7.073780
                    6          7          8          9         10
     6  C    0.000000
     7  C    3.723299   0.000000
     8  C    4.862477   1.409711   0.000000
     9  C    5.050369   2.464894   1.437276   0.000000
    10  C    6.433700   3.746994   2.457770   1.416194   0.000000
    11  H    6.887893   4.640316   3.452459   2.183260   1.086556
    12  C    7.402406   4.213397   2.804046   2.422329   1.379467
    13  C    7.294508   3.723252   2.434991   2.828246   2.437572
    14  C    6.154803   2.468512   1.424588   2.464863   2.811663
    15  H    2.172129   5.304026   6.106404   5.784536   6.986456
    16  H    3.412550   4.640152   4.882068   4.067275   5.002724
    17  H    2.147456   2.677085   4.078420   4.865406   6.256937
    18  H    1.090340   4.609026   5.838926   6.118977   7.510295
    19  H    8.435497   5.304046   3.894927   3.406129   2.132487
    20  H    8.265601   4.608969   3.426908   3.918422   3.417378
    21  H    6.365847   2.676948   2.162544   3.443123   3.901405
    22  N    4.203604   2.822209   2.432153   1.375650   2.434787
    23  C    5.097142   4.290231   3.777377   2.456771   2.837663
    24  H    6.012375   4.739668   3.971544   2.582968   2.485810
    25  H    5.476159   4.834003   4.300008   2.979952   3.172967
    26  H    4.825982   4.739420   4.477911   3.301733   3.839962
    27  C    4.275464   1.487362   2.515949   3.833065   4.973563
    28  C    4.807352   2.504841   3.371950   4.671818   5.717599
    29  C    4.862680   2.502905   3.374867   4.653480   5.728549
    30  C    5.763393   3.779582   4.624220   5.988459   6.977422
    31  C    5.807241   3.776771   4.624688   5.972610   6.984406
    32  C    6.225765   4.301504   5.161974   6.564627   7.554356
    33  H    6.418432   4.652872   5.431871   6.753913   7.685971
    34  H    6.488714   4.648729   5.432521   6.728618   7.697214
    35  C    5.007052   2.913158   3.543744   4.537225   5.555329
    36  H    5.514764   2.882080   3.049520   3.935024   4.762894
    37  H    4.181145   2.877959   3.682976   4.436850   5.588474
    38  H    5.812662   3.998732   4.591033   5.572265   6.512287
    39  C    4.898473   2.920790   3.542373   4.580771   5.536472
    40  H    4.046976   2.889342   3.685261   4.486802   5.572748
    41  H    5.410873   2.889106   3.047068   3.985584   4.738998
    42  H    5.689815   4.005922   4.588876   5.619285   6.490205
    43  C    7.488994   5.805507   6.636045   8.050218   8.995572
    44  H    7.439881   6.275703   7.253984   8.627381   9.669838
    45  H    7.973623   6.293232   7.078299   8.492328   9.395195
    46  H    8.268283   6.292266   6.973782   8.398404   9.240674
                   11         12         13         14         15
    11  H    0.000000
    12  C    2.129794   0.000000
    13  C    3.412516   1.414597   0.000000
    14  C    3.897283   2.408300   1.372774   0.000000
    15  H    7.114493   8.191989   8.435335   7.513763   0.000000
    16  H    4.907145   6.328476   6.887531   6.277142   2.433159
    17  H    7.002390   6.873401   6.366015   5.048227   4.306629
    18  H    7.977435   8.446209   8.265622   7.071634   2.498866
    19  H    2.433059   1.091079   2.172110   3.392860   9.107968
    20  H    4.298316   2.175031   1.090339   2.143040   9.490160
    21  H    4.987045   3.407209   2.147438   1.089891   7.961549
    22  N    2.702229   3.685688   4.203669   3.720630   4.563749
    23  C    2.502665   4.215123   5.097579   4.918188   4.837097
    24  H    1.932746   3.780024   4.826459   4.893354   5.836784
    25  H    2.670412   4.511578   5.477097   5.384155   5.028818
    26  H    3.519438   5.200462   6.012487   5.713183   4.244454
    27  C    5.954769   5.135876   4.275504   2.902934   6.198199
    28  C    6.697936   5.761810   4.809262   3.521221   6.770496
    29  C    6.716519   5.800632   4.856745   3.559446   6.832722
    30  C    7.993698   6.873192   5.762774   4.529795   7.840832
    31  C    8.007039   6.903546   5.800404   4.557729   7.891822
    32  C    8.596717   7.401663   6.223108   4.993633   8.367003
    33  H    8.684385   7.532783   6.416680   5.272916   8.454750
    34  H    8.706237   7.582261   6.477099   5.315844   8.539130
    35  C    6.450500   5.735457   4.994335   3.869186   6.734120
    36  H    5.655759   4.850426   4.166185   3.221151   7.053505
    37  H    6.372444   6.023655   5.498033   4.368040   5.796297
    38  H    7.397255   6.601881   5.801514   4.757711   7.545165
    39  C    6.415070   5.657880   4.901659   3.799525   6.606530
    40  H    6.338940   5.950592   5.414063   4.307359   5.643592
    41  H    5.612511   4.754676   4.050816   3.134332   6.925029
    42  H    7.355682   6.510739   5.693360   4.680594   7.395359
    43  C   10.051033   8.750882   7.501137   6.350881   9.656095
    44  H   10.700627   9.538380   8.345371   7.131905   9.607609
    45  H   10.449629   9.101294   7.833378   6.732796  10.124638
    46  H   10.313454   8.873210   7.565653   6.520277  10.421189
                   16         17         18         19         20
    16  H    0.000000
    17  H    4.987053   0.000000
    18  H    4.298380   2.486725   0.000000
    19  H    7.114229   7.961868   9.490361   0.000000
    20  H    7.977041   7.175988   9.203019   2.498830   0.000000
    21  H    7.001941   4.923369   7.175829   4.306600   2.486729
    22  N    2.702034   4.589704   5.293807   4.563823   5.293875
    23  C    2.502200   5.881891   6.155117   4.837559   6.155589
    24  H    3.519539   6.610854   7.078038   4.244267   5.820851
    25  H    2.668018   6.361266   6.506450   5.030601   6.507395
    26  H    1.933893   5.917953   5.820288   5.836747   7.078204
    27  C    5.954587   2.501558   4.908796   6.198285   4.908831
    28  C    6.696245   2.943557   5.299196   6.772809   5.301272
    29  C    6.719875   3.010199   5.371411   6.826923   5.364724
    30  C    7.993356   3.708077   6.059821   7.840787   6.058985
    31  C    8.010745   3.759135   6.120603   7.885094   6.112496
    32  C    8.597883   4.081175   6.451666   8.364567   6.448423
    33  H    8.684293   4.453543   6.636707   8.453929   6.634420
    34  H    8.712762   4.529522   6.735759   8.527344   6.721773
    35  C    6.458305   3.615075   5.584556   6.721168   5.570362
    36  H    6.386405   4.315673   6.237769   5.782276   4.737156
    37  H    5.661204   3.147007   4.754873   7.035356   6.220317
    38  H    7.404547   4.385947   6.264715   7.533061   6.251894
    39  C    6.411945   3.501928   5.442432   6.610746   5.445838
    40  H    5.609060   3.012460   4.581408   6.929432   6.107782
    41  H    6.335413   4.216814   6.104451   5.648519   4.585480
    42  H    7.352148   4.262921   6.097724   7.400256   6.101646
    43  C   10.044824   5.350703   7.572370   9.667880   7.587513
    44  H   10.241489   5.366823   7.375184  10.495289   8.510382
    45  H   10.520308   5.859454   8.039240   9.987350   7.863303
    46  H   10.670226   6.131161   8.410499   9.731708   7.529992
                   21         22         23         24         25
    21  H    0.000000
    22  N    4.589701   0.000000
    23  C    5.882163   1.471093   0.000000
    24  H    5.918666   2.103004   1.092004   0.000000
    25  H    6.361456   2.121577   1.098337   1.793896   0.000000
    26  H    6.610956   2.102973   1.092027   1.762548   1.793968
    27  C    2.501551   4.308829   5.775164   6.188199   6.309649
    28  C    2.944645   5.180283   6.639882   7.130692   6.990060
    29  C    3.004674   5.123866   6.529586   6.824465   7.224456
    30  C    3.706669   6.537502   8.004551   8.463188   8.385366
    31  C    3.752778   6.491832   7.913115   8.210153   8.575626
    32  C    4.078463   7.122283   8.586730   8.962702   9.112679
    33  H    4.450708   7.306304   8.754245   9.251823   9.031898
    34  H    4.519442   7.232856   8.603899   8.833851   9.346210
    35  C    3.604821   4.896972   6.142231   6.302263   7.005926
    36  H    3.134557   4.486146   5.652287   5.647260   6.544134
    37  H    4.303355   4.480534   5.646459   5.910673   6.539235
    38  H    4.377796   5.935638   7.121886   7.221951   8.027089
    39  C    3.503174   5.023065   6.386822   6.972562   6.500962
    40  H    4.218027   4.626644   5.924633   6.648988   5.977572
    41  H    3.013829   4.626482   5.924596   6.410334   5.977431
    42  H    4.264208   6.074927   7.403766   8.001485   7.439894
    43  C    5.362217   8.626020  10.089774  10.455086  10.613505
    44  H    6.200989   9.064188  10.513866  10.934362  11.067079
    45  H    5.729983   9.101161  10.572078  10.971714  11.002615
    46  H    5.485059   9.078504  10.524128  10.787434  11.104650
                   26         27         28         29         30
    26  H    0.000000
    27  C    6.187886   0.000000
    28  C    7.130172   1.408947   0.000000
    29  C    6.825056   1.411329   2.453481   0.000000
    30  C    8.463037   2.414526   1.400856   2.801902   0.000000
    31  C    8.210887   2.414993   2.802865   1.398316   2.402511
    32  C    8.962793   2.814146   2.448557   2.447943   1.398980
    33  H    9.251919   3.402146   2.150812   3.895290   1.093398
    34  H    8.835416   3.402790   3.896481   2.148288   3.396337
    35  C    6.304167   2.536364   3.833992   1.504189   4.306068
    36  H    5.919447   2.860245   4.191854   2.164024   4.818849
    37  H    5.643575   2.858417   4.191992   2.164063   4.820899
    38  H    7.223537   3.444010   4.607340   2.154094   4.802652
    39  C    6.971967   2.535880   1.504059   3.835434   2.522706
    40  H    6.409662   2.860090   2.164026   4.195397   3.257774
    41  H    6.648435   2.859940   2.164138   4.194018   3.256960
    42  H    8.000851   3.442722   2.154005   4.607320   2.611415
    43  C   10.452612   4.318159   3.827142   3.822496   2.528924
    44  H   10.774883   4.815841   4.421683   4.211760   3.195760
    45  H   10.995783   4.830543   4.037575   4.605238   2.639636
    46  H   10.910913   4.830959   4.518576   4.134347   3.316021
                   31         32         33         34         35
    31  C    0.000000
    32  C    1.401395   0.000000
    33  H    3.395957   2.157255   0.000000
    34  H    1.093631   2.160514   4.303015   0.000000
    35  C    2.521731   3.822438   5.399460   2.708131   0.000000
    36  H    3.254674   4.472245   5.891115   3.476673   1.101447
    37  H    3.257474   4.474819   5.894160   3.481394   1.101428
    38  H    2.611808   4.012294   5.875800   2.330682   1.097648
    39  C    4.306884   3.821517   2.709405   5.400509   5.071422
    40  H    4.822344   4.473800   3.481106   5.895777   5.281899
    41  H    4.820627   4.472872   3.479472   5.893129   5.279515
    42  H    4.802239   4.009526   2.330845   5.875696   5.957043
    43  C    2.525443   1.504074   2.733814   2.728560   5.044612
    44  H    2.908091   2.158633   3.401499   2.903133   5.310404
    45  H    3.433838   2.161113   2.385938   3.786160   5.939792
    46  H    2.785645   2.162011   3.592264   2.666718   5.174308
                   36         37         38         39         40
    36  H    0.000000
    37  H    1.768595   0.000000
    38  H    1.780910   1.780946   0.000000
    39  C    5.279402   5.279567   5.957964   0.000000
    40  H    5.549208   5.259465   6.224522   1.101457   0.000000
    41  H    5.256806   5.546009   6.222645   1.101464   1.768626
    42  H    6.221123   6.222131   6.760832   1.097633   1.780763
    43  C    5.728159   5.726797   4.981977   5.049268   5.730238
    44  H    6.140686   5.854197   5.140218   5.649478   6.173437
    45  H    6.562060   6.605928   5.982466   5.010973   5.751442
    46  H    5.759018   5.990874   4.944582   5.797918   6.555748
                   41         42         43         44         45
    41  H    0.000000
    42  H    1.780817   0.000000
    43  C    5.734096   4.986598   0.000000
    44  H    6.448103   5.600352   1.101956   0.000000
    45  H    5.704310   4.712938   1.098393   1.778355   0.000000
    46  H    6.346834   5.792119   1.100451   1.768865   1.783870
                   46
    46  H    0.000000
 Symmetry turned off by external request.
 Stoichiometry    C23H22N
 Rotational constants (GHZ):      0.3617098      0.2049980      0.1540330
 Leave Link  202 at Fri Feb 25 04:58:04 2022, MaxMem=  5242880000 cpu:         0.1
 (Enter /opt/nce/packages/global/g09/l301.exe)
 Standard basis: def2TZVP (5D, 7F)
 Ernie: Thresh=  0.10000D-02 Tol=  0.10000D-05 Strict=F.
   876 basis functions,  1400 primitive gaussians,   996 cartesian basis functions
    83 alpha electrons       83 beta electrons
       nuclear repulsion energy      1987.1108135457 Hartrees.
 IExCor=  402 DFT=T Ex+Corr=B3LYP ExCW=0 ScaHFX=  0.200000
 ScaDFX=  0.800000  0.720000  1.000000  0.810000 ScalE2=  1.000000  1.000000
 IRadAn=      5 IRanWt=     -1 IRanGd=            0 ICorTp=0 IEmpDi=141
 NAtoms=   46 NActive=   46 NUniq=   46 SFac= 1.00D+00 NAtFMM=   60 NAOKFM=F Big=F
 Integral buffers will be    131072 words long.
 Raffenetti 2 integral format.
 Two-electron integral symmetry is turned off.
 R6Disp:  Grimme-D3(BJ) Dispersion energy=       -0.1134803807 Hartrees.
 Nuclear repulsion after empirical dispersion term =     1986.9973331649 Hartrees.
 ------------------------------------------------------------------------------
 Polarizable Continuum Model (PCM)
 =================================
 Model                : PCM (using non-symmetric T matrix).
 Atomic radii         : SMD-Coulomb.
 Polarization charges : Total charges.
 Charge compensation  : None.
 Solution method      : On-the-fly selection.
 Cavity type          : VdW (van der Waals Surface) (Alpha=1.000).
 Cavity algorithm     : GePol (No added spheres)
                        Default sphere list used, NSphG=   46.
                        Lebedev-Laikov grids with approx.  5.0 points / Ang**2.
                        Smoothing algorithm: York/Karplus (Gamma=1.0000).
                        Polarization charges: spherical gaussians, with
                                              point-specific exponents (IZeta= 3).
                        Self-potential: point-specific (ISelfS= 7).
                        Self-field    : sphere-specific E.n sum rule (ISelfD= 2).
 1st derivatives      : Analytical E(r).r(x)/FMM algorithm (CHGder, D1EAlg=3).
                        Cavity 1st derivative terms included.
 Solvent              : Acetonitrile, Eps=  35.688000 Eps(inf)=   1.806874
 ------------------------------------------------------------------------------
 GePol: Number of generator spheres                  =      46
 GePol: Total number of spheres                      =      46
 GePol: Number of exposed spheres                    =      46 (100.00%)
 GePol: Number of points                             =    3351
 GePol: Average weight of points                     =       0.11
 GePol: Minimum weight of points                     =   0.88D-08
 GePol: Maximum weight of points                     =    0.17992
 GePol: Number of points with low weight             =     225
 GePol: Fraction of low-weight points (<1% of avg)   =       6.71%
 GePol: Cavity surface area                          =    352.898 Ang**2
 GePol: Cavity volume                                =    336.541 Ang**3
 ------------------------------------------------------------------------------
 Atomic radii for non-electrostatic terms: SMD-CDS.
 ------------------------------------------------------------------------------
 PCM non-electrostatic energy =        -0.0074409696 Hartrees.
 Nuclear repulsion after PCM non-electrostatic terms =     1986.9898921954 Hartrees.
 Leave Link  301 at Fri Feb 25 04:58:05 2022, MaxMem=  5242880000 cpu:        15.7
 (Enter /opt/nce/packages/global/g09/l302.exe)
 NPDir=0 NMtPBC=     1 NCelOv=     1 NCel=       1 NClECP=     1 NCelD=      1
         NCelK=      1 NCelE2=     1 NClLst=     1 CellRange=     0.0.
 One-electron integrals computed using PRISM.
   1 Symmetry operations used in ECPInt.
 ECPInt:  NShTT=   62128 NPrTT=  188172 LenC2=   54745 LenP2D=  117658.
 LDataN:  DoStor=T MaxTD1= 6 Len=  172
 NBasis=   876 RedAO= T EigKep=  3.25D-06  NBF=   876
 NBsUse=   876 1.00D-06 EigRej= -1.00D+00 NBFU=   876
 Precomputing XC quadrature grid using
 IXCGrd= 4 IRadAn=           5 IRanWt=          -1 IRanGd=           0 AccXCQ= 0.00D+00.
 Generated NRdTot=       0 NPtTot=           0 NUsed=           0 NTot=          32
 NSgBfM=   982   982   982   982   982 MxSgAt=    46 MxSgA2=    46.
 Leave Link  302 at Fri Feb 25 04:58:07 2022, MaxMem=  5242880000 cpu:        21.3
 (Enter /opt/nce/packages/global/g09/l303.exe)
 DipDrv:  MaxL=1.
 Leave Link  303 at Fri Feb 25 04:58:07 2022, MaxMem=  5242880000 cpu:         2.2
 (Enter /opt/nce/packages/global/g09/l401.exe)
 ExpMin= 9.52D-02 ExpMax= 1.97D+04 ExpMxC= 6.73D+02 IAcc=3 IRadAn=         5 AccDes= 0.00D+00
 Harris functional with IExCor=  402 and IRadAn=       5 diagonalized for initial guess.
 HarFok:  IExCor=  402 AccDes= 0.00D+00 IRadAn=         5 IDoV= 1 UseB2=F ITyADJ=14
 ICtDFT=  3500011 ScaDFX=  1.000000  1.000000  1.000000  1.000000
 FoFCou: FMM=F IPFlag=           0 FMFlag=      100000 FMFlg1=           0
         NFxFlg=           0 DoJE=T BraDBF=F KetDBF=T FulRan=T
         wScrn=  0.000000 ICntrl=     500 IOpCl=  0 I1Cent=   200000004 NGrid=           0
         NMat0=    1 NMatS0=      1 NMatT0=    0 NMatD0=    1 NMtDS0=    0 NMtDT0=    0
 Symmetry not used in FoFCou.
 Harris En= -944.793804310173    
 JPrj=0 DoOrth=F DoCkMO=F.
 Leave Link  401 at Fri Feb 25 04:58:17 2022, MaxMem=  5242880000 cpu:       107.0
 (Enter /opt/nce/packages/global/g09/l502.exe)
 Closed shell SCF:
 Using DIIS extrapolation, IDIIS=  1040.
 Two-electron integral symmetry not used.
 IVT=     3012618 IEndB=     3012618 NGot=  5242880000 MDV=  5240877035
 LenX=  5240877035 LenY=  5239884023
 Requested convergence on RMS density matrix=1.00D-08 within 128 cycles.
 Requested convergence on MAX density matrix=1.00D-06.
 Requested convergence on             energy=1.00D-06.
 No special actions if energy rises.
 Fock matrices will be formed incrementally for  20 cycles.

 Cycle   1  Pass 1  IDiag  1:
 FoFJK:  IHMeth= 1 ICntrl=       0 DoSepK=F KAlg= 0 I1Cent=   0 FoldK=F
 IRaf= 780000000 NMat=   1 IRICut=       1 DoRegI=T DoRafI=F ISym2E= 0.
 FoFCou: FMM=F IPFlag=           0 FMFlag=      100000 FMFlg1=           0
         NFxFlg=           0 DoJE=F BraDBF=F KetDBF=F FulRan=T
         wScrn=  0.000000 ICntrl=       0 IOpCl=  0 I1Cent=           0 NGrid=           0
         NMat0=    1 NMatS0=      1 NMatT0=    0 NMatD0=    1 NMtDS0=    0 NMtDT0=    0
 Symmetry not used in FoFCou.
 Inv3:  Mode=1 IEnd=    33687603.
 Iteration    1 A*A^-1 deviation from unit magnitude is 7.33D-15 for   3338.
 Iteration    1 A*A^-1 deviation from orthogonality  is 4.15D-15 for   3347   2774.
 Iteration    1 A^-1*A deviation from unit magnitude is 7.55D-15 for   3338.
 Iteration    1 A^-1*A deviation from orthogonality  is 2.28D-10 for   1059   1023.
 Iteration    2 A*A^-1 deviation from unit magnitude is 2.66D-15 for   2815.
 Iteration    2 A*A^-1 deviation from orthogonality  is 3.85D-15 for   1671    495.
 Iteration    2 A^-1*A deviation from unit magnitude is 9.99D-16 for    299.
 Iteration    2 A^-1*A deviation from orthogonality  is 4.46D-16 for   2407    953.
 E= -944.232686738592    
 DIIS: error= 2.30D-02 at cycle   1 NSaved=   1.
 NSaved= 1 IEnMin= 1 EnMin= -944.232686738592     IErMin= 1 ErrMin= 2.30D-02
 ErrMax= 2.30D-02  0.00D+00 EMaxC= 1.00D-01 BMatC= 5.84D-01 BMatP= 5.84D-01
 IDIUse=3 WtCom= 7.70D-01 WtEn= 2.30D-01
 Coeff-Com:  0.100D+01
 Coeff-En:   0.100D+01
 Coeff:      0.100D+01
 Gap=     0.135 Goal=   None    Shift=    0.000
 GapD=    0.135 DampG=1.000 DampE=0.500 DampFc=0.5000 IDamp=-1.
 Damping current iteration by 5.00D-01
 RMSDP=1.77D-03 MaxDP=1.14D-01              OVMax= 3.32D-01

 Cycle   2  Pass 1  IDiag  1:
 RMSU=  8.64D-04    CP:  9.66D-01
 E= -944.476756451981     Delta-E=       -0.244069713389 Rises=F Damp=T
 DIIS: error= 6.07D-03 at cycle   2 NSaved=   2.
 NSaved= 2 IEnMin= 2 EnMin= -944.476756451981     IErMin= 2 ErrMin= 6.07D-03
 ErrMax= 6.07D-03  0.00D+00 EMaxC= 1.00D-01 BMatC= 5.11D-02 BMatP= 5.84D-01
 IDIUse=3 WtCom= 9.39D-01 WtEn= 6.07D-02
 Coeff-Com:  0.448D-01 0.955D+00
 Coeff-En:   0.114D+00 0.886D+00
 Coeff:      0.490D-01 0.951D+00
 Gap=     0.143 Goal=   None    Shift=    0.000
 RMSDP=5.94D-04 MaxDP=5.19D-02 DE=-2.44D-01 OVMax= 3.44D-01

 Cycle   3  Pass 1  IDiag  1:
 RMSU=  5.73D-04    CP:  9.49D-01  8.57D-01
 E= -944.736414983719     Delta-E=       -0.259658531739 Rises=F Damp=F
 DIIS: error= 1.26D-02 at cycle   3 NSaved=   3.
 NSaved= 3 IEnMin= 3 EnMin= -944.736414983719     IErMin= 2 ErrMin= 6.07D-03
 ErrMax= 1.26D-02  0.00D+00 EMaxC= 1.00D-01 BMatC= 6.32D-02 BMatP= 5.11D-02
 IDIUse=2 WtCom= 0.00D+00 WtEn= 1.00D+00
 Coeff-En:   0.000D+00 0.000D+00 0.100D+01
 Coeff:      0.000D+00 0.000D+00 0.100D+01
 Gap=     0.143 Goal=   None    Shift=    0.000
 RMSDP=6.62D-04 MaxDP=9.83D-02 DE=-2.60D-01 OVMax= 2.80D-01

 Cycle   4  Pass 1  IDiag  1:
 RMSU=  5.50D-04    CP:  9.53D-01  1.05D+00  4.30D-01
 E= -944.539026480324     Delta-E=        0.197388503395 Rises=F Damp=F
 DIIS: error= 2.61D-02 at cycle   4 NSaved=   4.
 NSaved= 4 IEnMin= 3 EnMin= -944.736414983719     IErMin= 2 ErrMin= 6.07D-03
 ErrMax= 2.61D-02  0.00D+00 EMaxC= 1.00D-01 BMatC= 2.71D-01 BMatP= 5.11D-02
 IDIUse=2 WtCom= 0.00D+00 WtEn= 1.00D+00
 Coeff-En:   0.000D+00 0.000D+00 0.754D+00 0.246D+00
 Coeff:      0.000D+00 0.000D+00 0.754D+00 0.246D+00
 Gap=     0.119 Goal=   None    Shift=    0.000
 RMSDP=3.32D-04 MaxDP=5.21D-02 DE= 1.97D-01 OVMax= 1.85D-01

 Cycle   5  Pass 1  IDiag  1:
 RMSU=  7.63D-05    CP:  9.52D-01  9.25D-01  7.05D-01  5.26D-01
 E= -944.784373827866     Delta-E=       -0.245347347542 Rises=F Damp=F
 DIIS: error= 6.14D-03 at cycle   5 NSaved=   5.
 NSaved= 5 IEnMin= 5 EnMin= -944.784373827866     IErMin= 2 ErrMin= 6.07D-03
 ErrMax= 6.14D-03  0.00D+00 EMaxC= 1.00D-01 BMatC= 1.59D-02 BMatP= 5.11D-02
 IDIUse=3 WtCom= 9.39D-01 WtEn= 6.14D-02
 Coeff-Com: -0.925D-03 0.101D-01 0.254D+00-0.788D-01 0.815D+00
 Coeff-En:   0.000D+00 0.000D+00 0.244D+00 0.000D+00 0.756D+00
 Coeff:     -0.869D-03 0.951D-02 0.254D+00-0.739D-01 0.811D+00
 Gap=     0.125 Goal=   None    Shift=    0.000
 RMSDP=1.21D-04 MaxDP=1.58D-02 DE=-2.45D-01 OVMax= 5.23D-02

 Cycle   6  Pass 1  IDiag  1:
 RMSU=  3.34D-05    CP:  9.51D-01  8.98D-01  8.04D-01  3.47D-01  8.29D-01
 E= -944.799801857568     Delta-E=       -0.015428029702 Rises=F Damp=F
 DIIS: error= 6.10D-04 at cycle   6 NSaved=   6.
 NSaved= 6 IEnMin= 6 EnMin= -944.799801857568     IErMin= 6 ErrMin= 6.10D-04
 ErrMax= 6.10D-04  0.00D+00 EMaxC= 1.00D-01 BMatC= 2.50D-04 BMatP= 1.59D-02
 IDIUse=3 WtCom= 9.94D-01 WtEn= 6.10D-03
 Coeff-Com: -0.169D-02 0.572D-02 0.123D+00-0.681D-01 0.521D+00 0.420D+00
 Coeff-En:   0.000D+00 0.000D+00 0.000D+00 0.000D+00 0.000D+00 0.100D+01
 Coeff:     -0.168D-02 0.569D-02 0.122D+00-0.677D-01 0.518D+00 0.423D+00
 Gap=     0.125 Goal=   None    Shift=    0.000
 RMSDP=1.95D-05 MaxDP=1.52D-03 DE=-1.54D-02 OVMax= 5.90D-03

 Cycle   7  Pass 1  IDiag  1:
 RMSU=  1.11D-05    CP:  9.51D-01  8.98D-01  8.04D-01  3.55D-01  9.24D-01
                    CP:  5.92D-01
 E= -944.800059892441     Delta-E=       -0.000258034873 Rises=F Damp=F
 DIIS: error= 8.17D-05 at cycle   7 NSaved=   7.
 NSaved= 7 IEnMin= 7 EnMin= -944.800059892441     IErMin= 7 ErrMin= 8.17D-05
 ErrMax= 8.17D-05  0.00D+00 EMaxC= 1.00D-01 BMatC= 5.95D-06 BMatP= 2.50D-04
 IDIUse=1 WtCom= 1.00D+00 WtEn= 0.00D+00
 Coeff-Com: -0.368D-03 0.791D-03 0.363D-01-0.206D-01 0.156D+00 0.187D+00
 Coeff-Com:  0.641D+00
 Coeff:     -0.368D-03 0.791D-03 0.363D-01-0.206D-01 0.156D+00 0.187D+00
 Coeff:      0.641D+00
 Gap=     0.125 Goal=   None    Shift=    0.000
 RMSDP=3.87D-06 MaxDP=2.53D-04 DE=-2.58D-04 OVMax= 9.77D-04

 Cycle   8  Pass 1  IDiag  1:
 RMSU=  3.06D-06    CP:  9.52D-01  8.98D-01  8.05D-01  3.55D-01  9.17D-01
                    CP:  6.48D-01  8.90D-01
 E= -944.800065264455     Delta-E=       -0.000005372014 Rises=F Damp=F
 DIIS: error= 3.00D-05 at cycle   8 NSaved=   8.
 NSaved= 8 IEnMin= 8 EnMin= -944.800065264455     IErMin= 8 ErrMin= 3.00D-05
 ErrMax= 3.00D-05  0.00D+00 EMaxC= 1.00D-01 BMatC= 1.40D-06 BMatP= 5.95D-06
 IDIUse=1 WtCom= 1.00D+00 WtEn= 0.00D+00
 Coeff-Com: -0.150D-04-0.180D-03 0.284D-02-0.273D-02 0.153D-01 0.515D-01
 Coeff-Com:  0.385D+00 0.548D+00
 Coeff:     -0.150D-04-0.180D-03 0.284D-02-0.273D-02 0.153D-01 0.515D-01
 Coeff:      0.385D+00 0.548D+00
 Gap=     0.125 Goal=   None    Shift=    0.000
 RMSDP=1.24D-06 MaxDP=8.56D-05 DE=-5.37D-06 OVMax= 4.65D-04

 Cycle   9  Pass 1  IDiag  1:
 RMSU=  9.24D-07    CP:  9.52D-01  8.98D-01  8.06D-01  3.56D-01  9.21D-01
                    CP:  6.42D-01  9.36D-01  8.56D-01
 E= -944.800066570032     Delta-E=       -0.000001305577 Rises=F Damp=F
 DIIS: error= 6.33D-06 at cycle   9 NSaved=   9.
 NSaved= 9 IEnMin= 9 EnMin= -944.800066570032     IErMin= 9 ErrMin= 6.33D-06
 ErrMax= 6.33D-06  0.00D+00 EMaxC= 1.00D-01 BMatC= 3.51D-08 BMatP= 1.40D-06
 IDIUse=1 WtCom= 1.00D+00 WtEn= 0.00D+00
 Coeff-Com:  0.272D-04-0.217D-03-0.110D-02 0.391D-03-0.433D-02 0.109D-01
 Coeff-Com:  0.122D+00 0.216D+00 0.656D+00
 Coeff:      0.272D-04-0.217D-03-0.110D-02 0.391D-03-0.433D-02 0.109D-01
 Coeff:      0.122D+00 0.216D+00 0.656D+00
 Gap=     0.125 Goal=   None    Shift=    0.000
 RMSDP=4.14D-07 MaxDP=2.61D-05 DE=-1.31D-06 OVMax= 6.74D-05

 Cycle  10  Pass 1  IDiag  1:
 RMSU=  2.82D-07    CP:  9.52D-01  8.98D-01  8.06D-01  3.55D-01  9.20D-01
                    CP:  6.48D-01  9.50D-01  8.52D-01  8.73D-01
 E= -944.800066604665     Delta-E=       -0.000000034633 Rises=F Damp=F
 DIIS: error= 2.31D-06 at cycle  10 NSaved=  10.
 NSaved=10 IEnMin=10 EnMin= -944.800066604665     IErMin=10 ErrMin= 2.31D-06
 ErrMax= 2.31D-06  0.00D+00 EMaxC= 1.00D-01 BMatC= 5.29D-09 BMatP= 3.51D-08
 IDIUse=1 WtCom= 1.00D+00 WtEn= 0.00D+00
 Coeff-Com:  0.334D-05-0.447D-04-0.823D-03 0.372D-03-0.333D-02 0.164D-02
 Coeff-Com:  0.297D-01 0.544D-01 0.313D+00 0.605D+00
 Coeff:      0.334D-05-0.447D-04-0.823D-03 0.372D-03-0.333D-02 0.164D-02
 Coeff:      0.297D-01 0.544D-01 0.313D+00 0.605D+00
 Gap=     0.125 Goal=   None    Shift=    0.000
 RMSDP=1.19D-07 MaxDP=1.15D-05 DE=-3.46D-08 OVMax= 2.69D-05

 Cycle  11  Pass 1  IDiag  1:
 RMSU=  9.18D-08    CP:  9.52D-01  8.98D-01  8.06D-01  3.55D-01  9.20D-01
                    CP:  6.48D-01  9.54D-01  8.56D-01  9.12D-01  9.10D-01
 E= -944.800066609927     Delta-E=       -0.000000005261 Rises=F Damp=F
 DIIS: error= 8.44D-07 at cycle  11 NSaved=  11.
 NSaved=11 IEnMin=11 EnMin= -944.800066609927     IErMin=11 ErrMin= 8.44D-07
 ErrMax= 8.44D-07  0.00D+00 EMaxC= 1.00D-01 BMatC= 6.04D-10 BMatP= 5.29D-09
 IDIUse=1 WtCom= 1.00D+00 WtEn= 0.00D+00
 Coeff-Com: -0.709D-05 0.241D-04-0.246D-03 0.986D-04-0.850D-03-0.599D-03
 Coeff-Com: -0.446D-02-0.907D-02 0.370D-01 0.262D+00 0.716D+00
 Coeff:     -0.709D-05 0.241D-04-0.246D-03 0.986D-04-0.850D-03-0.599D-03
 Coeff:     -0.446D-02-0.907D-02 0.370D-01 0.262D+00 0.716D+00
 Gap=     0.125 Goal=   None    Shift=    0.000
 RMSDP=4.33D-08 MaxDP=3.73D-06 DE=-5.26D-09 OVMax= 1.05D-05

 Cycle  12  Pass 1  IDiag  1:
 RMSU=  2.68D-08    CP:  9.52D-01  8.98D-01  8.06D-01  3.55D-01  9.21D-01
                    CP:  6.48D-01  9.55D-01  8.62D-01  9.28D-01  9.70D-01
                    CP:  9.76D-01
 E= -944.800066610524     Delta-E=       -0.000000000598 Rises=F Damp=F
 DIIS: error= 2.94D-07 at cycle  12 NSaved=  12.
 NSaved=12 IEnMin=12 EnMin= -944.800066610524     IErMin=12 ErrMin= 2.94D-07
 ErrMax= 2.94D-07  0.00D+00 EMaxC= 1.00D-01 BMatC= 7.56D-11 BMatP= 6.04D-10
 IDIUse=1 WtCom= 1.00D+00 WtEn= 0.00D+00
 Coeff-Com: -0.373D-05 0.115D-04-0.316D-04 0.115D-04-0.512D-04-0.247D-03
 Coeff-Com: -0.409D-02-0.820D-02-0.935D-02 0.740D-01 0.337D+00 0.610D+00
 Coeff:     -0.373D-05 0.115D-04-0.316D-04 0.115D-04-0.512D-04-0.247D-03
 Coeff:     -0.409D-02-0.820D-02-0.935D-02 0.740D-01 0.337D+00 0.610D+00
 Gap=     0.125 Goal=   None    Shift=    0.000
 RMSDP=1.22D-08 MaxDP=9.77D-07 DE=-5.98D-10 OVMax= 2.45D-06

 Cycle  13  Pass 1  IDiag  1:
 RMSU=  9.70D-09    CP:  9.52D-01  8.98D-01  8.06D-01  3.55D-01  9.21D-01
                    CP:  6.49D-01  9.55D-01  8.62D-01  9.31D-01  9.86D-01
                    CP:  9.77D-01  9.21D-01
 E= -944.800066610592     Delta-E=       -0.000000000068 Rises=F Damp=F
 DIIS: error= 9.08D-08 at cycle  13 NSaved=  13.
 NSaved=13 IEnMin=13 EnMin= -944.800066610592     IErMin=13 ErrMin= 9.08D-08
 ErrMax= 9.08D-08  0.00D+00 EMaxC= 1.00D-01 BMatC= 5.37D-12 BMatP= 7.56D-11
 IDIUse=1 WtCom= 1.00D+00 WtEn= 0.00D+00
 Coeff-Com: -0.117D-05 0.338D-05 0.363D-05-0.154D-05 0.430D-04-0.642D-04
 Coeff-Com: -0.162D-02-0.309D-02-0.834D-02 0.118D-01 0.964D-01 0.278D+00
 Coeff-Com:  0.627D+00
 Coeff:     -0.117D-05 0.338D-05 0.363D-05-0.154D-05 0.430D-04-0.642D-04
 Coeff:     -0.162D-02-0.309D-02-0.834D-02 0.118D-01 0.964D-01 0.278D+00
 Coeff:      0.627D+00
 Gap=     0.125 Goal=   None    Shift=    0.000
 RMSDP=3.49D-09 MaxDP=2.13D-07 DE=-6.78D-11 OVMax= 6.94D-07

 Error on total polarization charges =  0.06672
 SCF Done:  E(RB3LYP) =  -944.800066611     A.U. after   13 cycles
            NFock= 13  Conv=0.35D-08     -V/T= 2.0061
 KE= 9.390840421817D+02 PE=-6.142049675678D+03 EE= 2.271175674690D+03
 SMD-CDS (non-electrostatic) energy       (kcal/mol) =      -4.67
 (included in total energy above)
 Leave Link  502 at Fri Feb 25 05:18:39 2022, MaxMem=  5242880000 cpu:     14639.7
 (Enter /opt/nce/packages/global/g09/l601.exe)
 Copying SCF densities to generalized density rwf, IOpCl= 0 IROHF=0.

 **********************************************************************

            Population analysis using the SCF density.

 **********************************************************************

 Alpha  occ. eigenvalues --  -14.41960 -10.26218 -10.26215 -10.23930 -10.21976
 Alpha  occ. eigenvalues --  -10.21975 -10.21680 -10.20416 -10.20415 -10.19993
 Alpha  occ. eigenvalues --  -10.19992 -10.19853 -10.19853 -10.19367 -10.19366
 Alpha  occ. eigenvalues --  -10.19219 -10.19204 -10.18942 -10.18630 -10.17030
 Alpha  occ. eigenvalues --  -10.17004 -10.16603 -10.16597 -10.16388  -1.02334
 Alpha  occ. eigenvalues --   -0.89687  -0.88545  -0.86594  -0.83264  -0.79091
 Alpha  occ. eigenvalues --   -0.78628  -0.78611  -0.77293  -0.76131  -0.73569
 Alpha  occ. eigenvalues --   -0.70071  -0.69675  -0.68001  -0.67169  -0.66687
 Alpha  occ. eigenvalues --   -0.61877  -0.61627  -0.57935  -0.57930  -0.57826
 Alpha  occ. eigenvalues --   -0.56243  -0.53714  -0.50302  -0.50169  -0.49776
 Alpha  occ. eigenvalues --   -0.48781  -0.48663  -0.48387  -0.46582  -0.45402
 Alpha  occ. eigenvalues --   -0.45062  -0.44688  -0.43139  -0.42579  -0.41933
 Alpha  occ. eigenvalues --   -0.41484  -0.41053  -0.40961  -0.40556  -0.40461
 Alpha  occ. eigenvalues --   -0.39907  -0.39875  -0.39149  -0.39069  -0.37366
 Alpha  occ. eigenvalues --   -0.36883  -0.36545  -0.36464  -0.35235  -0.34345
 Alpha  occ. eigenvalues --   -0.33874  -0.33631  -0.32229  -0.28688  -0.27545
 Alpha  occ. eigenvalues --   -0.24771  -0.24504  -0.24454
 Alpha virt. eigenvalues --   -0.11977  -0.05092  -0.03005  -0.02072  -0.01414
 Alpha virt. eigenvalues --   -0.01186   0.02254   0.03321   0.04799   0.04910
 Alpha virt. eigenvalues --    0.05991   0.06056   0.06548   0.07740   0.08045
 Alpha virt. eigenvalues --    0.08281   0.08752   0.09079   0.09589   0.10496
 Alpha virt. eigenvalues --    0.10874   0.10971   0.11535   0.11777   0.12328
 Alpha virt. eigenvalues --    0.12565   0.12699   0.12912   0.13527   0.13930
 Alpha virt. eigenvalues --    0.14130   0.14251   0.14941   0.15105   0.15286
 Alpha virt. eigenvalues --    0.16924   0.17150   0.17279   0.17436   0.18092
 Alpha virt. eigenvalues --    0.18561   0.19219   0.19450   0.19711   0.20189
 Alpha virt. eigenvalues --    0.20600   0.20946   0.21759   0.22039   0.22149
 Alpha virt. eigenvalues --    0.22413   0.22840   0.23030   0.23385   0.24110
 Alpha virt. eigenvalues --    0.24411   0.24456   0.25552   0.26642   0.26755
 Alpha virt. eigenvalues --    0.26950   0.27415   0.27488   0.27920   0.28125
 Alpha virt. eigenvalues --    0.28808   0.29103   0.29320   0.29615   0.30061
 Alpha virt. eigenvalues --    0.30415   0.31013   0.31337   0.32110   0.32615
 Alpha virt. eigenvalues --    0.33036   0.33290   0.33765   0.34203   0.34694
 Alpha virt. eigenvalues --    0.34917   0.35174   0.35902   0.36197   0.36548
 Alpha virt. eigenvalues --    0.37022   0.37107   0.37625   0.37687   0.38758
 Alpha virt. eigenvalues --    0.39045   0.39356   0.39552   0.39943   0.40158
 Alpha virt. eigenvalues --    0.40770   0.40984   0.41329   0.41462   0.41864
 Alpha virt. eigenvalues --    0.42343   0.42634   0.43015   0.43501   0.43714
 Alpha virt. eigenvalues --    0.44566   0.44729   0.44821   0.45024   0.45625
 Alpha virt. eigenvalues --    0.45889   0.46279   0.46571   0.46874   0.47386
 Alpha virt. eigenvalues --    0.47495   0.48192   0.48523   0.48838   0.49188
 Alpha virt. eigenvalues --    0.49693   0.49895   0.50150   0.50307   0.50800
 Alpha virt. eigenvalues --    0.51101   0.51957   0.52643   0.52844   0.53516
 Alpha virt. eigenvalues --    0.53939   0.54229   0.54899   0.55748   0.55914
 Alpha virt. eigenvalues --    0.56058   0.57093   0.57925   0.58035   0.58822
 Alpha virt. eigenvalues --    0.59214   0.59707   0.59879   0.60597   0.62376
 Alpha virt. eigenvalues --    0.62835   0.63237   0.63764   0.64688   0.64788
 Alpha virt. eigenvalues --    0.65008   0.65031   0.65745   0.66615   0.66991
 Alpha virt. eigenvalues --    0.67734   0.68560   0.68733   0.69012   0.69482
 Alpha virt. eigenvalues --    0.70710   0.70987   0.71375   0.71594   0.71996
 Alpha virt. eigenvalues --    0.72666   0.72844   0.73664   0.74129   0.75055
 Alpha virt. eigenvalues --    0.75267   0.75890   0.75938   0.76278   0.76670
 Alpha virt. eigenvalues --    0.77565   0.77656   0.78435   0.79219   0.79547
 Alpha virt. eigenvalues --    0.80821   0.80897   0.82417   0.82659   0.82884
 Alpha virt. eigenvalues --    0.84006   0.84662   0.84986   0.85421   0.85553
 Alpha virt. eigenvalues --    0.86354   0.86620   0.87596   0.87829   0.87933
 Alpha virt. eigenvalues --    0.89416   0.89888   0.90904   0.91341   0.92268
 Alpha virt. eigenvalues --    0.92315   0.93018   0.94025   0.94232   0.96188
 Alpha virt. eigenvalues --    0.97009   0.97469   0.97883   0.98218   0.98630
 Alpha virt. eigenvalues --    0.99771   1.01706   1.02161   1.02863   1.03413
 Alpha virt. eigenvalues --    1.03930   1.04141   1.06273   1.06603   1.07074
 Alpha virt. eigenvalues --    1.07518   1.07767   1.08740   1.08867   1.09622
 Alpha virt. eigenvalues --    1.10211   1.11304   1.11445   1.12330   1.12873
 Alpha virt. eigenvalues --    1.13654   1.14202   1.14297   1.14919   1.15181
 Alpha virt. eigenvalues --    1.15696   1.15996   1.17052   1.18996   1.19967
 Alpha virt. eigenvalues --    1.20622   1.21147   1.21333   1.22127   1.22817
 Alpha virt. eigenvalues --    1.23988   1.24317   1.24522   1.25631   1.25783
 Alpha virt. eigenvalues --    1.26750   1.27244   1.28007   1.28517   1.29305
 Alpha virt. eigenvalues --    1.29880   1.30607   1.31281   1.31995   1.32411
 Alpha virt. eigenvalues --    1.34969   1.35385   1.35510   1.36823   1.37802
 Alpha virt. eigenvalues --    1.39216   1.39577   1.39583   1.41551   1.41906
 Alpha virt. eigenvalues --    1.42207   1.43222   1.43378   1.45035   1.45741
 Alpha virt. eigenvalues --    1.46112   1.46600   1.46786   1.48324   1.48640
 Alpha virt. eigenvalues --    1.49207   1.49303   1.50337   1.50535   1.51478
 Alpha virt. eigenvalues --    1.51879   1.52099   1.52613   1.52790   1.53255
 Alpha virt. eigenvalues --    1.53558   1.54281   1.55017   1.55535   1.56180
 Alpha virt. eigenvalues --    1.56624   1.56654   1.56913   1.57454   1.58673
 Alpha virt. eigenvalues --    1.59381   1.59604   1.60408   1.60657   1.61547
 Alpha virt. eigenvalues --    1.61685   1.61955   1.62403   1.62622   1.63254
 Alpha virt. eigenvalues --    1.64295   1.65262   1.65595   1.65735   1.66354
 Alpha virt. eigenvalues --    1.66657   1.68243   1.68437   1.68635   1.69061
 Alpha virt. eigenvalues --    1.69754   1.70699   1.70872   1.71201   1.72569
 Alpha virt. eigenvalues --    1.72691   1.73269   1.73824   1.74607   1.75821
 Alpha virt. eigenvalues --    1.76431   1.77165   1.77555   1.77810   1.80748
 Alpha virt. eigenvalues --    1.81275   1.82018   1.82317   1.83837   1.84721
 Alpha virt. eigenvalues --    1.85233   1.85524   1.86524   1.87434   1.88570
 Alpha virt. eigenvalues --    1.89522   1.89999   1.92843   1.94219   1.96001
 Alpha virt. eigenvalues --    1.96242   1.96641   1.96896   1.97205   1.97848
 Alpha virt. eigenvalues --    1.98573   1.99405   2.00063   2.00408   2.01336
 Alpha virt. eigenvalues --    2.01748   2.02716   2.02999   2.04459   2.04764
 Alpha virt. eigenvalues --    2.06080   2.07891   2.09428   2.09660   2.09791
 Alpha virt. eigenvalues --    2.09988   2.10768   2.11982   2.13078   2.13694
 Alpha virt. eigenvalues --    2.13910   2.14800   2.15626   2.15884   2.17081
 Alpha virt. eigenvalues --    2.17153   2.17536   2.19320   2.20046   2.20398
 Alpha virt. eigenvalues --    2.21034   2.22260   2.22492   2.22977   2.23449
 Alpha virt. eigenvalues --    2.25471   2.25703   2.25878   2.27061   2.28912
 Alpha virt. eigenvalues --    2.30300   2.30518   2.30847   2.32255   2.33320
 Alpha virt. eigenvalues --    2.34692   2.35325   2.35910   2.36347   2.38166
 Alpha virt. eigenvalues --    2.38244   2.39463   2.39739   2.40433   2.41895
 Alpha virt. eigenvalues --    2.42228   2.42662   2.43978   2.44194   2.44658
 Alpha virt. eigenvalues --    2.45917   2.47440   2.48325   2.49466   2.49667
 Alpha virt. eigenvalues --    2.49967   2.50874   2.51614   2.51884   2.52658
 Alpha virt. eigenvalues --    2.53356   2.53943   2.54146   2.54904   2.55869
 Alpha virt. eigenvalues --    2.56020   2.56549   2.57630   2.58233   2.58337
 Alpha virt. eigenvalues --    2.59061   2.59899   2.60055   2.60474   2.60613
 Alpha virt. eigenvalues --    2.61262   2.62205   2.62869   2.63926   2.64220
 Alpha virt. eigenvalues --    2.64548   2.65270   2.65703   2.66420   2.67892
 Alpha virt. eigenvalues --    2.68473   2.69177   2.69584   2.69743   2.69852
 Alpha virt. eigenvalues --    2.70862   2.71455   2.72013   2.72886   2.73751
 Alpha virt. eigenvalues --    2.74234   2.74786   2.75061   2.75731   2.76126
 Alpha virt. eigenvalues --    2.76793   2.77315   2.77516   2.77777   2.78946
 Alpha virt. eigenvalues --    2.79996   2.80535   2.81489   2.81580   2.82190
 Alpha virt. eigenvalues --    2.83209   2.83696   2.84723   2.84984   2.85780
 Alpha virt. eigenvalues --    2.86205   2.86752   2.87856   2.88224   2.89405
 Alpha virt. eigenvalues --    2.89772   2.90831   2.91024   2.92145   2.92429
 Alpha virt. eigenvalues --    2.93163   2.93719   2.93810   2.94381   2.94784
 Alpha virt. eigenvalues --    2.95528   2.96190   2.96567   2.97925   2.98157
[...]
    42  H    0.000000  -0.000000  -0.000035  -0.000002  -0.000000  -0.000000
    43  C    0.000000   0.000000  -0.000012   0.000000   0.000000   0.000000
    44  H   -0.000000  -0.000000   0.000002   0.000000   0.000000  -0.000000
    45  H    0.000000  -0.000000  -0.000001   0.000000  -0.000000  -0.000000
    46  H    0.000000   0.000000  -0.000008   0.000000   0.000000  -0.000000
              25         26         27         28         29         30
     1  C   -0.000168   0.003527   0.000305   0.000154  -0.000025  -0.000003
     2  C    0.005475  -0.005002  -0.004047  -0.000331   0.000158   0.000015
     3  C   -0.004696  -0.015061   0.038144   0.001558   0.003275  -0.000119
     4  C   -0.002561  -0.000147  -0.214963   0.008742   0.010435  -0.000124
     5  C   -0.000152   0.000359  -0.066194   0.004979   0.002158   0.000805
     6  C    0.000078  -0.000539  -0.006672   0.000379   0.000271  -0.000064
     7  C    0.000821  -0.000360  -0.167589  -0.158419  -0.153597   0.023158
     8  C   -0.002560   0.001130  -0.214148   0.007273   0.008551  -0.000141
     9  C   -0.004673   0.011865   0.038033   0.001356   0.003095  -0.000157
    10  C    0.005462   0.000214  -0.004012  -0.000307   0.000174   0.000018
    11  H   -0.000003   0.000759   0.000023  -0.000004  -0.000000   0.000000
    12  C   -0.000169  -0.000104   0.000279   0.000133  -0.000036  -0.000005
    13  C    0.000078   0.000007  -0.006670   0.000503   0.000345  -0.000043
    14  C   -0.000152   0.000001  -0.066816   0.005160   0.002511   0.000843
    15  H   -0.000007   0.000048  -0.000004   0.000000  -0.000000  -0.000000
    16  H   -0.000003  -0.006650   0.000023  -0.000004  -0.000001   0.000000
    17  H   -0.000001   0.000002  -0.004678   0.003229   0.003194   0.001080
    18  H    0.000000  -0.000000   0.000140  -0.000013  -0.000011   0.000004
    19  H   -0.000007  -0.000001  -0.000004   0.000000  -0.000000  -0.000000
    20  H    0.000000  -0.000000   0.000144  -0.000012  -0.000011   0.000004
    21  H   -0.000001  -0.000000  -0.005320   0.003039   0.002998   0.001240
    22  N   -0.033682  -0.022284  -0.002560   0.000203   0.000122  -0.000003
    23  C    0.414668   0.401565   0.000353  -0.000003   0.000002  -0.000000
    24  H   -0.024886  -0.017280   0.000009   0.000002  -0.000004  -0.000000
    25  H    0.492475  -0.024900  -0.000014  -0.000002   0.000002   0.000000
    26  H   -0.024900   0.497786   0.000009   0.000002  -0.000004  -0.000000
    27  C   -0.000014   0.000009   6.610134   0.182772   0.182482   0.021231
    28  C   -0.000002   0.000002   0.182772   5.387352   0.107422   0.361912
    29  C    0.000002  -0.000004   0.182482   0.107422   5.367039  -0.118561
    30  C    0.000000  -0.000000   0.021231   0.361912  -0.118561   5.279385
    31  C   -0.000000   0.000000   0.032841  -0.122761   0.353262   0.007557
    32  C   -0.000000   0.000000  -0.151567   0.064735   0.078626   0.398536
    33  H   -0.000000   0.000000   0.022566  -0.064186  -0.006701   0.451538
    34  H    0.000000  -0.000000   0.024439  -0.007275  -0.072710   0.016323
    35  C   -0.000001   0.000005  -0.062069   0.021653   0.259934  -0.004038
    36  H    0.000001  -0.000003  -0.008482   0.001111  -0.039089  -0.000169
    37  H    0.000001  -0.000005  -0.009065   0.001068  -0.038911  -0.000091
    38  H   -0.000000   0.000000   0.014183  -0.001123  -0.067073   0.000717
    39  C    0.000002  -0.000001  -0.059651   0.250672   0.019359  -0.062275
    40  H   -0.000002   0.000001  -0.009083  -0.037701   0.001154  -0.004391
    41  H   -0.000002   0.000000  -0.008670  -0.037763   0.001249  -0.003853
    42  H    0.000000  -0.000000   0.013204  -0.068583  -0.000973  -0.000566
    43  C   -0.000000   0.000000  -0.004384   0.019408   0.012337  -0.072086
    44  H   -0.000000  -0.000000  -0.000423  -0.000635  -0.000098  -0.006676
    45  H    0.000000  -0.000000   0.000975   0.000838  -0.000815   0.000616
    46  H   -0.000000  -0.000000   0.000186  -0.000919   0.000083   0.001609
              31         32         33         34         35         36
     1  C   -0.000001   0.000000   0.000000   0.000000   0.000127  -0.000014
     2  C    0.000011  -0.000003   0.000000   0.000000  -0.000268   0.000019
     3  C   -0.000277   0.000077  -0.000003  -0.000001   0.002777   0.000002
     4  C   -0.000435   0.000663   0.000024   0.000013  -0.001558  -0.005782
     5  C    0.001174  -0.000289  -0.000019  -0.000014  -0.003407   0.000398
     6  C   -0.000011  -0.000031  -0.000002  -0.000002  -0.000687   0.000078
     7  C    0.027429  -0.014000   0.000030  -0.000050  -0.042924  -0.005834
     8  C   -0.000614   0.000579   0.000020   0.000004  -0.001563   0.002922
     9  C   -0.000309   0.000089  -0.000004  -0.000002   0.002812   0.002176
    10  C    0.000012  -0.000003   0.000000   0.000000  -0.000273  -0.000169
    11  H   -0.000000  -0.000000  -0.000000  -0.000000  -0.000003  -0.000000
    12  C   -0.000002   0.000001   0.000000   0.000000   0.000126   0.000038
    13  C    0.000001  -0.000030  -0.000002  -0.000001  -0.000688   0.000180
    14  C    0.001209  -0.000319  -0.000019  -0.000012  -0.003421  -0.000416
    15  H   -0.000000  -0.000000   0.000000   0.000000   0.000000  -0.000000
    16  H   -0.000000  -0.000000  -0.000000  -0.000000  -0.000003   0.000001
    17  H    0.000545   0.000569  -0.000002  -0.000005   0.000510  -0.000067
    18  H    0.000004  -0.000003   0.000000   0.000000  -0.000003   0.000000
    19  H   -0.000000  -0.000000   0.000000   0.000000   0.000000  -0.000002
    20  H    0.000004  -0.000003   0.000000   0.000000  -0.000004  -0.000001
    21  H    0.000732   0.000607  -0.000005  -0.000008   0.000519   0.000492
    22  N   -0.000004  -0.000000   0.000000   0.000000  -0.000098   0.000095
    23  C   -0.000000   0.000000  -0.000000  -0.000000   0.000012   0.000006
    24  H    0.000000   0.000000   0.000000  -0.000000   0.000005  -0.000005
    25  H   -0.000000  -0.000000  -0.000000   0.000000  -0.000001   0.000001
    26  H    0.000000   0.000000   0.000000  -0.000000   0.000005  -0.000003
    27  C    0.032841  -0.151567   0.022566   0.024439  -0.062069  -0.008482
    28  C   -0.122761   0.064735  -0.064186  -0.007275   0.021653   0.001111
    29  C    0.353262   0.078626  -0.006701  -0.072710   0.259934  -0.039089
    30  C    0.007557   0.398536   0.451538   0.016323  -0.004038  -0.000169
    31  C    5.315164   0.335274   0.016775   0.467972  -0.070085  -0.003511
    32  C    0.335274   5.079640  -0.063056  -0.073205   0.014371  -0.000271
    33  H    0.016775  -0.063056   0.524031  -0.000105   0.000062  -0.000004
    34  H    0.467972  -0.073205  -0.000105   0.528131  -0.012450   0.000082
    35  C   -0.070085   0.014371   0.000062  -0.012450   5.052396   0.419430
    36  H   -0.003511  -0.000271  -0.000004   0.000082   0.419430   0.542848
    37  H   -0.004500  -0.000037  -0.000003   0.000072   0.421194  -0.032780
    38  H   -0.000723  -0.000027   0.000001   0.005757   0.424844  -0.021426
    39  C   -0.003363   0.014212  -0.011592   0.000059   0.000003   0.000079
    40  H   -0.000110   0.000005   0.000034  -0.000004   0.000067   0.000012
    41  H   -0.000228  -0.000238   0.000084  -0.000004   0.000075  -0.000031
    42  H    0.000668   0.000415   0.005414   0.000000   0.000017  -0.000000
    43  C   -0.075384   0.293445  -0.009187  -0.007089  -0.000369   0.000026
    44  H   -0.003087  -0.026152   0.000115   0.000536   0.000033   0.000002
    45  H    0.009655  -0.072629   0.004168   0.000123   0.000004  -0.000000
    46  H   -0.003023  -0.045262   0.000080   0.001213  -0.000037  -0.000004
              37         38         39         40         41         42
     1  C    0.000038  -0.000001  -0.000059   0.000043  -0.000016  -0.000001
     2  C   -0.000168   0.000003   0.000115  -0.000207  -0.000015   0.000004
     3  C    0.002101  -0.000100   0.003003   0.001662  -0.000382  -0.000091
     4  C    0.002939  -0.000182  -0.002547   0.003773  -0.005464   0.000018
     5  C   -0.000335   0.000011  -0.005159  -0.000856   0.000391  -0.000003
     6  C    0.000173  -0.000003  -0.000263   0.000543   0.000081  -0.000015
     7  C   -0.005941  -0.000411  -0.034832  -0.006443  -0.006645  -0.000655
     8  C   -0.005756  -0.000179  -0.002695  -0.005489   0.003876   0.000019
     9  C   -0.000025  -0.000100   0.003011  -0.000363   0.001656  -0.000090
    10  C    0.000018   0.000003   0.000108  -0.000014  -0.000216   0.000004
    11  H    0.000001   0.000000  -0.000000   0.000000  -0.000003   0.000000
    12  C   -0.000014  -0.000001  -0.000055  -0.000016   0.000052  -0.000001
    13  C    0.000078  -0.000004  -0.000266   0.000083   0.000511  -0.000015
    14  C    0.000403   0.000011  -0.005084   0.000377  -0.000799  -0.000005
    15  H   -0.000002   0.000000  -0.000001  -0.000002   0.000000   0.000000
    16  H   -0.000000   0.000000   0.000000  -0.000003   0.000000   0.000000
    17  H    0.000465  -0.000044   0.000179   0.000334  -0.000069  -0.000034
    18  H   -0.000001   0.000000   0.000003   0.000005   0.000000  -0.000000
    19  H   -0.000000   0.000000  -0.000001   0.000000  -0.000002   0.000000
    20  H    0.000000   0.000000   0.000003   0.000000   0.000004  -0.000000
    21  H   -0.000069  -0.000044   0.000204  -0.000071   0.000368  -0.000035
    22  N    0.000097  -0.000002  -0.000164   0.000069   0.000069  -0.000002
    23  C    0.000006  -0.000000   0.000007   0.000003   0.000003  -0.000000
    24  H   -0.000003   0.000000  -0.000001   0.000000   0.000001  -0.000000
    25  H    0.000001  -0.000000   0.000002  -0.000002  -0.000002   0.000000
    26  H   -0.000005   0.000000  -0.000001   0.000001   0.000000  -0.000000
    27  C   -0.009065   0.014183  -0.059651  -0.009083  -0.008670   0.013204
    28  C    0.001068  -0.001123   0.250672  -0.037701  -0.037763  -0.068583
    29  C   -0.038911  -0.067073   0.019359   0.001154   0.001249  -0.000973
    30  C   -0.000091   0.000717  -0.062275  -0.004391  -0.003853  -0.000566
    31  C   -0.004500  -0.000723  -0.003363  -0.000110  -0.000228   0.000668
    32  C   -0.000037  -0.000027   0.014212   0.000005  -0.000238   0.000415
    33  H   -0.000003   0.000001  -0.011592   0.000034   0.000084   0.005414
    34  H    0.000072   0.005757   0.000059  -0.000004  -0.000004   0.000000
    35  C    0.421194   0.424844   0.000003   0.000067   0.000075   0.000017
    36  H   -0.032780  -0.021426   0.000079   0.000012  -0.000031  -0.000000
    37  H    0.542354  -0.021483   0.000076  -0.000031   0.000012   0.000000
    38  H   -0.021483   0.527666   0.000017  -0.000000  -0.000000  -0.000001
    39  C    0.000076   0.000017   5.050109   0.420308   0.419380   0.427097
    40  H   -0.000031  -0.000000   0.420308   0.542211  -0.032524  -0.021678
    41  H    0.000012  -0.000000   0.419380  -0.032524   0.542495  -0.021637
    42  H    0.000000  -0.000001   0.427097  -0.021678  -0.021637   0.527435
    43  C    0.000014  -0.000142  -0.000885   0.000018   0.000029  -0.000107
    44  H   -0.000003   0.000001   0.000044  -0.000001  -0.000000  -0.000001
    45  H   -0.000001   0.000002  -0.000192   0.000003  -0.000001   0.000023
    46  H    0.000004   0.000006   0.000022  -0.000001  -0.000000   0.000001
              43         44         45         46
     1  C    0.000000   0.000000   0.000000  -0.000000
     2  C   -0.000000  -0.000000   0.000000   0.000000
     3  C    0.000000   0.000000  -0.000000  -0.000000
     4  C   -0.000010   0.000003  -0.000001   0.000001
     5  C    0.000008  -0.000005   0.000000  -0.000000
     6  C   -0.000000  -0.000000  -0.000000  -0.000000
     7  C    0.000205  -0.000044   0.000015  -0.000020
     8  C   -0.000019   0.000001  -0.000000   0.000002
     9  C    0.000000  -0.000000  -0.000000   0.000000
    10  C   -0.000000   0.000000   0.000000  -0.000000
    11  H    0.000000  -0.000000   0.000000   0.000000
    12  C    0.000000  -0.000000   0.000000   0.000000
    13  C   -0.000000   0.000000  -0.000000  -0.000000
    14  C    0.000014  -0.000000   0.000000  -0.000002
    15  H    0.000000   0.000000  -0.000000  -0.000000
    16  H   -0.000000   0.000000   0.000000  -0.000000
    17  H   -0.000005  -0.000009   0.000000   0.000002
    18  H    0.000000   0.000000  -0.000000  -0.000000
    19  H    0.000000  -0.000000   0.000000   0.000000
    20  H    0.000000  -0.000000  -0.000000   0.000000
    21  H   -0.000012   0.000002  -0.000001  -0.000008
    22  N    0.000000   0.000000   0.000000   0.000000
    23  C    0.000000   0.000000  -0.000000   0.000000
    24  H    0.000000  -0.000000  -0.000000  -0.000000
    25  H   -0.000000  -0.000000   0.000000  -0.000000
    26  H    0.000000  -0.000000  -0.000000  -0.000000
    27  C   -0.004384  -0.000423   0.000975   0.000186
    28  C    0.019408  -0.000635   0.000838  -0.000919
    29  C    0.012337  -0.000098  -0.000815   0.000083
    30  C   -0.072086  -0.006676   0.000616   0.001609
    31  C   -0.075384  -0.003087   0.009655  -0.003023
    32  C    0.293445  -0.026152  -0.072629  -0.045262
    33  H   -0.009187   0.000115   0.004168   0.000080
    34  H   -0.007089   0.000536   0.000123   0.001213
    35  C   -0.000369   0.000033   0.000004  -0.000037
    36  H    0.000026   0.000002  -0.000000  -0.000004
    37  H    0.000014  -0.000003  -0.000001   0.000004
    38  H   -0.000142   0.000001   0.000002   0.000006
    39  C   -0.000885   0.000044  -0.000192   0.000022
    40  H    0.000018  -0.000001   0.000003  -0.000001
    41  H    0.000029  -0.000000  -0.000001  -0.000000
    42  H   -0.000107  -0.000001   0.000023   0.000001
    43  C    4.999140   0.396021   0.435031   0.413206
    44  H    0.396021   0.554915  -0.022344  -0.030282
    45  H    0.435031  -0.022344   0.531991  -0.023847
    46  H    0.413206  -0.030282  -0.023847   0.550134
 Mulliken charges:
               1
     1  C   -0.100206
     2  C   -0.222091
     3  C    0.110533
     4  C    0.118813
     5  C   -0.210542
     6  C   -0.134912
     7  C    0.319460
     8  C    0.119461
     9  C    0.110017
    10  C   -0.221903
    11  H    0.170386
    12  C   -0.100425
    13  C   -0.134745
    14  C   -0.211394
    15  H    0.166877
    16  H    0.170437
    17  H    0.173724
    18  H    0.160697
    19  H    0.166866
    20  H    0.160687
    21  H    0.174135
    22  N    0.056043
    23  C   -0.306134
    24  H    0.175049
    25  H    0.179579
    26  H    0.175063
    27  C   -0.105390
    28  C    0.064386
    29  C    0.078384
    30  C   -0.293227
    31  C   -0.281859
    32  C    0.165280
    33  H    0.129948
    34  H    0.128209
    35  C   -0.417029
    36  H    0.148063
    37  H    0.148111
    38  H    0.139847
    39  C   -0.418989
    40  H    0.148282
    41  H    0.148227
    42  H    0.140173
    43  C   -0.399221
    44  H    0.138087
    45  H    0.136385
    46  H    0.136856
 Sum of Mulliken charges =   1.00000
 Mulliken charges with hydrogens summed into heavy atoms:
               1
     1  C    0.066671
     2  C   -0.051654
     3  C    0.110533
     4  C    0.118813
     5  C   -0.036817
     6  C    0.025785
     7  C    0.319460
     8  C    0.119461
     9  C    0.110017
    10  C   -0.051516
    12  C    0.066440
    13  C    0.025942
    14  C   -0.037259
    22  N    0.056043
    23  C    0.223557
    27  C   -0.105390
    28  C    0.064386
    29  C    0.078384
    30  C   -0.163279
    31  C   -0.153650
    32  C    0.165280
    35  C    0.018992
    39  C    0.017694
    43  C    0.012107
 Electronic spatial extent (au):  <R**2>=           7355.2383
 Charge=              1.0000 electrons
 Dipole moment (field-independent basis, Debye):
    X=              8.9547    Y=              0.0331    Z=              0.1102  Tot=              8.9554
 Quadrupole moment (field-independent basis, Debye-Ang):
   XX=            -81.0163   YY=           -105.3209   ZZ=           -136.2487
   XY=             -0.1203   XZ=              0.8428   YZ=              0.0033
 Traceless Quadrupole moment (field-independent basis, Debye-Ang):
   XX=             26.5123   YY=              2.2077   ZZ=            -28.7201
   XY=             -0.1203   XZ=              0.8428   YZ=              0.0033
 Octapole moment (field-independent basis, Debye-Ang**2):
  XXX=            146.5751  YYY=              0.5856  ZZZ=              1.8055  XYY=             74.6779
  XXY=              0.6835  XXZ=              6.7605  XZZ=            -18.3749  YZZ=             -0.3624
  YYZ=             -6.4741  XYZ=              0.0624
 Hexadecapole moment (field-independent basis, Debye-Ang**3):
 XXXX=          -4867.1764 YYYY=          -2385.0610 ZZZZ=           -976.1911 XXXY=             -2.8037
 XXXZ=             19.4398 YYYX=             -2.5600 YYYZ=              0.4533 ZZZX=              5.4703
 ZZZY=             -0.2498 XXYY=          -1333.8752 XXZZ=          -1122.7400 YYZZ=           -745.9921
 XXYZ=             -0.0507 YYXZ=            -13.1451 ZZXY=              2.1685
 N-N= 1.995459484420D+03 E-N=-6.159426795760D+03  KE= 9.397216929728D+02
 Leave Link  601 at Fri Feb 25 16:07:37 2022, MaxMem=  5242880000 cpu:         4.9
 (Enter /opt/nce/packages/global/g09/l9999.exe)
 1\1\GINC-CN081\SP\RB3LYP TD-FC\Gen\C23H22N1(1+)\PNG4RJV\25-Feb-2022\0\
 \#p b3lyp chkbasis geom=allcheck Guess=Read int=ultrafine scrf=(SMD,so
 lvent=Acetonitrile) td=(NStates=30) EmpiricalDispersion=GD3BJ\\Title\\
 1,1\C,0,2.2342430863,3.6042429308,-0.1141534721\C,0,2.9282642361,2.424
 1818954,-0.0530086533\C,0,2.2338878474,1.1956844713,0.0162969726\C,0,0
 .8046471532,1.2093932002,-0.0094418305\C,0,0.129341453,2.4594065233,-0
 .0560456243\C,0,0.8237823691,3.6317644626,-0.1032414133\C,0,0.09515179
 1,-0.000063044,0.0026596191\C,0,0.8065770592,-1.2083558032,-0.01278517
 84\C,0,2.2357928573,-1.192517591,0.0135273387\C,0,2.9320345804,-2.4198
 318277,-0.0579852996\H,0,4.0080744542,-2.4437579494,-0.0913507143\C,0,
 2.2398107448,-3.600782034,-0.1221585474\C,0,0.8293860501,-3.6304518532
 ,-0.1123835217\C,0,0.1331657896,-2.4592546738,-0.0629083444\H,0,2.7855
 60505,4.533141222,-0.1787004531\H,0,4.0042491882,2.4497315905,-0.08702
 58412\H,0,-0.9505481325,2.4558813794,-0.0627770424\H,0,0.3024469791,4.
 5782512594,-0.1442248119\H,0,2.7925624038,-4.5287147709,-0.1883178793\
 H,0,0.3095136117,-4.5776257084,-0.155973077\H,0,-0.9467288848,-2.45734
 50027,-0.0703173784\N,0,2.898987764,0.0020205831,0.095070086\C,0,4.361
 8251796,0.0030953518,0.2619952045\H,0,4.6590916773,-0.8710083544,0.827
 4565105\H,0,4.854245747,0.0048844626,-0.7099309427\H,0,4.657463298,0.8
 761798067,0.829896649\C,0,-1.3916000938,-0.0011858471,0.011915033\C,0,
 -2.0934379378,0.0000179692,-1.1995701814\C,0,-2.0715463464,-0.00605321
 56,1.2390288445\C,0,-3.4871253992,-0.0028024474,-1.1624759708\C,0,-3.4
 627640869,-0.0087660197,1.2292282756\C,0,-4.189322499,-0.0058050617,0.
 0390702261\H,0,-4.0336975868,-0.0036188278,-2.0984105357\H,0,-3.991147
 1128,-0.0142006084,2.1759432904\C,0,-1.317252038,-0.0103100327,2.53968
 88857\H,0,-0.6741491629,-0.8898831675,2.6223869104\H,0,-0.6719932486,0
 .8672266521,2.6268747833\H,0,-2.0050337945,-0.0116453565,3.3843311143\
 C,0,-1.367140955,0.0022648685,-2.5159108027\H,0,-0.7253610158,0.881262
 2488,-2.613458818\H,0,-0.7244861839,-0.8758043236,-2.616126048\H,0,-2.
 0726708592,0.0032008684,-3.3457694147\C,0,-5.6923551207,0.0083821009,0
 .0607721771\H,0,-6.0672884577,0.9704545002,0.4211360813\H,0,-6.1037628
 193,-0.1598569712,-0.9346580915\H,0,-6.08463209,-0.7600348554,0.730440
 8864\\Version=ES64L-G09RevE.01\State=1-A\HF=-944.8021694\RMSD=9.346e-0
 9\PG=C01 [X(C23H22N1)]\\@


 WHAT, THEN, IS TIME?  IF NO ONE ASKS ME, I KNOW WHAT IT IS.
 IF I WISH TO EXPLAIN WHAT IT IS TO HIM WHO ASKS ME, I DO NOT KNOW.
                                   -- ST. AUGUSTINE (FIFTH CENTURY)
 Job cpu time:       1 days  4 hours 55 minutes 25.6 seconds.
 File lengths (MBytes):  RWF=   3792 Int=      0 D2E=      0 Chk=    685 Scr=      1
 Normal termination of Gaussian 09 at Fri Feb 25 16:07:39 2022.
