
                                 *****************
                                 * O   R   C   A *
                                 *****************

                                            #,                                       
                                            ###                                      
                                            ####                                     
                                            #####                                    
                                            ######                                   
                                           ########,                                 
                                     ,,################,,,,,                         
                               ,,#################################,,                 
                          ,,##########################################,,             
                       ,#########################################, ''#####,          
                    ,#############################################,,   '####,        
                  ,##################################################,,,,####,       
                ,###########''''           ''''###############################       
              ,#####''   ,,,,##########,,,,          '''####'''          '####       
            ,##' ,,,,###########################,,,                        '##       
           ' ,,###''''                  '''############,,,                           
         ,,##''                                '''############,,,,        ,,,,,,###''
      ,#''                                            '''#######################'''  
     '                                                          ''''####''''         
             ,#######,   #######,   ,#######,      ##                                
            ,#'     '#,  ##    ##  ,#'     '#,    #''#        ######   ,####,        
            ##       ##  ##   ,#'  ##            #'  '#       #        #'  '#        
            ##       ##  #######   ##           ,######,      #####,   #    #        
            '#,     ,#'  ##    ##  '#,     ,#' ,#      #,         ##   #,  ,#        
             '#######'   ##     ##  '#######'  #'      '#     #####' # '####'        



                  #######################################################
                  #                        -***-                        #
                  #          Department of theory and spectroscopy      #
                  #    Directorship and core code : Frank Neese         #
                  #        Max Planck Institute fuer Kohlenforschung    #
                  #                Kaiser Wilhelm Platz 1               #
                  #                 D-45470 Muelheim/Ruhr               #
                  #                      Germany                        #
                  #                                                     #
                  #                  All rights reserved                #
                  #                        -***-                        #
                  #######################################################


                         Program Version 5.0.2 -  RELEASE  -


 With contributions from (in alphabetic order):
   Daniel Aravena         : Magnetic Suceptibility
   Michael Atanasov       : Ab Initio Ligand Field Theory (pilot matlab implementation)
   Alexander A. Auer      : GIAO ZORA, VPT2 properties, NMR spectrum
   Ute Becker             : Parallelization
   Giovanni Bistoni       : ED, misc. LED, open-shell LED, HFLD
   Martin Brehm           : Molecular dynamics
   Dmytro Bykov           : SCF Hessian
   Vijay G. Chilkuri      : MRCI spin determinant printing, contributions to CSF-ICE
   Dipayan Datta          : RHF DLPNO-CCSD density
   Achintya Kumar Dutta   : EOM-CC, STEOM-CC
   Dmitry Ganyushin       : Spin-Orbit,Spin-Spin,Magnetic field MRCI
   Miquel Garcia          : C-PCM and meta-GGA Hessian, CC/C-PCM, Gaussian charge scheme
   Yang Guo               : DLPNO-NEVPT2, F12-NEVPT2, CIM, IAO-localization
   Andreas Hansen         : Spin unrestricted coupled pair/coupled cluster methods
   Benjamin Helmich-Paris : MC-RPA, TRAH-SCF, COSX integrals
   Lee Huntington         : MR-EOM, pCC
   Robert Izsak           : Overlap fitted RIJCOSX, COSX-SCS-MP3, EOM
   Marcus Kettner         : VPT2
   Christian Kollmar      : KDIIS, OOCD, Brueckner-CCSD(T), CCSD density, CASPT2, CASPT2-K
   Simone Kossmann        : Meta GGA functionals, TD-DFT gradient, OOMP2, MP2 Hessian
   Martin Krupicka        : Initial AUTO-CI
   Lucas Lang             : DCDCAS
   Marvin Lechner         : AUTO-CI (C++ implementation), FIC-MRCC
   Dagmar Lenk            : GEPOL surface, SMD
   Dimitrios Liakos       : Extrapolation schemes; Compound Job, initial MDCI parallelization
   Dimitrios Manganas     : Further ROCIS development; embedding schemes
   Dimitrios Pantazis     : SARC Basis sets
   Anastasios Papadopoulos: AUTO-CI, single reference methods and gradients
   Taras Petrenko         : DFT Hessian,TD-DFT gradient, ASA, ECA, R-Raman, ABS, FL, XAS/XES, NRVS
   Peter Pinski           : DLPNO-MP2, DLPNO-MP2 Gradient
   Christoph Reimann      : Effective Core Potentials
   Marius Retegan         : Local ZFS, SOC
   Christoph Riplinger    : Optimizer, TS searches, QM/MM, DLPNO-CCSD(T), (RO)-DLPNO pert. Triples
   Tobias Risthaus        : Range-separated hybrids, TD-DFT gradient, RPA, STAB
   Michael Roemelt        : Original ROCIS implementation
   Masaaki Saitow         : Open-shell DLPNO-CCSD energy and density
   Barbara Sandhoefer     : DKH picture change effects
   Avijit Sen             : IP-ROCIS
   Kantharuban Sivalingam : CASSCF convergence, NEVPT2, FIC-MRCI
   Bernardo de Souza      : ESD, SOC TD-DFT
   Georgi Stoychev        : AutoAux, RI-MP2 NMR, DLPNO-MP2 response
   Willem Van den Heuvel  : Paramagnetic NMR
   Boris Wezisla          : Elementary symmetry handling
   Frank Wennmohs         : Technical directorship


 We gratefully acknowledge several colleagues who have allowed us to
 interface, adapt or use parts of their codes:
   Stefan Grimme, W. Hujo, H. Kruse, P. Pracht,  : VdW corrections, initial TS optimization,
                  C. Bannwarth, S. Ehlert          DFT functionals, gCP, sTDA/sTD-DF
   Ed Valeev, F. Pavosevic, A. Kumar             : LibInt (2-el integral package), F12 methods
   Garnet Chan, S. Sharma, J. Yang, R. Olivares  : DMRG
   Ulf Ekstrom                                   : XCFun DFT Library
   Mihaly Kallay                                 : mrcc  (arbitrary order and MRCC methods)
   Jiri Pittner, Ondrej Demel                    : Mk-CCSD
   Frank Weinhold                                : gennbo (NPA and NBO analysis)
   Christopher J. Cramer and Donald G. Truhlar   : smd solvation model
   Lars Goerigk                                  : TD-DFT with DH, B97 family of functionals
   V. Asgeirsson, H. Jonsson                     : NEB implementation
   FAccTs GmbH                                   : IRC, NEB, NEB-TS, DLPNO-Multilevel, CI-OPT
                                                   MM, QMMM, 2- and 3-layer-ONIOM, Crystal-QMMM,
                                                   LR-CPCM, SF, NACMEs, symmetry and pop. for TD-DFT,
                                                   nearIR, NL-DFT gradient (VV10), updates on ESD,
                                                   ML-optimized integration grids
   S Lehtola, MJT Oliveira, MAL Marques          : LibXC Library
   Liviu Ungur et al                             : ANISO software


 Your calculation uses the libint2 library for the computation of 2-el integrals
 For citations please refer to: http://libint.valeyev.net

 Your ORCA version has been built with support for libXC version: 5.1.0
 For citations please refer to: https://tddft.org/programs/libxc/

 This ORCA versions uses:
   CBLAS   interface :  Fast vector & matrix operations
   LAPACKE interface :  Fast linear algebra routines
   SCALAPACK package :  Parallel linear algebra routines
   Shared memory     :  Shared parallel matrices
   BLAS/LAPACK       :  OpenBLAS 0.3.15  USE64BITINT DYNAMIC_ARCH NO_AFFINITY Zen SINGLE_THREADED
        Core in use  :  Zen
   Copyright (c) 2011-2014, The OpenBLAS Project


Your calculation utilizes the SMD solvation module
Please cite in your paper:
A.V. Marenich, C.J. Cramer, D.G. Truhlar J. Phys. Chem. B, 113, (2009), 6378 

================================================================================

----- Orbital basis set information -----
Your calculation utilizes the basis: def2-TZVP
   F. Weigend and R. Ahlrichs, Phys. Chem. Chem. Phys. 7, 3297 (2005).

----- AuxJ basis set information -----
Your calculation utilizes the auxiliary basis: def2/J
   F. Weigend, Phys. Chem. Chem. Phys. 8, 1057 (2006).

----- AuxC basis set information -----
Your calculation utilizes the auxiliary basis: def2-TZVP/C
  H-La, Hf-Rn : A. Hellweg, C. Hattig, S. Hofener and W. Klopper, Theor. Chem. Acc. 117, 587 (2007).
        Ce-Lu : J. Chmela and M. E. Harding, Mol. Phys. (2018).

================================================================================
                                        WARNINGS
                       Please study these warnings very carefully!
================================================================================

INFO   : Checking CIS options ...
  ===> : (D) CORRECTION FOUND - SETTING MODE=3
  ===> : JK MODE FOUND - ACTIVATING RI-MP2 CODE
  ===> : MP2 AND CIS FOUND - CHECKING
WARNING: CIS(D) and MP2 runs must have the same orbital window
  ===> : adjusting orbital windows

WARNING: No MP2 level density has been requested!
         To caclulate MP2 level properties use
         %mp2 Density relaxed end
         or
         %mp2 Density unrelaxed end
         Otherwise for double-hybrid DFT only the energy is correct!

WARNING: The frozen-core approximation is turned on by default for 
         the MP2 part of double-hybrid DFT.

WARNING:  You are using a Range-Separated Double Hybrid functional with Doubles Correction 
          Changing Mode to RPA_AOINTS 


WARNING: CIS/ROCIS methods need fully converged wavefunctions
  ===> : Setting SCFConvForced true
         You can overwrite this default with %scf ConvForced false 


INFO   : the flag for use of the SHARK integral package has been found!

================================================================================
                                       INPUT FILE
================================================================================
NAME = BF3-Acr_m_M06L_def2TZVP_coords.inp
|  1> %maxcore 3200
|  2> %pal
|  3>  nprocs= 8
|  4> end
|  5> ! RI-wB2PLYP def2-TZVP def2/J def2-TZVP/C RIJCOSX CPCM TightSCF
|  6> %TDDFT DCORR 1
|  7>    NROOTS   30
|  8> 
|  9>    TDA      FALSE
| 10> END
| 11> 
| 12> %CPCM
| 13>    SMD          TRUE
| 14>    SMDsolvent   "ACETONITRILE"
| 15> END
| 16>    
| 17> 
| 18> * xyz 0 1
| 19> C                   0.80076000   -3.36589900   -0.94031900
| 20> C                   1.56762900   -2.27623000   -0.62942800
| 21> C                   0.96864500   -1.01160700   -0.49117200
| 22> C                  -0.44255300   -0.87352900   -0.64853800
| 23> C                  -1.18590300   -2.02861200   -1.00217200
| 24> C                  -0.58402200   -3.24407300   -1.14214400
| 25> C                  -1.04536500    0.38971900   -0.48459700
| 26> C                  -0.23230800    1.50034600   -0.18168400
| 27> C                   1.18007700    1.33535500   -0.06854800
| 28> C                   1.99463300    2.44870900    0.20421000
| 29> H                   3.06488400    2.32622300    0.27219300
| 30> C                   1.42954700    3.68117400    0.38824000
| 31> C                   0.03728200    3.85668200    0.32650400
| 32> C                  -0.76922900    2.79221000    0.05136000
| 33> H                   1.27586800   -4.33274800   -1.04429700
| 34> H                   2.63304700   -2.38282800   -0.49297200
| 35> H                  -2.24810800   -1.92751400   -1.17021500
| 36> H                  -1.16822400   -4.11245700   -1.41435200
| 37> H                   2.06898500    4.52853700    0.59883000
| 38> H                  -0.39205700    4.83309100    0.50480200
| 39> H                  -1.84130000    2.91962600    0.01922100
| 40> N                   1.73133400    0.09124300   -0.21623500
| 41> C                  -2.50193500    0.54536800   -0.62499200
| 42> C                  -3.37339600   -0.15174800    0.21585900
| 43> C                  -3.03314500    1.39038600   -1.60213500
| 44> C                  -4.75851700   -0.02611000    0.12108100
| 45> C                  -4.40600100    1.51149800   -1.73173800
| 46> C                  -5.25209500    0.81581100   -0.87831200
| 47> H                  -4.81458700    2.15195300   -2.50405100
| 48> H                  -2.36763700    1.92865700   -2.26612000
| 49> C                   3.16334700   -0.06177200   -0.07966600
| 50> C                   3.70948900   -0.28724400    1.16966700
| 51> C                   3.97063200    0.02202900   -1.20573100
| 52> C                   5.08134600   -0.43082800    1.30875300
| 53> H                   3.06345200   -0.34961500    2.03630500
| 54> C                   5.33582800   -0.11988400   -1.07392300
| 55> H                   3.52548100    0.19786300   -2.17684500
| 56> C                   5.90122600   -0.34596100    0.18395200
| 57> H                   5.50110900   -0.60692400    2.28838700
| 58> H                   5.98483800   -0.05777300   -1.93736300
| 59> O                   7.24318800   -0.46851000    0.21328700
| 60> C                   7.85720000   -0.69379500    1.47383200
| 61> H                   8.92467000   -0.75678800    1.28283800
| 62> H                   7.66326500    0.12905600    2.16531000
| 63> H                   7.51646700   -1.62934700    1.92283400
| 64> H                  -2.94792200   -0.80015300    0.97571000
| 65> H                  -6.32510800    0.92661900   -0.99429800
| 66> B                  -5.72909500   -0.79870600    1.14661100
| 67> F                  -5.21212800   -2.07360400    1.49079400
| 68> F                  -7.02282600   -0.98445000    0.60252600
| 69> F                  -5.87788200   -0.06578200    2.35759400
| 70> *
| 71> 
| 72> 
| 73>                          ****END OF INPUT****
================================================================================

                       ****************************
                       * Single Point Calculation *
                       ****************************

---------------------------------
CARTESIAN COORDINATES (ANGSTROEM)
---------------------------------
  C      0.800760   -3.365899   -0.940319
  C      1.567629   -2.276230   -0.629428
  C      0.968645   -1.011607   -0.491172
  C     -0.442553   -0.873529   -0.648538
  C     -1.185903   -2.028612   -1.002172
  C     -0.584022   -3.244073   -1.142144
  C     -1.045365    0.389719   -0.484597
  C     -0.232308    1.500346   -0.181684
  C      1.180077    1.335355   -0.068548
  C      1.994633    2.448709    0.204210
  H      3.064884    2.326223    0.272193
  C      1.429547    3.681174    0.388240
  C      0.037282    3.856682    0.326504
  C     -0.769229    2.792210    0.051360
  H      1.275868   -4.332748   -1.044297
  H      2.633047   -2.382828   -0.492972
  H     -2.248108   -1.927514   -1.170215
  H     -1.168224   -4.112457   -1.414352
  H      2.068985    4.528537    0.598830
  H     -0.392057    4.833091    0.504802
  H     -1.841300    2.919626    0.019221
  N      1.731334    0.091243   -0.216235
  C     -2.501935    0.545368   -0.624992
  C     -3.373396   -0.151748    0.215859
  C     -3.033145    1.390386   -1.602135
  C     -4.758517   -0.026110    0.121081
  C     -4.406001    1.511498   -1.731738
  C     -5.252095    0.815811   -0.878312
  H     -4.814587    2.151953   -2.504051
  H     -2.367637    1.928657   -2.266120
  C      3.163347   -0.061772   -0.079666
  C      3.709489   -0.287244    1.169667
  C      3.970632    0.022029   -1.205731
  C      5.081346   -0.430828    1.308753
  H      3.063452   -0.349615    2.036305
  C      5.335828   -0.119884   -1.073923
  H      3.525481    0.197863   -2.176845
  C      5.901226   -0.345961    0.183952
  H      5.501109   -0.606924    2.288387
  H      5.984838   -0.057773   -1.937363
  O      7.243188   -0.468510    0.213287
  C      7.857200   -0.693795    1.473832
  H      8.924670   -0.756788    1.282838
  H      7.663265    0.129056    2.165310
  H      7.516467   -1.629347    1.922834
  H     -2.947922   -0.800153    0.975710
  H     -6.325108    0.926619   -0.994298
  B     -5.729095   -0.798706    1.146611
  F     -5.212128   -2.073604    1.490794
  F     -7.022826   -0.984450    0.602526
  F     -5.877882   -0.065782    2.357594

----------------------------
CARTESIAN COORDINATES (A.U.)
----------------------------
  NO LB      ZA    FRAG     MASS         X           Y           Z
   0 C     6.0000    0    12.011    1.513217   -6.360627   -1.776945
   1 C     6.0000    0    12.011    2.962389   -4.301451   -1.189447
   2 C     6.0000    0    12.011    1.830474   -1.911660   -0.928181
   3 C     6.0000    0    12.011   -0.836304   -1.650731   -1.225559
   4 C     6.0000    0    12.011   -2.241032   -3.833521   -1.893831
   5 C     6.0000    0    12.011   -1.103642   -6.130410   -2.158339
   6 C     6.0000    0    12.011   -1.975454    0.736462   -0.915756
   7 C     6.0000    0    12.011   -0.438998    2.835243   -0.343333
   8 C     6.0000    0    12.011    2.230022    2.523455   -0.129537
   9 C     6.0000    0    12.011    3.769310    4.627389    0.385901
  10 H     1.0000    0     1.008    5.791791    4.395924    0.514370
  11 C     6.0000    0    12.011    2.701452    6.956411    0.733667
  12 C     6.0000    0    12.011    0.070453    7.288073    0.617003
  13 C     6.0000    0    12.011   -1.453632    5.276512    0.097056
  14 H     1.0000    0     1.008    2.411041   -8.187707   -1.973435
  15 H     1.0000    0     1.008    4.975738   -4.502892   -0.931582
  16 H     1.0000    0     1.008   -4.248308   -3.642474   -2.211386
  17 H     1.0000    0     1.008   -2.207623   -7.771417   -2.672738
  18 H     1.0000    0     1.008    3.909815    8.557695    1.131625
  19 H     1.0000    0     1.008   -0.740880    9.133218    0.953938
  20 H     1.0000    0     1.008   -3.479553    5.517294    0.036322
  21 N     7.0000    0    14.007    3.271747    0.172424   -0.408625
  22 C     6.0000    0    12.011   -4.727972    1.030596   -1.181064
  23 C     6.0000    0    12.011   -6.374795   -0.286762    0.407914
  24 C     6.0000    0    12.011   -5.731813    2.627449   -3.027596
  25 C     6.0000    0    12.011   -8.992294   -0.049341    0.228810
  26 C     6.0000    0    12.011   -8.326135    2.856317   -3.272511
  27 C     6.0000    0    12.011   -9.925021    1.541659   -1.659769
  28 H     1.0000    0     1.008   -9.098251    4.066602   -4.731971
  29 H     1.0000    0     1.008   -4.474186    3.644634   -4.282346
  30 C     6.0000    0    12.011    5.977859   -0.116732   -0.150547
  31 C     6.0000    0    12.011    7.009918   -0.542812    2.210350
  32 C     6.0000    0    12.011    7.503407    0.041629   -2.278501
  33 C     6.0000    0    12.011    9.602352   -0.814147    2.473185
  34 H     1.0000    0     1.008    5.789085   -0.660677    3.848059
  35 C     6.0000    0    12.011   10.083254   -0.226548   -2.029420
  36 H     1.0000    0     1.008    6.662194    0.373907   -4.113641
  37 C     6.0000    0    12.011   11.151701   -0.653772    0.347619
  38 H     1.0000    0     1.008   10.395589   -1.146920    4.324425
  39 H     1.0000    0     1.008   11.309705   -0.109175   -3.661085
  40 O     8.0000    0    15.999   13.687642   -0.885356    0.403054
  41 C     6.0000    0    12.011   14.847956   -1.311083    2.785139
  42 H     1.0000    0     1.008   16.865182   -1.430122    2.424212
  43 H     1.0000    0     1.008   14.481472    0.243880    4.091843
  44 H     1.0000    0     1.008   14.204064   -3.079020    3.633630
  45 H     1.0000    0     1.008   -5.570765   -1.512070    1.843825
  46 H     1.0000    0     1.008  -11.952722    1.751056   -1.878951
  47 B     5.0000    0    10.810  -10.826421   -1.509336    2.166781
  48 F     9.0000    0    18.998   -9.849494   -3.918544    2.817192
  49 F     9.0000    0    18.998  -13.271218   -1.860341    1.138609
  50 F     9.0000    0    18.998  -11.107587   -0.124310    4.455207

--------------------------------
INTERNAL COORDINATES (ANGSTROEM)
--------------------------------
 C      0   0   0     0.000000000000     0.00000000     0.00000000
 C      1   0   0     1.368254291644     0.00000000     0.00000000
 C      2   1   0     1.406118019912   119.98958991     0.00000000
 C      3   2   1     1.426642697820   119.83954304     1.29342557
 C      4   3   2     1.418394502720   117.84544383   357.22925332
 C      5   4   3     1.363524235746   121.34477333     2.28486159
 C      4   3   2     1.409274447483   119.80438438   178.78966159
 C      7   4   3     1.409365213118   118.98734715     0.73394860
 C      8   7   4     1.426482797934   119.80796306     1.04520893
 C      9   8   7     1.406220300314   119.82395156   178.58572069
 H     10   9   8     1.079380244161   119.78355212   181.09080622
 C     10   9   8     1.368268688716   120.00095237     1.37576472
 C     12  10   9     1.404640958389   121.06368329     0.81706511
 C     13  12  10     1.363548624964   119.84094946   358.60073174
 H      1   2   3     1.082282784188   119.15942745   179.95031345
 H      2   1   3     1.079397465378   120.21783107   180.21452390
 H      5   4   3     1.080156802264   118.55064242   182.86486607
 H      6   5   4     1.081424959729   120.21082069   180.12433900
 H     12  10   9     1.082244499969   119.17072548   179.91502570
 H     13  12  10     1.081432702024   119.93910917   178.12202711
 H     14  13  12     1.080094431713   120.06599019   178.98250903
 N      9   8   7     1.368762360149   119.69171437   358.07899271
 C      7   4   3     1.471575187385   120.47065108   180.85857118
 C     23   7   4     1.397299322328   120.47319904    60.33977196
 C     23   7   4     1.396799171990   120.47458133   240.44543276
 C     24  23   7     1.394032984175   122.26331250   179.60403410
 C     25  23   7     1.384268272731   119.70906789   179.15561096
 C     27  25  23     1.388593315655   120.19327072     1.20315222
 H     27  25  23     1.083324741890   119.50642231   181.25966544
 H     25  23   7     1.083287887743   119.71902163     0.48548062
 C     22   9   8     1.446625699397   118.98810330   180.86918183
 C     31  22   9     1.382006386323   119.58984619    87.78509444
 C     31  22   9     1.388075669065   119.52081820   267.88503323
 C     32  31  22     1.386345162253   119.91021455   180.19538067
 H     32  31  22     1.082735133841   119.81363550     0.11034093
 C     33  31  22     1.378866478978   119.47596126   179.80280877
 H     33  31  22     1.082653873291   119.89026819   359.81910299
 C     34  32  31     1.394483026677   119.64169181     0.00000000
 H     34  32  31     1.080228471825   119.49798849   180.00385069
 H     36  33  31     1.081942877430   120.77807622   180.03463936
 O     38  34  32     1.347865278531   124.21376315   179.85670187
 C     41  38  34     1.420118926145   117.65942734   359.76990432
 H     42  41  38     1.086249983652   106.14204546   180.29317049
 H     42  41  38     1.092170488939   111.44986051   299.12754655
 H     42  41  38     1.092226770409   111.46275761    61.47617459
 H     24  23   7     1.085739706791   118.33904702     0.51395835
 H     28  27  25     1.084936893662   119.06148233   179.81252819
 B     26  24  23     1.609545903104   120.83572643   182.52982213
 F     48  26  24     1.418126132254   111.49031236   324.14101015
 F     48  26  24     1.415722155341   111.66389432   203.27133473
 F     48  26  24     1.423304249777   110.97532826    83.47883940

---------------------------
INTERNAL COORDINATES (A.U.)
---------------------------
 C      0   0   0     0.000000000000     0.00000000     0.00000000
 C      1   0   0     2.585625892770     0.00000000     0.00000000
 C      2   1   0     2.657177969605   119.98958991     0.00000000
 C      3   2   1     2.695963989839   119.83954304     1.29342557
 C      4   3   2     2.680377159999   117.84544383   357.22925332
 C      5   4   3     2.576687382524   121.34477333     2.28486159
 C      4   3   2     2.663142753276   119.80438438   178.78966159
 C      7   4   3     2.663314275468   118.98734715     0.73394860
 C      8   7   4     2.695661822845   119.80796306     1.04520893
 C      9   8   7     2.657371251554   119.82395156   178.58572069
 H     10   9   8     2.039733055830   119.78355212   181.09080622
 C     10   9   8     2.585653099293   120.00095237     1.37576472
 C     12  10   9     2.654386727845   121.06368329     0.81706511
 C     13  12  10     2.576733471467   119.84094946   358.60073174
 H      1   2   3     2.045218061572   119.15942745   179.95031345
 H      2   1   3     2.039765599213   120.21783107   180.21452390
 H      5   4   3     2.041200537972   118.55064242   182.86486607
 H      6   5   4     2.043597008274   120.21082069   180.12433900
 H     12  10   9     2.045145714884   119.17072548   179.91502570
 H     13  12  10     2.043611639091   119.93910917   178.12202711
 H     14  13  12     2.041082674711   120.06599019   178.98250903
 N      9   8   7     2.586586003102   119.69171437   358.07899271
 C      7   4   3     2.780874089631   120.47065108   180.85857118
 C     23   7   4     2.640513046313   120.47319904    60.33977196
 C     23   7   4     2.639567899150   120.47458133   240.44543276
 C     24  23   7     2.634340561745   122.26331250   179.60403410
 C     25  23   7     2.615887931337   119.70906789   179.15561096
 C     27  25  23     2.624061077981   120.19327072     1.20315222
 H     27  25  23     2.047187076272   119.50642231   181.25966544
 H     25  23   7     2.047117432028   119.71902163     0.48548062
 C     22   9   8     2.733726390152   118.98810330   180.86918183
 C     31  22   9     2.611613585480   119.58984619    87.78509444
 C     31  22   9     2.623082867693   119.52081820   267.88503323
 C     32  31  22     2.619812683744   119.91021455   180.19538067
 H     32  31  22     2.046072878534   119.81363550     0.11034093
 C     33  31  22     2.605680020513   119.47596126   179.80280877
 H     33  31  22     2.045919318350   119.89026819   359.81910299
 C     34  32  31     2.635191018821   119.64169181     0.00000000
 H     34  32  31     2.041335973813   119.49798849   180.00385069
 H     36  33  31     2.044575730889   120.77807622   180.03463936
 O     38  34  32     2.547096241845   124.21376315   179.85670187
 C     41  38  34     2.683635848012   117.65942734   359.76990432
 H     42  41  38     2.052714982080   106.14204546   180.29317049
 H     42  41  38     2.063903115646   111.44986051   299.12754655
 H     42  41  38     2.064009472209   111.46275761    61.47617459
 H     24  23   7     2.051750698558   118.33904702     0.51395835
 H     28  27  25     2.050233601608   119.06148233   179.81252819
 B     26  24  23     3.041600956842   120.83572643   182.52982213
 F     48  26  24     2.679870013317   111.49031236   324.14101015
 F     48  26  24     2.675327155318   111.66389432   203.27133473
 F     48  26  24     2.689655237325   110.97532826    83.47883940

---------------------
BASIS SET INFORMATION
---------------------
There are 6 groups of distinct atoms

 Group   1 Type C   : 11s6p2d1f contracted to 5s3p2d1f pattern {62111/411/11/1}
 Group   2 Type H   : 5s1p contracted to 3s1p pattern {311/1}
 Group   3 Type N   : 11s6p2d1f contracted to 5s3p2d1f pattern {62111/411/11/1}
 Group   4 Type O   : 11s6p2d1f contracted to 5s3p2d1f pattern {62111/411/11/1}
 Group   5 Type B   : 11s6p2d1f contracted to 5s3p2d1f pattern {62111/411/11/1}
 Group   6 Type F   : 11s6p2d1f contracted to 5s3p2d1f pattern {62111/411/11/1}

Atom   0C    basis set group =>   1
Atom   1C    basis set group =>   1
Atom   2C    basis set group =>   1
Atom   3C    basis set group =>   1
Atom   4C    basis set group =>   1
Atom   5C    basis set group =>   1
Atom   6C    basis set group =>   1
Atom   7C    basis set group =>   1
Atom   8C    basis set group =>   1
Atom   9C    basis set group =>   1
Atom  10H    basis set group =>   2
Atom  11C    basis set group =>   1
Atom  12C    basis set group =>   1
Atom  13C    basis set group =>   1
Atom  14H    basis set group =>   2
Atom  15H    basis set group =>   2
Atom  16H    basis set group =>   2
Atom  17H    basis set group =>   2
Atom  18H    basis set group =>   2
Atom  19H    basis set group =>   2
Atom  20H    basis set group =>   2
Atom  21N    basis set group =>   3
Atom  22C    basis set group =>   1
Atom  23C    basis set group =>   1
Atom  24C    basis set group =>   1
Atom  25C    basis set group =>   1
Atom  26C    basis set group =>   1
Atom  27C    basis set group =>   1
Atom  28H    basis set group =>   2
Atom  29H    basis set group =>   2
Atom  30C    basis set group =>   1
Atom  31C    basis set group =>   1
Atom  32C    basis set group =>   1
Atom  33C    basis set group =>   1
Atom  34H    basis set group =>   2
Atom  35C    basis set group =>   1
Atom  36H    basis set group =>   2
Atom  37C    basis set group =>   1
Atom  38H    basis set group =>   2
Atom  39H    basis set group =>   2
Atom  40O    basis set group =>   4
Atom  41C    basis set group =>   1
Atom  42H    basis set group =>   2
Atom  43H    basis set group =>   2
Atom  44H    basis set group =>   2
Atom  45H    basis set group =>   2
Atom  46H    basis set group =>   2
Atom  47B    basis set group =>   5
Atom  48F    basis set group =>   6
Atom  49F    basis set group =>   6
Atom  50F    basis set group =>   6
---------------------------------
AUXILIARY/J BASIS SET INFORMATION
---------------------------------
There are 6 groups of distinct atoms

 Group   1 Type C   : 12s5p4d2f1g contracted to 6s4p3d1f1g pattern {711111/2111/211/2/1}
 Group   2 Type H   : 5s2p1d contracted to 3s1p1d pattern {311/2/1}
 Group   3 Type N   : 12s5p4d2f1g contracted to 6s4p3d1f1g pattern {711111/2111/211/2/1}
 Group   4 Type O   : 12s5p4d2f1g contracted to 6s4p3d1f1g pattern {711111/2111/211/2/1}
 Group   5 Type B   : 12s5p4d2f1g contracted to 6s4p3d1f1g pattern {711111/2111/211/2/1}
 Group   6 Type F   : 12s5p4d2f1g contracted to 6s4p3d1f1g pattern {711111/2111/211/2/1}

Atom   0C    basis set group =>   1
Atom   1C    basis set group =>   1
Atom   2C    basis set group =>   1
Atom   3C    basis set group =>   1
Atom   4C    basis set group =>   1
Atom   5C    basis set group =>   1
Atom   6C    basis set group =>   1
Atom   7C    basis set group =>   1
Atom   8C    basis set group =>   1
Atom   9C    basis set group =>   1
Atom  10H    basis set group =>   2
Atom  11C    basis set group =>   1
Atom  12C    basis set group =>   1
Atom  13C    basis set group =>   1
Atom  14H    basis set group =>   2
Atom  15H    basis set group =>   2
Atom  16H    basis set group =>   2
Atom  17H    basis set group =>   2
Atom  18H    basis set group =>   2
Atom  19H    basis set group =>   2
Atom  20H    basis set group =>   2
Atom  21N    basis set group =>   3
Atom  22C    basis set group =>   1
Atom  23C    basis set group =>   1
Atom  24C    basis set group =>   1
Atom  25C    basis set group =>   1
Atom  26C    basis set group =>   1
Atom  27C    basis set group =>   1
Atom  28H    basis set group =>   2
Atom  29H    basis set group =>   2
Atom  30C    basis set group =>   1
Atom  31C    basis set group =>   1
Atom  32C    basis set group =>   1
Atom  33C    basis set group =>   1
Atom  34H    basis set group =>   2
Atom  35C    basis set group =>   1
Atom  36H    basis set group =>   2
Atom  37C    basis set group =>   1
Atom  38H    basis set group =>   2
Atom  39H    basis set group =>   2
Atom  40O    basis set group =>   4
Atom  41C    basis set group =>   1
Atom  42H    basis set group =>   2
Atom  43H    basis set group =>   2
Atom  44H    basis set group =>   2
Atom  45H    basis set group =>   2
Atom  46H    basis set group =>   2
Atom  47B    basis set group =>   5
Atom  48F    basis set group =>   6
Atom  49F    basis set group =>   6
Atom  50F    basis set group =>   6
---------------------------------
AUXILIARY/C BASIS SET INFORMATION
---------------------------------
There are 6 groups of distinct atoms

 Group   1 Type C   : 8s6p5d3f1g contracted to 8s6p4d3f1g pattern {11111111/111111/2111/111/1}
 Group   2 Type H   : 4s3p2d contracted to 4s2p1d pattern {1111/21/2}
 Group   3 Type N   : 8s6p5d3f1g contracted to 8s6p4d3f1g pattern {11111111/111111/2111/111/1}
 Group   4 Type O   : 8s6p5d3f1g contracted to 8s6p4d3f1g pattern {11111111/111111/2111/111/1}
 Group   5 Type B   : 8s6p5d3f1g contracted to 8s6p4d3f1g pattern {11111111/111111/2111/111/1}
 Group   6 Type F   : 8s6p5d3f1g contracted to 8s6p4d3f1g pattern {11111111/111111/2111/111/1}

Atom   0C    basis set group =>   1
Atom   1C    basis set group =>   1
Atom   2C    basis set group =>   1
Atom   3C    basis set group =>   1
Atom   4C    basis set group =>   1
Atom   5C    basis set group =>   1
Atom   6C    basis set group =>   1
Atom   7C    basis set group =>   1
Atom   8C    basis set group =>   1
Atom   9C    basis set group =>   1
Atom  10H    basis set group =>   2
Atom  11C    basis set group =>   1
Atom  12C    basis set group =>   1
Atom  13C    basis set group =>   1
Atom  14H    basis set group =>   2
Atom  15H    basis set group =>   2
Atom  16H    basis set group =>   2
Atom  17H    basis set group =>   2
Atom  18H    basis set group =>   2
Atom  19H    basis set group =>   2
Atom  20H    basis set group =>   2
Atom  21N    basis set group =>   3
Atom  22C    basis set group =>   1
Atom  23C    basis set group =>   1
Atom  24C    basis set group =>   1
Atom  25C    basis set group =>   1
Atom  26C    basis set group =>   1
Atom  27C    basis set group =>   1
Atom  28H    basis set group =>   2
Atom  29H    basis set group =>   2
Atom  30C    basis set group =>   1
Atom  31C    basis set group =>   1
Atom  32C    basis set group =>   1
Atom  33C    basis set group =>   1
Atom  34H    basis set group =>   2
Atom  35C    basis set group =>   1
Atom  36H    basis set group =>   2
Atom  37C    basis set group =>   1
Atom  38H    basis set group =>   2
Atom  39H    basis set group =>   2
Atom  40O    basis set group =>   4
Atom  41C    basis set group =>   1
Atom  42H    basis set group =>   2
Atom  43H    basis set group =>   2
Atom  44H    basis set group =>   2
Atom  45H    basis set group =>   2
Atom  46H    basis set group =>   2
Atom  47B    basis set group =>   5
Atom  48F    basis set group =>   6
Atom  49F    basis set group =>   6
Atom  50F    basis set group =>   6


           ************************************************************
           *        Program running with 8 parallel MPI-processes     *
           *              working on a common directory               *
           ************************************************************
------------------------------------------------------------------------------
                           ORCA GTO INTEGRAL CALCULATION
                           -- RI-GTO INTEGRALS CHOSEN --
------------------------------------------------------------------------------
------------------------------------------------------------------------------
                   ___                                                        
                  /   \      - P O W E R E D   B Y -                         
                 /     \                                                     
                 |  |  |   _    _      __       _____    __    __             
                 |  |  |  | |  | |    /  \     |  _  \  |  |  /  |          
                  \  \/   | |  | |   /    \    | | | |  |  | /  /          
                 / \  \   | |__| |  /  /\  \   | |_| |  |  |/  /          
                |  |  |   |  __  | /  /__\  \  |    /   |      \           
                |  |  |   | |  | | |   __   |  |    \   |  |\   \          
                \     /   | |  | | |  |  |  |  | |\  \  |  | \   \       
                 \___/    |_|  |_| |__|  |__|  |_| \__\ |__|  \__/        
                                                                              
                      - O R C A' S   B I G   F R I E N D -                    
                                      &                                       
                       - I N T E G R A L  F E E D E R -                       
                                                                              
 v1 FN, 2020, v2 2021                                                         
------------------------------------------------------------------------------


Reading SHARK input file BF3-Acr_m_M06L_def2TZVP_coords.SHARKINP.tmp ... ok
----------------------
SHARK INTEGRAL PACKAGE
----------------------

Number of atoms                             ...     51
Number of basis functions                   ...   1106
Number of shells                            ...    428
Maximum angular momentum                    ...      3
Integral batch strategy                     ... SHARK/LIBINT Hybrid
RI-J (if used) integral strategy            ... SPLIT-RIJ (Revised 2003 algorithm where possible)
Printlevel                                  ...      1
Contraction scheme used                     ... SEGMENTED contraction
Coulomb Range Separation                    ... NOT USED
Exchange Range Separation                   ... Long Range
   Mu parameter                             ...  0.300000
   Scaling (regular/separated)              ...  0.530000  0.470000
Finite Nucleus Model                        ... NOT USED
Auxiliary Coulomb fitting basis             ... AVAILABLE
   # of basis functions in Aux-J            ...   1777
   # of shells in Aux-J                     ...    575
   Maximum angular momentum in Aux-J        ...      4
Auxiliary J/K fitting basis                 ... NOT available
Auxiliary Correlation fitting basis         ... AVAILABLE
   # of basis functions in Aux-C            ...   2717
   # of shells in Aux-C                     ...    837
   Maximum angular momentum in Aux-C        ...      4
Auxiliary 'external' fitting basis          ... NOT available
Integral threshold                          ...     2.500000e-11
Primitive cut-off                           ...     2.500000e-12
Primitive pair pre-selection threshold      ...     2.500000e-12

Calculating pre-screening integrals         ... done (  0.1 sec) Dimension = 428
Organizing shell pair data                  ... done (  0.4 sec)
Shell pair information
Total number of shell pairs                 ...     91806
Shell pairs after pre-screening             ...     55242
Total number of primitive shell pairs       ...    285396
Primitive shell pairs kept                  ...    110571
          la=0 lb=0:  13555 shell pairs
          la=1 lb=0:  15928 shell pairs
          la=1 lb=1:   4671 shell pairs
          la=2 lb=0:   7908 shell pairs
          la=2 lb=1:   4726 shell pairs
          la=2 lb=2:   1195 shell pairs
          la=3 lb=0:   3680 shell pairs
          la=3 lb=1:   2227 shell pairs
          la=3 lb=2:   1082 shell pairs
          la=3 lb=3:    270 shell pairs

Calculating one electron integrals          ... done (  0.1 sec)
Calculating RI/J V-Matrix + Cholesky decomp.... done (  0.1 sec)
Calculating RI/C V-Matrix + Cholesky decomp.... done (  0.2 sec)
Calculating Nuclear repulsion               ... done (  0.0 sec) ENN=   2976.668045949736 Eh

SHARK setup successfully completed in   1.3 seconds

Maximum memory used throughout the entire GTOINT-calculation: 93.9 MB


           ************************************************************
           *        Program running with 8 parallel MPI-processes     *
           *              working on a common directory               *
           ************************************************************
-------------------------------------------------------------------------------
                                 ORCA SCF
-------------------------------------------------------------------------------

------------
SCF SETTINGS
------------
Hamiltonian:
 Density Functional     Method          .... DFT(GTOs)
 Exchange Functional    Exchange        .... WB88
 Correlation Functional Correlation     .... LYP
 LDA part of GGA corr.  LDAOpt          .... VWN-3
 Gradients option       PostSCFGGA      .... off
 Hybrid DFT is turned on
   Fraction HF Exchange ScalHFX         ....  0.530000
   Scaling of DF-GGA-X  ScalDFX         ....  0.000000
   Scaling of DF-GGA-C  ScalDFC         ....  0.730000
   Scaling of DF-LDA-C  ScalLDAC        ....  0.730000
   Perturbative correction              ....  0.270000
   Density functional embedding theory  .... OFF
 Long-range corrected/Screened/Range-Separated Hybrid DFT is turned on
   Amount of maximum screened exact exchange              ....  0.470000
   Range separation parameter mu (erf(mu*r12)/r12)        ....  0.300000
 RI-approximation to the Coulomb term is turned on
   Number of AuxJ basis functions       .... 1777
   RIJ-COSX (HFX calculated with COS-X)).... on


General Settings:
 Integral files         IntName         .... BF3-Acr_m_M06L_def2TZVP_coords
 Hartree-Fock type      HFTyp           .... RHF
 Total Charge           Charge          ....    0
 Multiplicity           Mult            ....    1
 Number of Electrons    NEL             ....  222
 Basis Dimension        Dim             .... 1106
 Nuclear Repulsion      ENuc            ....   2976.6680459497 Eh

Convergence Acceleration:
 DIIS                   CNVDIIS         .... on
   Start iteration      DIISMaxIt       ....    12
   Startup error        DIISStart       ....  0.200000
   # of expansion vecs  DIISMaxEq       ....     5
   Bias factor          DIISBfac        ....   1.050
   Max. coefficient     DIISMaxC        ....  10.000
 Trust-Rad. Augm. Hess. CNVTRAH         .... auto
   Auto Start mean grad. ratio tolernc. ....  1.125000
   Auto Start start iteration           ....    20
   Auto Start num. interpolation iter.  ....    10
   Max. Number of Micro iterations      ....    16
   Max. Number of Macro iterations      .... Maxiter - #DIIS iter
   Number of Davidson start vectors     ....     2
   Converg. threshold I  (grad. norm)   ....   1.000e-05
   Converg. threshold II (energy diff.) ....   1.000e-08
   Grad. Scal. Fac. for Micro threshold ....   0.100
   Minimum threshold for Micro iter.    ....   0.010
   NR start threshold (gradient norm)   ....   0.001
   Initial trust radius                 ....   0.400
   Minimum AH scaling param. (alpha)    ....   1.000
   Maximum AH scaling param. (alpha)    .... 1000.000
   Orbital update algorithm             .... Taylor
   White noise on init. David. guess    .... on
   Maximum white noise                  ....   0.010
   Quad. conv. algorithm                .... NR
 SOSCF                  CNVSOSCF        .... on
   Start iteration      SOSCFMaxIt      ....   150
   Startup grad/error   SOSCFStart      ....  0.003300
 Level Shifting         CNVShift        .... on
   Level shift para.    LevelShift      ....    0.2500
   Turn off err/grad.   ShiftErr        ....    0.0010
 Zerner damping         CNVZerner       .... off
 Static damping         CNVDamp         .... on
   Fraction old density DampFac         ....    0.7000
   Max. Damping (<1)    DampMax         ....    0.9800
   Min. Damping (>=0)   DampMin         ....    0.0000
   Turn off err/grad.   DampErr         ....    0.1000
 Fernandez-Rico         CNVRico         .... off

SCF Procedure:
 Maximum # iterations   MaxIter         ....   125
 SCF integral mode      SCFMode         .... Direct
   Integral package                     .... SHARK and LIBINT hybrid scheme
 Reset frequency        DirectResetFreq ....    20
 Integral Threshold     Thresh          ....  2.500e-11 Eh
 Primitive CutOff       TCut            ....  2.500e-12 Eh

Convergence Tolerance:
 Convergence Check Mode ConvCheckMode   .... Total+1el-Energy
 Convergence forced     ConvForced      .... 1
 Energy Change          TolE            ....  1.000e-08 Eh
 1-El. energy change                    ....  1.000e-05 Eh
 Orbital Gradient       TolG            ....  1.000e-05
 Orbital Rotation angle TolX            ....  1.000e-05
 DIIS Error             TolErr          ....  5.000e-07


Diagonalization of the overlap matrix:
Smallest eigenvalue                        ... 4.767e-06
Time for diagonalization                   ...    0.160 sec
Threshold for overlap eigenvalues          ... 1.000e-08
Number of eigenvalues below threshold      ... 0
Time for construction of square roots      ...    0.096 sec
Total time needed                          ...    0.260 sec

Time for model grid setup =    0.337 sec

------------------------------
INITIAL GUESS: MODEL POTENTIAL
------------------------------
Loading Hartree-Fock densities                     ... done
Calculating cut-offs                               ... done
Initializing the effective Hamiltonian             ... done
Setting up the integral package (SHARK)            ... done
Starting the Coulomb interaction                   ... done (   0.7 sec)
Reading the grid                                   ... done
Mapping shells                                     ... done
Starting the XC term evaluation                    ... done (   0.3 sec)
  promolecular density results
     # of electrons  =    221.986491007
     EX              =   -187.228750505
     EC              =     -2.578339566
     EX+EC           =   -189.807090071
Transforming the Hamiltonian                       ... done (   0.1 sec)
Diagonalizing the Hamiltonian                      ... done (   0.1 sec)
Back transforming the eigenvectors                 ... done (   0.0 sec)
Now organizing SCF variables                       ... done
                      ------------------
                      INITIAL GUESS DONE (   1.6 sec)
                      ------------------
-------------------
DFT GRID GENERATION
-------------------

General Integration Accuracy     IntAcc      ... 4.388
Radial Grid Type                 RadialGrid  ... OptM3 with GC (2021)
Angular Grid (max. ang.)         AngularGrid ... 4 (Lebedev-302)
Angular grid pruning method      GridPruning ... 4 (adaptive)
Weight generation scheme         WeightScheme... Becke
Basis function cutoff            BFCut       ... 1.0000e-11
Integration weight cutoff        WCut        ... 1.0000e-14
Angular grids for H and He will be reduced by one unit
Partially contracted basis set               ... off
Rotationally invariant grid construction     ... off

Total number of grid points                  ...   250866
Total number of batches                      ...     3948
Average number of points per batch           ...       63
Average number of grid points per atom       ...     4919
Time for grid setup =    1.437 sec

--------------------
COSX GRID GENERATION
--------------------

GRIDX 1
-------
General Integration Accuracy     IntAcc      ... 3.816
Radial Grid Type                 RadialGrid  ... OptM3 with GC (2021)
Angular Grid (max. ang.)         AngularGrid ... 1 (Lebedev-50)
Angular grid pruning method      GridPruning ... 4 (adaptive)
Weight generation scheme         WeightScheme... Becke
Basis function cutoff            BFCut       ... 1.0000e-11
Integration weight cutoff        WCut        ... 1.0000e-14
Angular grids for H and He will be reduced by one unit
Partially contracted basis set               ... on
Rotationally invariant grid construction     ... off

Total number of grid points                  ...    31820
Total number of batches                      ...      518
Average number of points per batch           ...       61
Average number of grid points per atom       ...      624
UseSFitting                                  ... on

GRIDX 2
-------
General Integration Accuracy     IntAcc      ... 4.020
Radial Grid Type                 RadialGrid  ... OptM3 with GC (2021)
Angular Grid (max. ang.)         AngularGrid ... 2 (Lebedev-110)
Angular grid pruning method      GridPruning ... 4 (adaptive)
Weight generation scheme         WeightScheme... Becke
Basis function cutoff            BFCut       ... 1.0000e-11
Integration weight cutoff        WCut        ... 1.0000e-14
Angular grids for H and He will be reduced by one unit
Partially contracted basis set               ... on
Rotationally invariant grid construction     ... off

Total number of grid points                  ...    69726
Total number of batches                      ...     1116
Average number of points per batch           ...       62
Average number of grid points per atom       ...     1367
UseSFitting                                  ... on

GRIDX 3
-------
General Integration Accuracy     IntAcc      ... 4.338
Radial Grid Type                 RadialGrid  ... OptM3 with GC (2021)
Angular Grid (max. ang.)         AngularGrid ... 3 (Lebedev-194)
Angular grid pruning method      GridPruning ... 4 (adaptive)
Weight generation scheme         WeightScheme... Becke
Basis function cutoff            BFCut       ... 1.0000e-11
Integration weight cutoff        WCut        ... 1.0000e-14
Angular grids for H and He will be reduced by one unit
Partially contracted basis set               ... on
Rotationally invariant grid construction     ... off

Total number of grid points                  ...   152468
Total number of batches                      ...     2405
Average number of points per batch           ...       63
Average number of grid points per atom       ...     2990
UseSFitting                                  ... on

Time for X-Grid setup             =    1.942 sec


--------------------
CPCM SOLVATION MODEL
--------------------
CPCM parameters:
  Epsilon                                         ...      35.6880
  Refrac                                          ...       1.3442
  Rsolv                                           ...       1.3000
  Surface type                                    ... GAUSSIAN VDW
  Epsilon function type                           ...         CPCM
Solvent:                                     ... ACETONITRILE
SMD-CDS solvent descriptors:
  Soln                                       ...    1.3442
  Soln25                                     ...    1.3416
  Sola                                       ...    0.0700
  Solb                                       ...    0.3200
  Solg                                       ...   41.2500
  Solc                                       ...    0.0000
  Solh                                       ...    0.0000
Radii:
 Radius for C  used is    3.4960 Bohr (=   1.8500 Ang.)
 Radius for H  used is    2.2677 Bohr (=   1.2000 Ang.)
 Radius for N  used is    3.5716 Bohr (=   1.8900 Ang.)
 Radius for O  used is    4.0969 Bohr (=   2.1680 Ang.)
 Radius for B  used is    3.6283 Bohr (=   1.9200 Ang.)
 Radius for F  used is    3.2692 Bohr (=   1.7300 Ang.)
Calculating surface                               ...        done! (  0.0s)
GEPOL surface points                              ...         2847
GEPOL Volume                                      ...    2873.8727
GEPOL Surface-area                                ...    1549.5595
Calculating surface distance matrix               ...        done! (  0.0s)
Performing Cholesky decomposition & store         ...        done! (  0.2s)
Overall time for CPCM initialization              ...                 0.3s
--------------
SCF ITERATIONS
--------------
ITER       Energy         Delta-E        Max-DP      RMS-DP      [F,P]     Damp
               ***  Starting incremental Fock matrix formation  ***
  0  -1452.3378972385   0.000000000000 0.05305775  0.00056485  0.2011405 0.7000
  1  -1452.6076259135  -0.269728674987 0.04073415  0.00047724  0.1093542 0.7000
                               ***Turning on DIIS***
  2  -1452.7650036148  -0.157377701302 0.08072469  0.00109786  0.0588551 0.0000
  3  -1453.0589661485  -0.293962533732 0.04886599  0.00029108  0.0415594 0.0000
  4  -1453.0809843976  -0.022018249120 0.01139327  0.00009495  0.0068251 0.0000
  5  -1453.0819551678  -0.000970770142 0.00690006  0.00004672  0.0040900 0.0000
                      *** Initiating the SOSCF procedure ***
                           *** Shutting down DIIS ***
                      *** Re-Reading the Fockian *** 
                      *** Removing any level shift *** 
ITER      Energy       Delta-E        Grad      Rot      Max-DP    RMS-DP
  6  -1453.08221559  -0.0002604235  0.001875  0.001875  0.002098  0.000023
               *** Restarting incremental Fock matrix formation ***
  7  -1453.08215385   0.0000617411  0.001264  0.004418  0.014683  0.000134
  8  -1453.08220475  -0.0000508971  0.000707  0.006732  0.007724  0.000077
  9  -1453.08222962  -0.0000248691  0.000246  0.000472  0.007249  0.000066
 10  -1453.08223305  -0.0000034298  0.000092  0.000211  0.000359  0.000005
 11  -1453.08223359  -0.0000005448  0.000042  0.000302  0.000365  0.000004
 12  -1453.08223376  -0.0000001640  0.000015  0.000143  0.000139  0.000002
 13  -1453.08223375   0.0000000065  0.000007  0.000027  0.000203  0.000002
                  ***Gradient check signals convergence***
              ***Rediagonalizing the Fockian in SOSCF/NRSCF***

               *****************************************************
               *                     SUCCESS                       *
               *           SCF CONVERGED AFTER  14 CYCLES          *
               *****************************************************

Old exchange energy                            =   -117.583200396 Eh
New exchange energy                            =   -117.583122845 Eh
Exchange energy change after final integration =      0.000077552 Eh
Total energy after final integration           =  -1453.082156217 Eh
Final COS-X integration done in                =    73.602 sec

SMD CDS free energy correction energy :                -4.53574     Kcal/mol
Total Energy after SMD CDS correction =             -1453.089384384 Eh

----------------
TOTAL SCF ENERGY
----------------

Total Energy       :        -1453.08938438 Eh          -39540.57235 eV

Components:
Nuclear Repulsion  :         2976.66804595 Eh           80999.25545 eV
Electronic Energy  :        -4429.75743033 Eh         -120539.82781 eV
One Electron Energy:        -7903.21418388 Eh         -215057.39125 eV
Two Electron Energy:         3473.45675355 Eh           94517.56344 eV
Max COSX asymmetry :            0.00000909 Eh               0.00025 eV
CPCM Dielectric    :           -0.09183425 Eh              -2.49894 eV
SMD CDS (Gcds)     :           -0.00722817 Eh              -0.19669 eV

Virial components:
Potential Energy   :        -2901.58163029 Eh          -78956.05021 eV
Kinetic Energy     :         1448.49224591 Eh           39415.47786 eV
Virial Ratio       :            2.00317374


DFT components:
N(Alpha)           :      111.000065985100 electrons
N(Beta)            :      111.000065985100 electrons
N(Total)           :      222.000131970201 electrons
E(X)               :      -72.206303030396 Eh       
E(C)               :       -5.611232536493 Eh       
E(XC)              :      -77.817535566889 Eh       
DFET-embed. en.    :        0.000000000000 Eh       
CPCM Solvation Model Properties:
Surface-charge          :           -0.06024449
Charge-correction       :           -0.00049384 Eh              -0.01344 eV
Free-energy (cav+disp)  :           -0.00722817 Eh              -0.19669 eV

---------------
SCF CONVERGENCE
---------------

  Last Energy change         ...   -1.9742e-08  Tolerance :   1.0000e-08
  Last MAX-Density change    ...    2.8866e-15  Tolerance :   1.0000e-07
  Last RMS-Density change    ...    1.2541e-17  Tolerance :   5.0000e-09
  Last Orbital Gradient      ...    2.0479e-06  Tolerance :   1.0000e-05
  Last Orbital Rotation      ...    9.0740e-06  Tolerance :   1.0000e-05

             **** THE GBW FILE WAS UPDATED (BF3-Acr_m_M06L_def2TZVP_coords.gbw) ****
             **** DENSITY BF3-Acr_m_M06L_def2TZVP_coords.scfp WAS UPDATED ****
             **** ENERGY FILE WAS UPDATED (BF3-Acr_m_M06L_def2TZVP_coords.en.tmp) ****
             **** THE GBW FILE WAS UPDATED (BF3-Acr_m_M06L_def2TZVP_coords.gbw) ****
             **** DENSITY BF3-Acr_m_M06L_def2TZVP_coords.scfp WAS UPDATED ****
----------------
ORBITAL ENERGIES
----------------

  NO   OCC          E(Eh)            E(eV) 
   0   2.0000     -25.367496      -690.2846 
   1   2.0000     -25.366991      -690.2709 
   2   2.0000     -25.365303      -690.2250 
   3   2.0000     -19.831195      -539.6342 
   4   2.0000     -15.008754      -408.4090 
   5   2.0000     -10.779820      -293.3338 
   6   2.0000     -10.779741      -293.3317 
   7   2.0000     -10.766705      -292.9769 
   8   2.0000     -10.763660      -292.8941 
   9   2.0000     -10.735874      -292.1380 
  10   2.0000     -10.729570      -291.9664 
  11   2.0000     -10.729439      -291.9629 
  12   2.0000     -10.725752      -291.8625 
  13   2.0000     -10.715110      -291.5730 
  14   2.0000     -10.714998      -291.5699 
  15   2.0000     -10.710684      -291.4525 
  16   2.0000     -10.710331      -291.4429 
  17   2.0000     -10.706750      -291.3455 
  18   2.0000     -10.705321      -291.3066 
  19   2.0000     -10.704465      -291.2833 
  20   2.0000     -10.702914      -291.2411 
  21   2.0000     -10.702711      -291.2356 
  22   2.0000     -10.698276      -291.1149 
  23   2.0000     -10.697967      -291.1065 
  24   2.0000     -10.693592      -290.9874 
  25   2.0000     -10.692407      -290.9552 
  26   2.0000     -10.692387      -290.9546 
  27   2.0000     -10.688277      -290.8428 
  28   2.0000     -10.685183      -290.7586 
  29   2.0000     -10.682853      -290.6952 
  30   2.0000     -10.659511      -290.0600 
  31   2.0000      -7.219686      -196.4576 
  32   2.0000      -1.413596       -38.4659 
  33   2.0000      -1.368452       -37.2375 
  34   2.0000      -1.365901       -37.1681 
  35   2.0000      -1.300772       -35.3958 
  36   2.0000      -1.248130       -33.9633 
  37   2.0000      -1.110808       -30.2266 
  38   2.0000      -1.095719       -29.8160 
  39   2.0000      -1.076433       -29.2912 
  40   2.0000      -1.063675       -28.9441 
  41   2.0000      -1.031721       -28.0745 
  42   2.0000      -0.984925       -26.8012 
  43   2.0000      -0.970132       -26.3986 
  44   2.0000      -0.967052       -26.3148 
  45   2.0000      -0.959962       -26.1219 
  46   2.0000      -0.946856       -25.7653 
  47   2.0000      -0.937870       -25.5207 
  48   2.0000      -0.932080       -25.3632 
  49   2.0000      -0.884682       -24.0734 
  50   2.0000      -0.863029       -23.4842 
  51   2.0000      -0.838275       -22.8106 
  52   2.0000      -0.824217       -22.4281 
  53   2.0000      -0.799548       -21.7568 
  54   2.0000      -0.786193       -21.3934 
  55   2.0000      -0.776010       -21.1163 
  56   2.0000      -0.773588       -21.0504 
  57   2.0000      -0.748875       -20.3779 
  58   2.0000      -0.731439       -19.9035 
  59   2.0000      -0.728544       -19.8247 
  60   2.0000      -0.708434       -19.2775 
  61   2.0000      -0.704211       -19.1625 
  62   2.0000      -0.682426       -18.5698 
  63   2.0000      -0.671610       -18.2754 
  64   2.0000      -0.660659       -17.9775 
  65   2.0000      -0.647847       -17.6288 
  66   2.0000      -0.637740       -17.3538 
  67   2.0000      -0.634348       -17.2615 
  68   2.0000      -0.632990       -17.2245 
  69   2.0000      -0.627633       -17.0788 
  70   2.0000      -0.626618       -17.0511 
  71   2.0000      -0.621318       -16.9069 
  72   2.0000      -0.612015       -16.6538 
  73   2.0000      -0.604621       -16.4526 
  74   2.0000      -0.597595       -16.2614 
  75   2.0000      -0.596876       -16.2418 
  76   2.0000      -0.590766       -16.0756 
  77   2.0000      -0.587434       -15.9849 
  78   2.0000      -0.581625       -15.8268 
  79   2.0000      -0.578799       -15.7499 
  80   2.0000      -0.574292       -15.6273 
  81   2.0000      -0.557082       -15.1590 
  82   2.0000      -0.556345       -15.1389 
  83   2.0000      -0.553394       -15.0586 
  84   2.0000      -0.550953       -14.9922 
  85   2.0000      -0.540658       -14.7121 
  86   2.0000      -0.528397       -14.3784 
  87   2.0000      -0.525416       -14.2973 
  88   2.0000      -0.521688       -14.1959 
  89   2.0000      -0.521349       -14.1866 
  90   2.0000      -0.520267       -14.1572 
  91   2.0000      -0.512042       -13.9334 
  92   2.0000      -0.506696       -13.7879 
  93   2.0000      -0.506346       -13.7784 
  94   2.0000      -0.503556       -13.7024 
  95   2.0000      -0.495912       -13.4945 
  96   2.0000      -0.488865       -13.3027 
  97   2.0000      -0.487742       -13.2721 
  98   2.0000      -0.478039       -13.0081 
  99   2.0000      -0.462222       -12.5777 
 100   2.0000      -0.461705       -12.5636 
 101   2.0000      -0.458942       -12.4885 
 102   2.0000      -0.435501       -11.8506 
 103   2.0000      -0.415961       -11.3189 
 104   2.0000      -0.383757       -10.4426 
 105   2.0000      -0.363729        -9.8976 
 106   2.0000      -0.356339        -9.6965 
 107   2.0000      -0.350796        -9.5456 
 108   2.0000      -0.343681        -9.3520 
 109   2.0000      -0.332903        -9.0588 
 110   2.0000      -0.320170        -8.7123 
 111   0.0000      -0.033340        -0.9072 
 112   0.0000       0.044262         1.2044 
 113   0.0000       0.064480         1.7546 
 114   0.0000       0.071970         1.9584 
 115   0.0000       0.083003         2.2586 
 116   0.0000       0.085818         2.3352 
 117   0.0000       0.096533         2.6268 
 118   0.0000       0.106497         2.8979 
 119   0.0000       0.120684         3.2840 
 120   0.0000       0.126856         3.4519 
 121   0.0000       0.130368         3.5475 
 122   0.0000       0.143285         3.8990 
 123   0.0000       0.145162         3.9501 
 124   0.0000       0.147773         4.0211 
 125   0.0000       0.152293         4.1441 
 126   0.0000       0.156232         4.2513 
 127   0.0000       0.158283         4.3071 
 128   0.0000       0.163078         4.4376 
 129   0.0000       0.168650         4.5892 
 130   0.0000       0.168929         4.5968 
 131   0.0000       0.174272         4.7422 
 132   0.0000       0.180697         4.9170 
 133   0.0000       0.182455         4.9649 
 134   0.0000       0.184678         5.0254 
 135   0.0000       0.191992         5.2244 
 136   0.0000       0.194849         5.3021 
 137   0.0000       0.199775         5.4362 
 138   0.0000       0.205026         5.5791 
 139   0.0000       0.207305         5.6410 
 140   0.0000       0.213569         5.8115 
 141   0.0000       0.217216         5.9108 
 142   0.0000       0.221091         6.0162 
 143   0.0000       0.224879         6.1193 
 144   0.0000       0.235114         6.3978 
 145   0.0000       0.244242         6.6462 
 146   0.0000       0.247868         6.7448 
 147   0.0000       0.251420         6.8415 
 148   0.0000       0.255210         6.9446 
 149   0.0000       0.258404         7.0315 
 150   0.0000       0.260898         7.0994 
 151   0.0000       0.270113         7.3501 
 152   0.0000       0.271775         7.3954 
 153   0.0000       0.275615         7.4999 
 154   0.0000       0.285782         7.7765 
 155   0.0000       0.289331         7.8731 
 156   0.0000       0.291485         7.9317 
 157   0.0000       0.292486         7.9590 
 158   0.0000       0.298006         8.1092 
 159   0.0000       0.303006         8.2452 
 160   0.0000       0.304784         8.2936 
 161   0.0000       0.308517         8.3952 
 162   0.0000       0.311613         8.4794 
 163   0.0000       0.319170         8.6851 
 164   0.0000       0.323132         8.7929 
 165   0.0000       0.325950         8.8696 
 166   0.0000       0.328737         8.9454 
 167   0.0000       0.330826         9.0022 
 168   0.0000       0.334053         9.0901 
 169   0.0000       0.334646         9.1062 
 170   0.0000       0.337301         9.1784 
 171   0.0000       0.342166         9.3108 
 172   0.0000       0.346198         9.4205 
 173   0.0000       0.349252         9.5036 
 174   0.0000       0.354416         9.6441 
 175   0.0000       0.360991         9.8231 
 176   0.0000       0.362898         9.8750 
 177   0.0000       0.366773         9.9804 
 178   0.0000       0.371077        10.0975 
 179   0.0000       0.374824        10.1995 
 180   0.0000       0.377576        10.2744 
 181   0.0000       0.382072        10.3967 
 182   0.0000       0.384089        10.4516 
 183   0.0000       0.391388        10.6502 
 184   0.0000       0.394844        10.7443 
 185   0.0000       0.397470        10.8157 
 186   0.0000       0.401884        10.9358 
 187   0.0000       0.402945        10.9647 
 188   0.0000       0.405472        11.0335 
 189   0.0000       0.409615        11.1462 
 190   0.0000       0.414506        11.2793 
 191   0.0000       0.417228        11.3534 
 192   0.0000       0.424533        11.5521 
 193   0.0000       0.430461        11.7134 
 194   0.0000       0.434084        11.8120 
 195   0.0000       0.436005        11.8643 
 196   0.0000       0.439369        11.9558 
 197   0.0000       0.445069        12.1109 
 198   0.0000       0.449016        12.2183 
 199   0.0000       0.454932        12.3793 
 200   0.0000       0.455420        12.3926 
 201   0.0000       0.460110        12.5202 
 202   0.0000       0.464850        12.6492 
 203   0.0000       0.469574        12.7777 
 204   0.0000       0.472849        12.8669 
 205   0.0000       0.474234        12.9046 
 206   0.0000       0.477950        13.0057 
 207   0.0000       0.478659        13.0250 
 208   0.0000       0.481664        13.1068 
 209   0.0000       0.483759        13.1637 
 210   0.0000       0.489426        13.3180 
 211   0.0000       0.497335        13.5332 
 212   0.0000       0.500158        13.6100 
 213   0.0000       0.502366        13.6701 
 214   0.0000       0.504519        13.7287 
 215   0.0000       0.508915        13.8483 
 216   0.0000       0.511569        13.9205 
 217   0.0000       0.515772        14.0349 
 218   0.0000       0.516733        14.0610 
 219   0.0000       0.519574        14.1383 
 220   0.0000       0.522438        14.2163 
 221   0.0000       0.522707        14.2236 
 222   0.0000       0.526017        14.3137 
 223   0.0000       0.530649        14.4397 
 224   0.0000       0.532199        14.4819 
 225   0.0000       0.534963        14.5571 
 226   0.0000       0.537789        14.6340 
 227   0.0000       0.540153        14.6983 
 228   0.0000       0.546948        14.8832 
 229   0.0000       0.548947        14.9376 
 230   0.0000       0.551465        15.0061 
 231   0.0000       0.555065        15.1041 
 232   0.0000       0.557964        15.1830 
 233   0.0000       0.558382        15.1943 
 234   0.0000       0.562456        15.3052 
 235   0.0000       0.565743        15.3947 
 236   0.0000       0.569650        15.5010 
 237   0.0000       0.575119        15.6498 
 238   0.0000       0.576115        15.6769 
 239   0.0000       0.576861        15.6972 
 240   0.0000       0.582638        15.8544 
 241   0.0000       0.589449        16.0397 
 242   0.0000       0.592738        16.1292 
 243   0.0000       0.597151        16.2493 
 244   0.0000       0.598352        16.2820 
 245   0.0000       0.602124        16.3846 
 246   0.0000       0.602347        16.3907 
 247   0.0000       0.608805        16.5664 
 248   0.0000       0.610790        16.6204 
 249   0.0000       0.616157        16.7665 
 250   0.0000       0.616719        16.7818 
 251   0.0000       0.618362        16.8265 
 252   0.0000       0.622285        16.9332 
 253   0.0000       0.625221        17.0131 
 254   0.0000       0.626118        17.0375 
 255   0.0000       0.635117        17.2824 
 256   0.0000       0.643329        17.5059 
 257   0.0000       0.650846        17.7104 
 258   0.0000       0.665303        18.1038 
 259   0.0000       0.667134        18.1537 
 260   0.0000       0.667797        18.1717 
 261   0.0000       0.674295        18.3485 
 262   0.0000       0.678372        18.4594 
 263   0.0000       0.683951        18.6113 
 264   0.0000       0.694566        18.9001 
 265   0.0000       0.700635        19.0652 
 266   0.0000       0.704019        19.1573 
 267   0.0000       0.708047        19.2669 
 268   0.0000       0.714004        19.4290 
 269   0.0000       0.719686        19.5836 
 270   0.0000       0.722770        19.6676 
 271   0.0000       0.727187        19.7878 
 272   0.0000       0.727967        19.8090 
 273   0.0000       0.734268        19.9805 
 274   0.0000       0.738526        20.0963 
 275   0.0000       0.745594        20.2886 
 276   0.0000       0.747840        20.3497 
 277   0.0000       0.752694        20.4818 
 278   0.0000       0.755917        20.5695 
 279   0.0000       0.762982        20.7618 
 280   0.0000       0.767518        20.8852 
 281   0.0000       0.769343        20.9349 
 282   0.0000       0.776627        21.1331 
 283   0.0000       0.779086        21.2000 
 284   0.0000       0.782715        21.2988 
 285   0.0000       0.784207        21.3394 
 286   0.0000       0.787080        21.4175 
 287   0.0000       0.791075        21.5263 
 288   0.0000       0.794905        21.6305 
 289   0.0000       0.799774        21.7630 
 290   0.0000       0.800561        21.7844 
 291   0.0000       0.804875        21.9018 
 292   0.0000       0.814227        22.1562 
 293   0.0000       0.817687        22.2504 
 294   0.0000       0.818530        22.2733 
 295   0.0000       0.823464        22.4076 
 296   0.0000       0.828426        22.5426 
 297   0.0000       0.830270        22.5928 
 298   0.0000       0.837354        22.7856 
 299   0.0000       0.840180        22.8625 
 300   0.0000       0.840916        22.8825 
 301   0.0000       0.842882        22.9360 
 302   0.0000       0.847474        23.0610 
 303   0.0000       0.852188        23.1892 
 304   0.0000       0.855468        23.2785 
 305   0.0000       0.861447        23.4412 
 306   0.0000       0.863650        23.5011 
 307   0.0000       0.866924        23.5902 
 308   0.0000       0.867978        23.6189 
 309   0.0000       0.870808        23.6959 
 310   0.0000       0.873966        23.7818 
 311   0.0000       0.876537        23.8518 
 312   0.0000       0.877822        23.8867 
 313   0.0000       0.884987        24.0817 
 314   0.0000       0.887815        24.1587 
 315   0.0000       0.890920        24.2432 
 316   0.0000       0.892657        24.2904 
 317   0.0000       0.895761        24.3749 
 318   0.0000       0.902993        24.5717 
 319   0.0000       0.908135        24.7116 
 320   0.0000       0.908415        24.7192 
 321   0.0000       0.911138        24.7933 
 322   0.0000       0.920727        25.0543 
 323   0.0000       0.923391        25.1267 
 324   0.0000       0.930580        25.3224 
 325   0.0000       0.935295        25.4507 
 326   0.0000       0.938608        25.5408 
 327   0.0000       0.941678        25.6244 
 328   0.0000       0.950168        25.8554 
 329   0.0000       0.954259        25.9667 
 330   0.0000       0.960159        26.1273 
 331   0.0000       0.961516        26.1642 
 332   0.0000       0.968870        26.3643 
 333   0.0000       0.971250        26.4291 
 334   0.0000       0.977356        26.5952 
 335   0.0000       0.981470        26.7072 
 336   0.0000       0.984798        26.7977 
 337   0.0000       0.993559        27.0361 
 338   0.0000       0.994603        27.0645 
 339   0.0000       0.995612        27.0920 
 340   0.0000       1.001013        27.2389 
 341   0.0000       1.007519        27.4160 
 342   0.0000       1.012068        27.5398 
 343   0.0000       1.013802        27.5870 
 344   0.0000       1.020460        27.7681 
 345   0.0000       1.025092        27.8942 
 346   0.0000       1.029340        28.0098 
 347   0.0000       1.034826        28.1590 
 348   0.0000       1.046475        28.4760 
 349   0.0000       1.050074        28.5740 
 350   0.0000       1.054428        28.6925 
 351   0.0000       1.062456        28.9109 
 352   0.0000       1.066141        29.0112 
 353   0.0000       1.072141        29.1744 
 354   0.0000       1.075413        29.2635 
 355   0.0000       1.083627        29.4870 
 356   0.0000       1.091095        29.6902 
 357   0.0000       1.095497        29.8100 
 358   0.0000       1.097616        29.8676 
 359   0.0000       1.106986        30.1226 
 360   0.0000       1.108458        30.1627 
 361   0.0000       1.115416        30.3520 
 362   0.0000       1.128170        30.6991 
 363   0.0000       1.132395        30.8140 
 364   0.0000       1.136066        30.9139 
 365   0.0000       1.146332        31.1933 
 366   0.0000       1.149897        31.2903 
 367   0.0000       1.163220        31.6528 
 368   0.0000       1.172960        31.9179 
 369   0.0000       1.178702        32.0741 
 370   0.0000       1.182509        32.1777 
 371   0.0000       1.183719        32.2106 
 372   0.0000       1.190879        32.4055 
 373   0.0000       1.192886        32.4601 
 374   0.0000       1.210513        32.9397 
 375   0.0000       1.213099        33.0101 
 376   0.0000       1.218415        33.1547 
 377   0.0000       1.224379        33.3171 
 378   0.0000       1.227122        33.3917 
 379   0.0000       1.231053        33.4986 
 380   0.0000       1.234944        33.6045 
 381   0.0000       1.245177        33.8830 
 382   0.0000       1.249694        34.0059 
 383   0.0000       1.255344        34.1596 
 384   0.0000       1.257434        34.2165 
 385   0.0000       1.270002        34.5585 
 386   0.0000       1.282644        34.9025 
 387   0.0000       1.285724        34.9863 
 388   0.0000       1.291081        35.1321 
 389   0.0000       1.298120        35.3236 
 390   0.0000       1.307752        35.5857 
 391   0.0000       1.311891        35.6984 
 392   0.0000       1.320593        35.9352 
 393   0.0000       1.326668        36.1005 
 394   0.0000       1.328186        36.1418 
 395   0.0000       1.342620        36.5346 
 396   0.0000       1.346200        36.6320 
 397   0.0000       1.350811        36.7574 
 398   0.0000       1.360226        37.0136 
 399   0.0000       1.365685        37.1622 
 400   0.0000       1.368357        37.2349 
 401   0.0000       1.374719        37.4080 
 402   0.0000       1.379758        37.5451 
 403   0.0000       1.391753        37.8715 
 404   0.0000       1.392309        37.8866 
 405   0.0000       1.396029        37.9879 
 406   0.0000       1.402697        38.1693 
 407   0.0000       1.405983        38.2588 
 408   0.0000       1.413978        38.4763 
 409   0.0000       1.416058        38.5329 
 410   0.0000       1.418967        38.6121 
 411   0.0000       1.427028        38.8314 
 412   0.0000       1.430372        38.9224 
 413   0.0000       1.437291        39.1107 
 414   0.0000       1.442563        39.2541 
 415   0.0000       1.447116        39.3780 
 416   0.0000       1.453994        39.5652 
 417   0.0000       1.457733        39.6669 
 418   0.0000       1.460300        39.7368 
 419   0.0000       1.466346        39.9013 
 420   0.0000       1.470649        40.0184 
 421   0.0000       1.473408        40.0935 
 422   0.0000       1.487981        40.4900 
 423   0.0000       1.493470        40.6394 
 424   0.0000       1.495433        40.6928 
 425   0.0000       1.498452        40.7749 
 426   0.0000       1.511987        41.1433 
 427   0.0000       1.525684        41.5160 
 428   0.0000       1.528656        41.5968 
 429   0.0000       1.535277        41.7770 
 430   0.0000       1.541438        41.9447 
 431   0.0000       1.553636        42.2766 
 432   0.0000       1.557202        42.3736 
 433   0.0000       1.573170        42.8081 
 434   0.0000       1.574909        42.8555 
 435   0.0000       1.582774        43.0695 
 436   0.0000       1.590676        43.2845 
 437   0.0000       1.594722        43.3946 
 438   0.0000       1.600671        43.5565 
 439   0.0000       1.610630        43.8275 
 440   0.0000       1.612596        43.8810 
 441   0.0000       1.617122        44.0041 
 442   0.0000       1.621996        44.1368 
 443   0.0000       1.632225        44.4151 
 444   0.0000       1.637287        44.5529 
 445   0.0000       1.641466        44.6666 
 446   0.0000       1.648624        44.8613 
 447   0.0000       1.651095        44.9286 
 448   0.0000       1.656685        45.0807 
 449   0.0000       1.663403        45.2635 
 450   0.0000       1.672919        45.5224 
 451   0.0000       1.675259        45.5861 
 452   0.0000       1.679249        45.6947 
 453   0.0000       1.687531        45.9201 
 454   0.0000       1.694427        46.1077 
 455   0.0000       1.696980        46.1772 
 456   0.0000       1.700621        46.2762 
 457   0.0000       1.706278        46.4302 
 458   0.0000       1.709657        46.5221 
 459   0.0000       1.714621        46.6572 
 460   0.0000       1.718655        46.7670 
 461   0.0000       1.722611        46.8746 
 462   0.0000       1.723729        46.9051 
 463   0.0000       1.732673        47.1484 
 464   0.0000       1.735283        47.2194 
 465   0.0000       1.739456        47.3330 
 466   0.0000       1.747618        47.5551 
 467   0.0000       1.749830        47.6153 
 468   0.0000       1.755471        47.7688 
 469   0.0000       1.759483        47.8780 
 470   0.0000       1.760861        47.9155 
 471   0.0000       1.767261        48.0896 
 472   0.0000       1.767676        48.1009 
 473   0.0000       1.782995        48.5178 
 474   0.0000       1.789865        48.7047 
 475   0.0000       1.794375        48.8274 
 476   0.0000       1.798985        48.9529 
 477   0.0000       1.807640        49.1884 
 478   0.0000       1.811245        49.2865 
 479   0.0000       1.820418        49.5361 
 480   0.0000       1.825136        49.6645 
 481   0.0000       1.831636        49.8414 
 482   0.0000       1.832916        49.8762 
 483   0.0000       1.842132        50.1270 
 484   0.0000       1.849787        50.3353 
 485   0.0000       1.851733        50.3882 
 486   0.0000       1.854322        50.4587 
 487   0.0000       1.867278        50.8112 
 488   0.0000       1.870532        50.8998 
 489   0.0000       1.871909        50.9372 
 490   0.0000       1.873186        50.9720 
 491   0.0000       1.881276        51.1921 
 492   0.0000       1.887265        51.3551 
 493   0.0000       1.890081        51.4317 
 494   0.0000       1.893134        51.5148 
 495   0.0000       1.909347        51.9560 
 496   0.0000       1.914107        52.0855 
 497   0.0000       1.917598        52.1805 
 498   0.0000       1.928340        52.4728 
 499   0.0000       1.929249        52.4975 
 500   0.0000       1.932812        52.5945 
 501   0.0000       1.936917        52.7062 
 502   0.0000       1.939131        52.7664 
 503   0.0000       1.949959        53.0611 
 504   0.0000       1.950210        53.0679 
 505   0.0000       1.963477        53.4289 
 506   0.0000       1.966735        53.5176 
 507   0.0000       1.970216        53.6123 
 508   0.0000       1.972768        53.6818 
 509   0.0000       1.988567        54.1117 
 510   0.0000       1.992532        54.2195 
 511   0.0000       2.002526        54.4915 
 512   0.0000       2.015728        54.8507 
 513   0.0000       2.020937        54.9925 
 514   0.0000       2.027971        55.1839 
 515   0.0000       2.035462        55.3877 
[...]
   107a -> 112a  :     0.014292 
   107a -> 113a  :     0.012720 
   108a -> 112a  :     0.069249 
   108a -> 113a  :     0.041513 
   110a -> 111a  :     0.018316 
   110a -> 114a  :     0.053396 
   110a -> 124a  :     0.035971 

STATE 15:  E=   0.219371 au      5.969 eV    48146.5 cm**-1 <S**2> =   0.000000
   104a -> 111a  :     0.133656 
   104a -> 114a  :     0.036215 
   104a -> 118a  :     0.044490 
   106a -> 118a  :     0.011205 
   108a -> 114a  :     0.028845 
   110a -> 112a  :     0.041192 
   110a -> 113a  :     0.448087 
   110a -> 115a  :     0.024829 
   110a -> 117a  :     0.086539 

STATE 16:  E=   0.224993 au      6.122 eV    49380.3 cm**-1 <S**2> =   0.000000
    96a -> 111a  :     0.024720 
    98a -> 111a  :     0.043146 
    99a -> 111a  :     0.015536 
   100a -> 111a  :     0.017354 
   102a -> 111a  :     0.105544 
   103a -> 111a  :     0.192632 
   103a -> 114a  :     0.018937 
   104a -> 112a  :     0.078623 
   105a -> 112a  :     0.033435 
   106a -> 112a  :     0.254986 
   110a -> 118a  :     0.015334 
   110a -> 124a  :     0.017402 

STATE 17:  E=   0.221722 au      6.033 eV    48662.4 cm**-1 <S**2> =   0.000000
    79a -> 111a  :     0.022936 
    81a -> 111a  :     0.012798 
    96a -> 111a  :     0.150951 
    97a -> 111a  :     0.011073 
   100a -> 111a  :     0.374904 
   102a -> 111a  :     0.127000 
   103a -> 111a  :     0.066386 
   106a -> 112a  :     0.033433 
   108a -> 114a  :     0.011772 

STATE 18:  E=   0.237757 au      6.470 eV    52181.7 cm**-1 <S**2> =   0.000000
    98a -> 111a  :     0.010686 
   102a -> 111a  :     0.050544 
   103a -> 111a  :     0.013592 
   104a -> 113a  :     0.051478 
   104a -> 117a  :     0.018791 
   106a -> 112a  :     0.133036 
   107a -> 112a  :     0.010262 
   107a -> 114a  :     0.141105 
   108a -> 112a  :     0.032004 
   108a -> 113a  :     0.015152 
   108a -> 114a  :     0.018946 
   110a -> 114a  :     0.136526 
   110a -> 118a  :     0.247588 

STATE 19:  E=   0.243277 au      6.620 eV    53393.2 cm**-1 <S**2> =   0.000000
    98a -> 111a  :     0.011452 
   104a -> 113a  :     0.018495 
   104a -> 115a  :     0.015060 
   104a -> 117a  :     0.011989 
   105a -> 112a  :     0.153552 
   105a -> 113a  :     0.244643 
   105a -> 115a  :     0.087612 
   105a -> 116a  :     0.032892 
   105a -> 117a  :     0.026613 
   106a -> 117a  :     0.010328 
   107a -> 114a  :     0.030591 
   108a -> 113a  :     0.015925 
   109a -> 115a  :     0.100447 
   109a -> 116a  :     0.106600 

STATE 20:  E=   0.244839 au      6.662 eV    53735.9 cm**-1 <S**2> =   0.000000
    96a -> 111a  :     0.031781 
   100a -> 111a  :     0.019821 
   106a -> 114a  :     0.011066 
   107a -> 112a  :     0.022658 
   107a -> 113a  :     0.099012 
   107a -> 114a  :     0.042699 
   107a -> 115a  :     0.057576 
   107a -> 116a  :     0.092667 
   107a -> 117a  :     0.060401 
   108a -> 113a  :     0.011882 
   108a -> 114a  :     0.262904 
   108a -> 115a  :     0.012720 
   108a -> 118a  :     0.036052 
   110a -> 112a  :     0.014312 
   110a -> 115a  :     0.027592 
   110a -> 116a  :     0.037260 
   110a -> 117a  :     0.053017 

STATE 21:  E=   0.241011 au      6.558 eV    52895.7 cm**-1 <S**2> =   0.000000
    95a -> 111a  :     0.024412 
   100a -> 111a  :     0.049903 
   103a -> 111a  :     0.106181 
   103a -> 114a  :     0.031297 
   104a -> 112a  :     0.017725 
   105a -> 113a  :     0.022944 
   105a -> 115a  :     0.035486 
   105a -> 116a  :     0.014522 
   106a -> 112a  :     0.022478 
   106a -> 113a  :     0.034799 
   106a -> 115a  :     0.011977 
   107a -> 114a  :     0.105680 
   107a -> 115a  :     0.015340 
   107a -> 117a  :     0.014972 
   107a -> 118a  :     0.019797 
   108a -> 113a  :     0.024026 
   108a -> 114a  :     0.017730 
   108a -> 115a  :     0.042243 
   108a -> 116a  :     0.063378 
   108a -> 117a  :     0.064634 
   109a -> 112a  :     0.014240 
   109a -> 116a  :     0.010202 
   110a -> 114a  :     0.113634 

STATE 22:  E=   0.245349 au      6.676 eV    53847.8 cm**-1 <S**2> =   0.000000
   104a -> 115a  :     0.028145 
   104a -> 116a  :     0.039922 
   105a -> 115a  :     0.245382 
   105a -> 116a  :     0.311590 
   105a -> 117a  :     0.014845 
   107a -> 114a  :     0.010830 
   109a -> 112a  :     0.181096 
   109a -> 113a  :     0.028680 
   109a -> 115a  :     0.010021 

STATE 23:  E=   0.244461 au      6.652 eV    53652.9 cm**-1 <S**2> =   0.000000
    98a -> 112a  :     0.012700 
   102a -> 112a  :     0.037446 
   102a -> 113a  :     0.052195 
   102a -> 117a  :     0.018267 
   106a -> 114a  :     0.214289 
   106a -> 118a  :     0.190571 
   107a -> 112a  :     0.152328 
   107a -> 113a  :     0.027460 
   107a -> 114a  :     0.010129 
   107a -> 116a  :     0.010409 
   107a -> 117a  :     0.010111 
   108a -> 112a  :     0.022598 
   108a -> 114a  :     0.019734 
   108a -> 118a  :     0.023882 
   110a -> 112a  :     0.048888 
   110a -> 113a  :     0.018803 

STATE 24:  E=   0.240356 au      6.540 eV    52751.9 cm**-1 <S**2> =   0.000000
    95a -> 111a  :     0.168918 
    98a -> 111a  :     0.033130 
    99a -> 111a  :     0.013177 
   100a -> 111a  :     0.070647 
   102a -> 111a  :     0.171540 
   103a -> 111a  :     0.071672 
   103a -> 114a  :     0.128564 
   103a -> 118a  :     0.034171 
   104a -> 112a  :     0.018067 
   107a -> 114a  :     0.011354 
   108a -> 115a  :     0.010398 
   108a -> 116a  :     0.014248 
   110a -> 114a  :     0.060478 

STATE 25:  E=   0.243944 au      6.638 eV    53539.6 cm**-1 <S**2> =   0.000000
    65a -> 111a  :     0.014653 
    86a -> 113a  :     0.010249 
    86a -> 117a  :     0.013628 
    91a -> 111a  :     0.018285 
    94a -> 111a  :     0.036516 
    95a -> 111a  :     0.454177 
    96a -> 111a  :     0.049845 
    97a -> 111a  :     0.038027 
   100a -> 111a  :     0.015561 
   101a -> 111a  :     0.013426 
   102a -> 111a  :     0.011505 
   103a -> 111a  :     0.052793 
   103a -> 114a  :     0.104572 
   103a -> 118a  :     0.024223 

STATE 26:  E=   0.238735 au      6.496 eV    52396.2 cm**-1 <S**2> =   0.000000
   101a -> 112a  :     0.024627 
   105a -> 115a  :     0.032778 
   105a -> 116a  :     0.031816 
   109a -> 112a  :     0.556944 
   109a -> 113a  :     0.235737 
   109a -> 115a  :     0.022016 
   109a -> 116a  :     0.044619 

STATE 27:  E=   0.249888 au      6.800 eV    54844.1 cm**-1 <S**2> =   0.000000
    98a -> 115a  :     0.015640 
    99a -> 115a  :     0.024751 
   107a -> 112a  :     0.012703 
   107a -> 115a  :     0.022294 
   110a -> 113a  :     0.029950 
   110a -> 115a  :     0.601073 
   110a -> 116a  :     0.161657 

STATE 28:  E=   0.250771 au      6.824 eV    55037.8 cm**-1 <S**2> =   0.000000
    87a -> 111a  :     0.011778 
    88a -> 111a  :     0.029922 
    92a -> 111a  :     0.021923 
    93a -> 111a  :     0.053697 
    94a -> 111a  :     0.143068 
    95a -> 111a  :     0.052415 
    96a -> 112a  :     0.026967 
    96a -> 113a  :     0.014933 
    96a -> 117a  :     0.020968 
    97a -> 111a  :     0.366006 
   100a -> 112a  :     0.016500 
   101a -> 111a  :     0.029571 
   108a -> 112a  :     0.030172 

STATE 29:  E=   0.252265 au      6.864 eV    55365.7 cm**-1 <S**2> =   0.000000
    97a -> 111a  :     0.011245 
   102a -> 112a  :     0.010961 
   102a -> 117a  :     0.012897 
   103a -> 113a  :     0.014788 
   103a -> 115a  :     0.011528 
   103a -> 116a  :     0.013043 
   106a -> 114a  :     0.130414 
   106a -> 118a  :     0.039656 
   106a -> 124a  :     0.011008 
   107a -> 112a  :     0.433192 
   107a -> 115a  :     0.019284 
   108a -> 112a  :     0.081294 
   110a -> 116a  :     0.043579 

STATE 30:  E=   0.257512 au      7.007 eV    56517.4 cm**-1 <S**2> =   0.000000
   102a -> 113a  :     0.010405 
   102a -> 115a  :     0.010330 
   102a -> 116a  :     0.012374 
   103a -> 112a  :     0.020083 
   103a -> 113a  :     0.104512 
   103a -> 115a  :     0.152842 
   103a -> 116a  :     0.197064 
   103a -> 117a  :     0.222584 
   103a -> 150a  :     0.010699 
   106a -> 114a  :     0.015541 
   107a -> 112a  :     0.022818 
   107a -> 116a  :     0.011343 
   110a -> 116a  :     0.030850 


-------------------------
TD-DFT-EXCITATION SPECTRA
-------------------------

Center of mass = ( -0.2264, -0.0293,  0.0317)
Calculating the Dipole integrals                  ... done
Transforming integrals                            ... done
Calculating the Linear Momentum integrals         ... done
Transforming integrals                            ... done
Calculating angular momentum integrals            ... done
Transforming integrals                            ... done

-----------------------------------------------------------------------------
         ABSORPTION SPECTRUM VIA TRANSITION ELECTRIC DIPOLE MOMENTS
-----------------------------------------------------------------------------
State   Energy    Wavelength  fosc         T2        TX        TY        TZ  
        (cm-1)      (nm)                 (au**2)    (au)      (au)      (au) 
-----------------------------------------------------------------------------
   1   26125.2    382.8   0.321359683   4.04956  -1.99334   0.20035  -0.18974
   2   31288.6    319.6   0.344708223   3.62694   0.15892   1.86381   0.35763
   3   33587.6    297.7   0.099505698   0.97531  -0.97351   0.13347  -0.09891
   4   35010.8    285.6   0.083429440   0.78450   0.15720   0.86521   0.10584
   5   36198.1    276.3   0.051089755   0.46465  -0.02443   0.53544   0.42113
   6   34627.4    288.8   0.003207727   0.03050  -0.14330  -0.07690  -0.06364
   7   40850.1    244.8   0.034771113   0.28022   0.00517  -0.06554   0.52526
   8   42597.3    234.8   1.278147896   9.87813   0.28297   3.07256   0.59788
   9   43516.8    229.8   0.033207663   0.25122   0.12462  -0.47338  -0.10770
  10   47391.6    211.0   0.138897285   0.96487  -0.92649   0.12286  -0.30229
  11   48771.1    205.0   0.006131642   0.04139  -0.17256  -0.09487   0.05110
  12   47716.7    209.6   0.113158197   0.78071   0.86110   0.19777   0.00995
  13   44625.1    224.1   0.056268642   0.41511   0.26678  -0.58646   0.00077
  14   47649.0    209.9   0.139922724   0.96674  -0.98238   0.03891  -0.01237
  15   48146.5    207.7   0.024754953   0.16927   0.00005  -0.33337   0.24111
  16   49380.3    202.5   0.002894252   0.01930  -0.13586   0.02887  -0.00238
  17   48662.4    205.5   0.016366818   0.11073   0.13877  -0.17145   0.24914
  18   52181.7    191.6   0.904844645   5.70862   2.36498  -0.24180   0.23875
  19   53393.2    187.3   1.631687774  10.06067   3.14776  -0.32229   0.21994
  20   53735.9    186.1   0.439696859   2.69380  -0.44518  -1.11586   1.11825
  21   52895.7    189.1   0.072808887   0.45315  -0.42292   0.08517  -0.51675
  22   53847.8    185.7   0.421964589   2.57979   0.01794   0.26336  -1.58433
  23   53652.9    186.4   0.040973214   0.25141   0.02025   0.46210   0.19354
  24   52751.9    189.6   0.015517031   0.09684   0.18797   0.09836  -0.22766
  25   53539.6    186.8   0.007272151   0.04472  -0.13275  -0.00962   0.16432
  26   52396.3    190.9   0.068332344   0.42934   0.11005   0.15160  -0.62789
  27   54844.1    182.3   0.001001799   0.00601  -0.05157   0.00294   0.05784
  28   55037.8    181.7   0.005697788   0.03408  -0.06486  -0.16909  -0.03585
  29   55365.7    180.6   0.182229347   1.08356  -0.15331  -1.02168  -0.12740
  30   56517.4    176.9   0.015793327   0.09200   0.04563   0.23067  -0.19159

-----------------------------------------------------------------------------
         ABSORPTION SPECTRUM VIA TRANSITION VELOCITY DIPOLE MOMENTS
-----------------------------------------------------------------------------
State   Energy    Wavelength   fosc        P2         PX        PY        PZ  
        (cm-1)      (nm)                 (au**2)     (au)      (au)      (au) 
-----------------------------------------------------------------------------
   1   26125.2    382.8   0.386804370   0.06906   0.26032  -0.02615   0.02477
   2   31288.6    319.6   0.380607198   0.08139  -0.02379  -0.27920  -0.05357
   3   33587.6    297.7   0.115678780   0.02655   0.16063  -0.02213   0.01620
   4   35010.8    285.6   0.098603508   0.02359  -0.02707  -0.15007  -0.01840
   5   36198.1    276.3   0.061399739   0.01519   0.00452  -0.09649  -0.07655
   6   34627.4    288.8   0.004328276   0.00102   0.02621   0.01414   0.01171
   7   40850.1    244.8   0.041576129   0.01161  -0.00277   0.01363  -0.10684
   8   42597.3    234.8   1.438527176   0.41880  -0.05833  -0.63264  -0.12315
   9   43516.8    229.8   0.037186461   0.01106  -0.02689   0.09903   0.02302
  10   47391.6    211.0   0.141018576   0.04568   0.20145  -0.02689   0.06611
  11   48771.1    205.0   0.006015106   0.00200   0.03802   0.02095  -0.01098
  12   47716.7    209.6   0.122528251   0.03996  -0.19497  -0.04408  -0.00203
  13   44625.1    224.1   0.068521290   0.02090  -0.06068   0.13121  -0.00038
  14   47649.0    209.9   0.164254182   0.05349   0.23108  -0.00909   0.00303
  15   48146.5    207.7   0.029342539   0.00966   0.00034   0.08062  -0.05617
  16   49380.3    202.5   0.003519356   0.00119   0.03362  -0.00752   0.00096
  17   48662.4    205.5   0.019229950   0.00640  -0.03390   0.04091  -0.05977
  18   52181.7    191.6   0.979287130   0.34925  -0.58497   0.05974  -0.05907
  19   53393.2    187.3   1.736425531   0.63365  -0.78994   0.08089  -0.05567
  20   53735.9    186.1   0.473872711   0.17403   0.11372   0.28319  -0.28443
  21   52895.7    189.1   0.082534427   0.02984   0.10941  -0.02152   0.13192
  22   53847.8    185.7   0.459699691   0.16918  -0.00334  -0.06770   0.40569
  23   53652.9    186.4   0.047486636   0.01741  -0.00510  -0.12143  -0.05140
  24   52751.9    189.6   0.018512630   0.00667  -0.04950  -0.02570   0.05970
  25   53539.6    186.8   0.008596902   0.00315   0.03507   0.00234  -0.04371
  26   52396.3    190.9   0.086081298   0.03083  -0.02859  -0.04116   0.16827
  27   54844.1    182.3   0.001149101   0.00043   0.01412  -0.00027  -0.01521
  28   55037.8    181.7   0.006735092   0.00253   0.01749   0.04620   0.00966
  29   55365.7    180.6   0.215623500   0.08159   0.04212   0.28044   0.03424
  30   56517.4    176.9   0.017836976   0.00689  -0.01247  -0.06294   0.05265

-------------------------------------------------------------------
                             CD SPECTRUM
-------------------------------------------------------------------
State  Energy     Wavelength     R         MX        MY        MZ   
       (cm-1)       (nm)     (1e40*cgs)   (au)      (au)      (au)  
-------------------------------------------------------------------
   1   26125.2    382.8    -38.35279   0.04427   0.11566   0.08582
   2   31288.6    319.6     -2.88175   0.15092   0.02548  -0.21693
   3   33587.6    297.7    -23.21383   0.04706   0.04557   0.09614
   4   35010.8    285.6    -58.39303  -0.01905  -0.21567   0.62113
   5   36198.1    276.3    136.36878   0.03718   0.14904   0.49950
   6   34627.4    288.8     -1.45149   0.03626   0.01277  -0.04869
   7   40850.1    244.8      0.06768  -0.00608  -0.32074  -0.03969
   8   42597.3    234.8     10.76855   0.27255  -0.04136   0.12174
   9   43516.8    229.8     20.95504  -0.05123  -0.09171  -0.06890
  10   47391.6    211.0     -5.82600   0.02906   0.32146   0.08245
  11   48771.1    205.0     -0.82399  -0.03416   0.14292   0.11578
  12   47716.7    209.6      1.12144   0.01520  -0.04758  -0.13038
  13   44625.1    224.1      7.45034  -0.07336  -0.06016   0.11976
  14   47649.0    209.9    -17.93608   0.04078   0.10978   0.18262
  15   48146.5    207.7    142.59223  -0.13395   0.02177   1.28456
  16   49380.3    202.5     -1.82037   0.03264   0.01094  -0.10778
  17   48662.4    205.5     -2.14451   0.02911   0.14087   0.06247
  18   52181.7    191.6      0.38028  -0.00927  -0.29566  -0.20422
  19   53393.2    187.3    -36.80913  -0.03696  -0.28013  -0.23656
  20   53735.9    186.1    -249.77290   0.04077   1.58080   1.11987
  21   52895.7    189.1    -39.27352   0.12477   0.48739   0.13942
  22   53847.8    185.7    120.87426   0.03906   1.64723   0.11243
  23   53652.9    186.4     88.97240  -0.06254  -0.03980   1.07664
  24   52751.9    189.6      8.71806   0.05998  -0.21917  -0.12639
  25   53539.6    186.8      0.00376   0.10679   0.11087   0.09282
  26   52396.3    190.9     15.67298   0.02987   0.69239   0.11946
  27   54844.1    182.3      0.94200  -0.22479   0.11616  -0.17178
  28   55037.8    181.7      2.99025  -0.19682   0.04984  -0.05591
  29   55365.7    180.6    -80.16644  -0.04790   0.18138  -0.06220
  30   56517.4    176.9    -60.68346   0.14095  -0.35715   0.27540

Total run time:     6629.368 sec

           *** ORCA-CIS/TD-DFT FINISHED WITHOUT ERROR ***

Maximum memory used throughout the entire CIS-calculation: 3801.7 MB

-----------------------
CIS/TD-DFT TOTAL ENERGY
-----------------------

    E(SCF)  =  -1453.089384384 Eh
    DE(CIS) =      0.119035061 Eh (Root  1)
    ----------------------------- ---------
    E(tot)  =  -1452.970349323 Eh


-------------------------   --------------------
FINAL SINGLE POINT ENERGY     -1452.970349323155
-------------------------   --------------------


                            ***************************************
                            *     ORCA property calculations      *
                            ***************************************


  WARNING: The energy has been calculated at the MP2 level but the densities
           used in the property calculations are still SCF densities
           MP2 response densities have not been calculated 
           use %mp2 Density relaxed end
           or  %mp2 Density unrelaxed end

                                    ---------------------
                                    Active property flags
                                    ---------------------
   (+) Dipole Moment


------------------------------------------------------------------------------
                       ORCA ELECTRIC PROPERTIES CALCULATION
------------------------------------------------------------------------------

Dipole Moment Calculation                       ... on
Quadrupole Moment Calculation                   ... off
Polarizability Calculation                      ... off
GBWName                                         ... BF3-Acr_m_M06L_def2TZVP_coords.gbw
Electron density                                ... BF3-Acr_m_M06L_def2TZVP_coords.scfp
The origin for moment calculation is the CENTER OF MASS  = (-0.226403, -0.029346  0.031728)

-------------
DIPOLE MOMENT
-------------
                                X             Y             Z
Electronic contribution:    -37.79231      -4.49426       4.65320
Nuclear contribution   :     50.26136       6.51485      -7.04355
                        -----------------------------------------
Total Dipole Moment    :     12.46906       2.02059      -2.39035
                        -----------------------------------------
Magnitude (a.u.)       :     12.85589
Magnitude (Debye)      :     32.67708



--------------------
Rotational spectrum 
--------------------
 
Rotational constants in cm-1:     0.009893     0.002157     0.001956 
Rotational constants in MHz :   296.592255    64.672752    58.643006 

 Dipole components along the rotational axes: 
x,y,z [a.u.] :    12.518518    -1.924224    -2.204099 
x,y,z [Debye]:    31.819544    -4.890988    -5.602375 

 

Timings for individual modules:

Sum of individual times         ...     7638.732 sec (= 127.312 min)
GTO integral calculation        ...        1.821 sec (=   0.030 min)   0.0 %
SCF iterations                  ...      484.939 sec (=   8.082 min)   6.3 %
MP2 module                      ...      521.633 sec (=   8.694 min)   6.8 %
CIS module                      ...     6630.339 sec (= 110.506 min)  86.8 %
                             ****ORCA TERMINATED NORMALLY****
TOTAL RUN TIME: 0 days 2 hours 7 minutes 23 seconds 657 msec
