 Entering Gaussian System, Link 0=g09
 Input=/home/png4rjv/fotokatalizis/benchmark/OPCs/BF3-Acr_m_wB97XD_def2TZVP.gjf
 Output=/home/png4rjv/fotokatalizis/benchmark/OPCs/BF3-Acr_m_wB97XD_def2TZVP.log
 Initial command:
 /opt/nce/packages/global/g09/l1.exe "/home/png4rjv/fotokatalizis/benchmark/OPCs/BF3-Acr_m_wB97XD_def2TZVP/Gau-36607.inp" -scrdir="/home/png4rjv/fotokatalizis/benchmark/OPCs/BF3-Acr_m_wB97XD_def2TZVP/"
 Default is to use a total of  12 processors:
                               12 via shared-memory
                                1 via Linda
 Entering Link 1 = /opt/nce/packages/global/g09/l1.exe PID=     36608.
  
 Copyright (c) 1988,1990,1992,1993,1995,1998,2003,2009,2015,
            Gaussian, Inc.  All Rights Reserved.
  
 This is part of the Gaussian(R) 09 program.  It is based on
 the Gaussian(R) 03 system (copyright 2003, Gaussian, Inc.),
 the Gaussian(R) 98 system (copyright 1998, Gaussian, Inc.),
 the Gaussian(R) 94 system (copyright 1995, Gaussian, Inc.),
 the Gaussian 92(TM) system (copyright 1992, Gaussian, Inc.),
 the Gaussian 90(TM) system (copyright 1990, Gaussian, Inc.),
 the Gaussian 88(TM) system (copyright 1988, Gaussian, Inc.),
 the Gaussian 86(TM) system (copyright 1986, Carnegie Mellon
 University), and the Gaussian 82(TM) system (copyright 1983,
 Carnegie Mellon University). Gaussian is a federally registered
 trademark of Gaussian, Inc.
  
 This software contains proprietary and confidential information,
 including trade secrets, belonging to Gaussian, Inc.
  
 This software is provided under written license and may be
 used, copied, transmitted, or stored only in accord with that
 written license.
  
 The following legend is applicable only to US Government
 contracts under FAR:
  
                    RESTRICTED RIGHTS LEGEND
  
 Use, reproduction and disclosure by the US Government is
 subject to restrictions as set forth in subparagraphs (a)
 and (c) of the Commercial Computer Software - Restricted
 Rights clause in FAR 52.227-19.
  
 Gaussian, Inc.
 340 Quinnipiac St., Bldg. 40, Wallingford CT 06492
  
  
 ---------------------------------------------------------------
 Warning -- This program may not be used in any manner that
 competes with the business of Gaussian, Inc. or will provide
 assistance to any competitor of Gaussian, Inc.  The licensee
 of this program is prohibited from giving any competitor of
 Gaussian, Inc. access to this program.  By using this program,
 the user acknowledges that Gaussian, Inc. is engaged in the
 business of creating and licensing software in the field of
 computational chemistry and represents and warrants to the
 licensee that it is not a competitor of Gaussian, Inc. and that
 it will not use this program in any manner prohibited above.
 ---------------------------------------------------------------
  

 Cite this work as:
 Gaussian 09, Revision E.01,
 M. J. Frisch, G. W. Trucks, H. B. Schlegel, G. E. Scuseria, 
 M. A. Robb, J. R. Cheeseman, G. Scalmani, V. Barone, B. Mennucci, 
 G. A. Petersson, H. Nakatsuji, M. Caricato, X. Li, H. P. Hratchian, 
 A. F. Izmaylov, J. Bloino, G. Zheng, J. L. Sonnenberg, M. Hada, 
 M. Ehara, K. Toyota, R. Fukuda, J. Hasegawa, M. Ishida, T. Nakajima, 
 Y. Honda, O. Kitao, H. Nakai, T. Vreven, J. A. Montgomery, Jr., 
 J. E. Peralta, F. Ogliaro, M. Bearpark, J. J. Heyd, E. Brothers, 
 K. N. Kudin, V. N. Staroverov, T. Keith, R. Kobayashi, J. Normand, 
 K. Raghavachari, A. Rendell, J. C. Burant, S. S. Iyengar, J. Tomasi, 
 M. Cossi, N. Rega, J. M. Millam, M. Klene, J. E. Knox, J. B. Cross, 
 V. Bakken, C. Adamo, J. Jaramillo, R. Gomperts, R. E. Stratmann, 
 O. Yazyev, A. J. Austin, R. Cammi, C. Pomelli, J. W. Ochterski, 
 R. L. Martin, K. Morokuma, V. G. Zakrzewski, G. A. Voth, 
 P. Salvador, J. J. Dannenberg, S. Dapprich, A. D. Daniels, 
 O. Farkas, J. B. Foresman, J. V. Ortiz, J. Cioslowski, 
 and D. J. Fox, Gaussian, Inc., Wallingford CT, 2013.
 
 ******************************************
 Gaussian 09:  ES64L-G09RevE.01 30-Nov-2015
                31-Mar-2021 
 ******************************************
 %chk=cp.chk
 Default route:  MaxDisk=500GB
 ----------------------------------------------------------------------
 #p wB97XD/def2TZVP opt freq=noraman nosymm int=ultrafine scrf=(SMD,sol
 vent=Acetonitrile)
 ----------------------------------------------------------------------
 1/14=-1,18=20,19=15,26=4,38=1/1,3;
 2/9=110,12=2,15=1,17=6,18=5,40=1/2;
 3/5=44,7=101,11=2,16=1,25=1,30=1,70=32201,71=1,72=2,74=-58,75=-5/1,2,3;
 4//1;
 5/5=2,38=5,53=2/2;
 6/7=2,8=2,9=2,10=2,28=1/1;
 7/30=1/1,2,3,16;
 1/14=-1,18=20,19=15,26=4/3(2);
 2/9=110,15=1/2;
 99//99;
 2/9=110,15=1/2;
 3/5=44,7=101,11=2,16=1,25=1,30=1,70=32205,71=1,72=2,74=-58,75=-5/1,2,3;
 4/5=5,16=3,69=1/1;
 5/5=2,38=5,53=2/2;
 7/30=1/1,2,3,16;
 1/14=-1,18=20,19=15,26=4/3(-5);
 2/9=110,15=1/2;
 6/7=2,8=2,9=2,10=2,19=2,28=1/1;
 99/9=1/99;
 Leave Link    1 at Wed Mar 31 11:57:09 2021, MaxMem=           0 cpu:         0.9
 (Enter /opt/nce/packages/global/g09/l101.exe)
 -----
 Title
 -----
 Symbolic Z-matrix:
 Charge =  0 Multiplicity = 1
 C                     0.68709   3.33347   0.92038 
 C                     1.49332   2.25239   0.61986 
 C                     0.92323   0.96694   0.46462 
 C                    -0.49285   0.7938    0.59548 
 C                    -1.27597   1.93268   0.95258 
 C                    -0.70378   3.17593   1.10138 
 C                    -1.07366  -0.50071   0.41361 
 C                    -0.20574  -1.59568   0.10858 
 C                     1.20914  -1.39253   0.03727 
 C                     2.06461  -2.48873  -0.23013 
 H                     3.1413   -2.33713  -0.26159 
 C                     1.53081  -3.74137  -0.46159 
 C                     0.1339   -3.94787  -0.46277 
 C                    -0.71113  -2.8952   -0.19165 
 H                     1.14132   4.32034   1.03492 
 H                     2.5668    2.38441   0.50473 
 H                    -2.346     1.80515   1.10343 
 H                    -1.32508   4.03317   1.36511 
 H                     2.20355  -4.57629  -0.67055 
 H                    -0.27417  -4.93306  -0.69469 
 H                    -1.79027  -3.03343  -0.22043 
 N                     1.72829  -0.12578   0.20683 
 C                    -2.51509  -0.69074   0.52444 
 C                    -3.39296   0.12888  -0.22075 
 C                    -3.05747  -1.67435   1.38585 
 C                    -4.78056   0.00704  -0.13377 
 C                    -4.43919  -1.78821   1.50439 
 C                    -5.28484  -0.95394   0.75858 
 H                    -4.86046  -2.51551   2.20383 
 H                    -2.39521  -2.28944   1.99912 
 C                     3.15423   0.06604   0.09787 
 C                     3.72366   0.34062  -1.14323 
 C                     3.95908  -0.02301   1.23979 
 C                     5.10298   0.5294   -1.25869 
 H                     3.08536   0.40901  -2.0263 
 C                     5.33095   0.16262   1.13385 
 H                     3.502    -0.23737   2.2077 
 C                     5.91708   0.44108  -0.11645 
 H                     5.52903   0.74414  -2.23764 
 H                     5.98117   0.099     2.00756 
 O                     7.25345   0.60627  -0.1196 
 C                     7.91561   0.89268  -1.33572 
 H                     8.98179   0.98513  -1.09415 
 H                     7.78122   0.08075  -2.07152 
 H                     7.56166   1.8409   -1.77643 
 H                    -2.98529   0.87202  -0.90995 
 H                    -6.36902  -1.02738   0.87891 
 B                    -5.74235   0.99749  -1.03384 
 F                    -5.06665   2.22958  -1.1752 
 F                    -6.9601    1.17254  -0.36162 
 F                    -5.95306   0.42355  -2.29503 
 
 NAtoms=     51 NQM=       51 NQMF=       0 NMMI=      0 NMMIF=      0
                NMic=       0 NMicF=      0.
                    Isotopes and Nuclear Properties:
 (Nuclear quadrupole moments (NQMom) in fm**2, nuclear magnetic moments (NMagM)
  in nuclear magnetons)

  Atom         1           2           3           4           5           6           7           8           9          10
 IAtWgt=          12          12          12          12          12          12          12          12          12          12
 AtmWgt=  12.0000000  12.0000000  12.0000000  12.0000000  12.0000000  12.0000000  12.0000000  12.0000000  12.0000000  12.0000000
 NucSpn=           0           0           0           0           0           0           0           0           0           0
 AtZEff=   0.0000000   0.0000000   0.0000000   0.0000000   0.0000000   0.0000000   0.0000000   0.0000000   0.0000000   0.0000000
 NQMom=    0.0000000   0.0000000   0.0000000   0.0000000   0.0000000   0.0000000   0.0000000   0.0000000   0.0000000   0.0000000
 NMagM=    0.0000000   0.0000000   0.0000000   0.0000000   0.0000000   0.0000000   0.0000000   0.0000000   0.0000000   0.0000000
 AtZNuc=   6.0000000   6.0000000   6.0000000   6.0000000   6.0000000   6.0000000   6.0000000   6.0000000   6.0000000   6.0000000

  Atom        11          12          13          14          15          16          17          18          19          20
 IAtWgt=           1          12          12          12           1           1           1           1           1           1
 AtmWgt=   1.0078250  12.0000000  12.0000000  12.0000000   1.0078250   1.0078250   1.0078250   1.0078250   1.0078250   1.0078250
 NucSpn=           1           0           0           0           1           1           1           1           1           1
 AtZEff=   0.0000000   0.0000000   0.0000000   0.0000000   0.0000000   0.0000000   0.0000000   0.0000000   0.0000000   0.0000000
 NQMom=    0.0000000   0.0000000   0.0000000   0.0000000   0.0000000   0.0000000   0.0000000   0.0000000   0.0000000   0.0000000
 NMagM=    2.7928460   0.0000000   0.0000000   0.0000000   2.7928460   2.7928460   2.7928460   2.7928460   2.7928460   2.7928460
 AtZNuc=   1.0000000   6.0000000   6.0000000   6.0000000   1.0000000   1.0000000   1.0000000   1.0000000   1.0000000   1.0000000

  Atom        21          22          23          24          25          26          27          28          29          30
 IAtWgt=           1          14          12          12          12          12          12          12           1           1
 AtmWgt=   1.0078250  14.0030740  12.0000000  12.0000000  12.0000000  12.0000000  12.0000000  12.0000000   1.0078250   1.0078250
 NucSpn=           1           2           0           0           0           0           0           0           1           1
 AtZEff=   0.0000000   0.0000000   0.0000000   0.0000000   0.0000000   0.0000000   0.0000000   0.0000000   0.0000000   0.0000000
 NQMom=    0.0000000   2.0440000   0.0000000   0.0000000   0.0000000   0.0000000   0.0000000   0.0000000   0.0000000   0.0000000
 NMagM=    2.7928460   0.4037610   0.0000000   0.0000000   0.0000000   0.0000000   0.0000000   0.0000000   2.7928460   2.7928460
 AtZNuc=   1.0000000   7.0000000   6.0000000   6.0000000   6.0000000   6.0000000   6.0000000   6.0000000   1.0000000   1.0000000

  Atom        31          32          33          34          35          36          37          38          39          40
 IAtWgt=          12          12          12          12           1          12           1          12           1           1
 AtmWgt=  12.0000000  12.0000000  12.0000000  12.0000000   1.0078250  12.0000000   1.0078250  12.0000000   1.0078250   1.0078250
 NucSpn=           0           0           0           0           1           0           1           0           1           1
 AtZEff=   0.0000000   0.0000000   0.0000000   0.0000000   0.0000000   0.0000000   0.0000000   0.0000000   0.0000000   0.0000000
 NQMom=    0.0000000   0.0000000   0.0000000   0.0000000   0.0000000   0.0000000   0.0000000   0.0000000   0.0000000   0.0000000
 NMagM=    0.0000000   0.0000000   0.0000000   0.0000000   2.7928460   0.0000000   2.7928460   0.0000000   2.7928460   2.7928460
 AtZNuc=   6.0000000   6.0000000   6.0000000   6.0000000   1.0000000   6.0000000   1.0000000   6.0000000   1.0000000   1.0000000

  Atom        41          42          43          44          45          46          47          48          49          50
 IAtWgt=          16          12           1           1           1           1           1          11          19          19
 AtmWgt=  15.9949146  12.0000000   1.0078250   1.0078250   1.0078250   1.0078250   1.0078250  11.0093053  18.9984033  18.9984033
 NucSpn=           0           0           1           1           1           1           1           3           1           1
 AtZEff=   0.0000000   0.0000000   0.0000000   0.0000000   0.0000000   0.0000000   0.0000000   0.0000000   0.0000000   0.0000000
 NQMom=    0.0000000   0.0000000   0.0000000   0.0000000   0.0000000   0.0000000   0.0000000   4.0590000   0.0000000   0.0000000
 NMagM=    0.0000000   0.0000000   2.7928460   2.7928460   2.7928460   2.7928460   2.7928460   2.6886370   2.6288670   2.6288670
 AtZNuc=   8.0000000   6.0000000   1.0000000   1.0000000   1.0000000   1.0000000   1.0000000   5.0000000   9.0000000   9.0000000

  Atom        51
 IAtWgt=          19
 AtmWgt=  18.9984033
 NucSpn=           1
 AtZEff=   0.0000000
 NQMom=    0.0000000
 NMagM=    2.6288670
 AtZNuc=   9.0000000
 Leave Link  101 at Wed Mar 31 11:57:09 2021, MaxMem=  5242880000 cpu:         4.3
 (Enter /opt/nce/packages/global/g09/l103.exe)

 GradGradGradGradGradGradGradGradGradGradGradGradGradGradGradGradGradGrad
 Berny optimization.
 Initialization pass.
                           ----------------------------
                           !    Initial Parameters    !
                           ! (Angstroms and Degrees)  !
 --------------------------                            --------------------------
 ! Name  Definition              Value          Derivative Info.                !
 --------------------------------------------------------------------------------
 ! R1    R(1,2)                  1.3817         estimate D2E/DX2                !
 ! R2    R(1,6)                  1.4114         estimate D2E/DX2                !
 ! R3    R(1,15)                 1.0924         estimate D2E/DX2                !
 ! R4    R(2,3)                  1.4147         estimate D2E/DX2                !
 ! R5    R(2,16)                 1.0877         estimate D2E/DX2                !
 ! R6    R(3,4)                  1.4326         estimate D2E/DX2                !
 ! R7    R(3,22)                 1.3815         estimate D2E/DX2                !
 ! R8    R(4,5)                  1.4275         estimate D2E/DX2                !
 ! R9    R(4,7)                  1.4304         estimate D2E/DX2                !
 ! R10   R(5,6)                  1.3767         estimate D2E/DX2                !
 ! R11   R(5,17)                 1.0881         estimate D2E/DX2                !
 ! R12   R(6,18)                 1.0911         estimate D2E/DX2                !
 ! R13   R(7,8)                  1.4301         estimate D2E/DX2                !
 ! R14   R(7,23)                 1.4581         estimate D2E/DX2                !
 ! R15   R(8,9)                  1.4312         estimate D2E/DX2                !
 ! R16   R(8,14)                 1.4263         estimate D2E/DX2                !
 ! R17   R(9,10)                 1.416          estimate D2E/DX2                !
 ! R18   R(9,22)                 1.3795         estimate D2E/DX2                !
 ! R19   R(10,11)                1.0878         estimate D2E/DX2                !
 ! R20   R(10,12)                1.3812         estimate D2E/DX2                !
 ! R21   R(12,13)                1.4121         estimate D2E/DX2                !
 ! R22   R(12,19)                1.0924         estimate D2E/DX2                !
 ! R23   R(13,14)                1.3768         estimate D2E/DX2                !
 ! R24   R(13,20)                1.0913         estimate D2E/DX2                !
 ! R25   R(14,21)                1.0883         estimate D2E/DX2                !
 ! R26   R(22,31)                1.4429         estimate D2E/DX2                !
 ! R27   R(23,24)                1.4134         estimate D2E/DX2                !
 ! R28   R(23,25)                1.4155         estimate D2E/DX2                !
 ! R29   R(24,26)                1.3957         estimate D2E/DX2                !
 ! R30   R(24,46)                1.0925         estimate D2E/DX2                !
 ! R31   R(25,27)                1.3915         estimate D2E/DX2                !
 ! R32   R(25,30)                1.0923         estimate D2E/DX2                !
 ! R33   R(26,28)                1.405          estimate D2E/DX2                !
 ! R34   R(26,48)                1.6481         estimate D2E/DX2                !
 ! R35   R(27,28)                1.4026         estimate D2E/DX2                !
 ! R36   R(27,29)                1.0935         estimate D2E/DX2                !
 ! R37   R(28,47)                1.0933         estimate D2E/DX2                !
 ! R38   R(31,32)                1.3928         estimate D2E/DX2                !
 ! R39   R(31,33)                1.3999         estimate D2E/DX2                !
 ! R40   R(32,34)                1.397          estimate D2E/DX2                !
 ! R41   R(32,35)                1.0918         estimate D2E/DX2                !
 ! R42   R(33,36)                1.3884         estimate D2E/DX2                !
 ! R43   R(33,37)                1.0917         estimate D2E/DX2                !
 ! R44   R(34,38)                1.4054         estimate D2E/DX2                !
 ! R45   R(34,39)                1.089          estimate D2E/DX2                !
 ! R46   R(36,38)                1.4087         estimate D2E/DX2                !
 ! R47   R(36,40)                1.091          estimate D2E/DX2                !
 ! R48   R(38,41)                1.3465         estimate D2E/DX2                !
 ! R49   R(41,42)                1.414          estimate D2E/DX2                !
 ! R50   R(42,43)                1.0971         estimate D2E/DX2                !
 ! R51   R(42,44)                1.104          estimate D2E/DX2                !
 ! R52   R(42,45)                1.1039         estimate D2E/DX2                !
 ! R53   R(48,49)                1.4123         estimate D2E/DX2                !
 ! R54   R(48,50)                1.4019         estimate D2E/DX2                !
 ! R55   R(48,51)                1.4016         estimate D2E/DX2                !
 ! A1    A(2,1,6)              121.0361         estimate D2E/DX2                !
 ! A2    A(2,1,15)             119.145          estimate D2E/DX2                !
 ! A3    A(6,1,15)             119.8109         estimate D2E/DX2                !
 ! A4    A(1,2,3)              119.978          estimate D2E/DX2                !
 ! A5    A(1,2,16)             120.261          estimate D2E/DX2                !
 ! A6    A(3,2,16)             119.7607         estimate D2E/DX2                !
 ! A7    A(2,3,4)              119.874          estimate D2E/DX2                !
 ! A8    A(2,3,22)             120.2865         estimate D2E/DX2                !
 ! A9    A(4,3,22)             119.8326         estimate D2E/DX2                !
 ! A10   A(3,4,5)              117.949          estimate D2E/DX2                !
 ! A11   A(3,4,7)              119.9405         estimate D2E/DX2                !
 ! A12   A(5,4,7)              122.0762         estimate D2E/DX2                !
 ! A13   A(4,5,6)              121.2996         estimate D2E/DX2                !
 ! A14   A(4,5,17)             118.7272         estimate D2E/DX2                !
 ! A15   A(6,5,17)             119.9726         estimate D2E/DX2                !
 ! A16   A(1,6,5)              119.7699         estimate D2E/DX2                !
 ! A17   A(1,6,18)             120.2957         estimate D2E/DX2                !
 ! A18   A(5,6,18)             119.933          estimate D2E/DX2                !
 ! A19   A(4,7,8)              118.2673         estimate D2E/DX2                !
 ! A20   A(4,7,23)             120.6413         estimate D2E/DX2                !
 ! A21   A(8,7,23)             121.0887         estimate D2E/DX2                !
 ! A22   A(7,8,9)              120.1271         estimate D2E/DX2                !
 ! A23   A(7,8,14)             121.8329         estimate D2E/DX2                !
 ! A24   A(9,8,14)             117.979          estimate D2E/DX2                !
 ! A25   A(8,9,10)             119.7881         estimate D2E/DX2                !
 ! A26   A(8,9,22)             119.7546         estimate D2E/DX2                !
 ! A27   A(10,9,22)            120.4479         estimate D2E/DX2                !
 ! A28   A(9,10,11)            119.7069         estimate D2E/DX2                !
 ! A29   A(9,10,12)            120.0186         estimate D2E/DX2                !
 ! A30   A(11,10,12)           120.2719         estimate D2E/DX2                !
 ! A31   A(10,12,13)           121.0038         estimate D2E/DX2                !
 ! A32   A(10,12,19)           119.1584         estimate D2E/DX2                !
 ! A33   A(13,12,19)           119.8206         estimate D2E/DX2                !
 ! A34   A(12,13,14)           119.6811         estimate D2E/DX2                !
 ! A35   A(12,13,20)           120.1395         estimate D2E/DX2                !
 ! A36   A(14,13,20)           120.1707         estimate D2E/DX2                !
 ! A37   A(8,14,13)            121.3711         estimate D2E/DX2                !
 ! A38   A(8,14,21)            118.2053         estimate D2E/DX2                !
 ! A39   A(13,14,21)           120.4137         estimate D2E/DX2                !
 ! A40   A(3,22,9)             122.002          estimate D2E/DX2                !
 ! A41   A(3,22,31)            119.0011         estimate D2E/DX2                !
 ! A42   A(9,22,31)            118.9937         estimate D2E/DX2                !
 ! A43   A(7,23,24)            119.8902         estimate D2E/DX2                !
 ! A44   A(7,23,25)            121.0371         estimate D2E/DX2                !
 ! A45   A(24,23,25)           119.0658         estimate D2E/DX2                !
 ! A46   A(23,24,26)           122.278          estimate D2E/DX2                !
 ! A47   A(23,24,46)           119.6898         estimate D2E/DX2                !
 ! A48   A(26,24,46)           118.0167         estimate D2E/DX2                !
 ! A49   A(23,25,27)           119.2871         estimate D2E/DX2                !
 ! A50   A(23,25,30)           120.0448         estimate D2E/DX2                !
 ! A51   A(27,25,30)           120.5412         estimate D2E/DX2                !
 ! A52   A(24,26,28)           117.1384         estimate D2E/DX2                !
 ! A53   A(24,26,48)           119.5846         estimate D2E/DX2                !
 ! A54   A(28,26,48)           123.2606         estimate D2E/DX2                !
 ! A55   A(25,27,28)           120.3118         estimate D2E/DX2                !
 ! A56   A(25,27,29)           119.4386         estimate D2E/DX2                !
 ! A57   A(28,27,29)           120.2297         estimate D2E/DX2                !
 ! A58   A(26,28,27)           121.8795         estimate D2E/DX2                !
 ! A59   A(26,28,47)           118.1486         estimate D2E/DX2                !
 ! A60   A(27,28,47)           119.96           estimate D2E/DX2                !
 ! A61   A(22,31,32)           119.836          estimate D2E/DX2                !
 ! A62   A(22,31,33)           119.8757         estimate D2E/DX2                !
 ! A63   A(32,31,33)           120.2883         estimate D2E/DX2                !
 ! A64   A(31,32,34)           120.2618         estimate D2E/DX2                !
 ! A65   A(31,32,35)           119.6085         estimate D2E/DX2                !
 ! A66   A(34,32,35)           120.1297         estimate D2E/DX2                !
 ! A67   A(31,33,36)           119.824          estimate D2E/DX2                !
 ! A68   A(31,33,37)           119.6707         estimate D2E/DX2                !
 ! A69   A(36,33,37)           120.5053         estimate D2E/DX2                !
 ! A70   A(32,34,38)           119.7536         estimate D2E/DX2                !
 ! A71   A(32,34,39)           119.158          estimate D2E/DX2                !
 ! A72   A(38,34,39)           121.0884         estimate D2E/DX2                !
 ! A73   A(33,36,38)           120.3499         estimate D2E/DX2                !
 ! A74   A(33,36,40)           121.3322         estimate D2E/DX2                !
 ! A75   A(38,36,40)           118.3179         estimate D2E/DX2                !
 ! A76   A(34,38,36)           119.5224         estimate D2E/DX2                !
 ! A77   A(34,38,41)           124.4201         estimate D2E/DX2                !
 ! A78   A(36,38,41)           116.0575         estimate D2E/DX2                !
 ! A79   A(38,41,42)           119.4465         estimate D2E/DX2                !
 ! A80   A(41,42,43)           106.4265         estimate D2E/DX2                !
 ! A81   A(41,42,44)           111.5471         estimate D2E/DX2                !
 ! A82   A(41,42,45)           111.5427         estimate D2E/DX2                !
 ! A83   A(43,42,44)           109.0888         estimate D2E/DX2                !
 ! A84   A(43,42,45)           109.0932         estimate D2E/DX2                !
 ! A85   A(44,42,45)           109.0643         estimate D2E/DX2                !
 ! A86   A(26,48,49)           107.4423         estimate D2E/DX2                !
 ! A87   A(26,48,50)           108.6677         estimate D2E/DX2                !
 ! A88   A(26,48,51)           109.4554         estimate D2E/DX2                !
 ! A89   A(49,48,50)           110.7708         estimate D2E/DX2                !
 ! A90   A(49,48,51)           109.8229         estimate D2E/DX2                !
 ! A91   A(50,48,51)           110.6105         estimate D2E/DX2                !
 ! D1    D(6,1,2,3)              1.1744         estimate D2E/DX2                !
 ! D2    D(6,1,2,16)          -178.641          estimate D2E/DX2                !
 ! D3    D(15,1,2,3)          -179.8564         estimate D2E/DX2                !
 ! D4    D(15,1,2,16)            0.3281         estimate D2E/DX2                !
 ! D5    D(2,1,6,5)             -1.2472         estimate D2E/DX2                !
 ! D6    D(2,1,6,18)           178.3312         estimate D2E/DX2                !
 ! D7    D(15,1,6,5)           179.7904         estimate D2E/DX2                !
 ! D8    D(15,1,6,18)           -0.6312         estimate D2E/DX2                !
 ! D9    D(1,2,3,4)              1.1382         estimate D2E/DX2                !
 ! D10   D(1,2,3,22)          -177.9053         estimate D2E/DX2                !
 ! D11   D(16,2,3,4)          -179.0454         estimate D2E/DX2                !
 ! D12   D(16,2,3,22)            1.9111         estimate D2E/DX2                !
 ! D13   D(2,3,4,5)             -3.2768         estimate D2E/DX2                !
 ! D14   D(2,3,4,7)            178.8092         estimate D2E/DX2                !
 ! D15   D(22,3,4,5)           175.771          estimate D2E/DX2                !
 ! D16   D(22,3,4,7)            -2.1429         estimate D2E/DX2                !
 ! D17   D(2,3,22,9)          -179.4023         estimate D2E/DX2                !
 ! D18   D(2,3,22,31)           -0.0586         estimate D2E/DX2                !
 ! D19   D(4,3,22,9)             1.5539         estimate D2E/DX2                !
 ! D20   D(4,3,22,31)         -179.1025         estimate D2E/DX2                !
 ! D21   D(3,4,5,6)              3.2501         estimate D2E/DX2                !
 ! D22   D(3,4,5,17)          -177.0235         estimate D2E/DX2                !
 ! D23   D(7,4,5,6)           -178.8833         estimate D2E/DX2                !
 ! D24   D(7,4,5,17)             0.8432         estimate D2E/DX2                !
 ! D25   D(3,4,7,8)              0.2843         estimate D2E/DX2                !
 ! D26   D(3,4,7,23)          -179.1214         estimate D2E/DX2                !
 ! D27   D(5,4,7,8)           -177.5409         estimate D2E/DX2                !
 ! D28   D(5,4,7,23)             3.0534         estimate D2E/DX2                !
 ! D29   D(4,5,6,1)             -1.0325         estimate D2E/DX2                !
 ! D30   D(4,5,6,18)           179.3876         estimate D2E/DX2                !
 ! D31   D(17,5,6,1)           179.2444         estimate D2E/DX2                !
 ! D32   D(17,5,6,18)           -0.3355         estimate D2E/DX2                !
 ! D33   D(4,7,8,9)              2.1429         estimate D2E/DX2                !
 ! D34   D(4,7,8,14)          -174.9602         estimate D2E/DX2                !
 ! D35   D(23,7,8,9)          -178.4542         estimate D2E/DX2                !
 ! D36   D(23,7,8,14)            4.4427         estimate D2E/DX2                !
 ! D37   D(4,7,23,24)           51.9706         estimate D2E/DX2                !
 ! D38   D(4,7,23,25)         -127.0601         estimate D2E/DX2                !
 ! D39   D(8,7,23,24)         -127.4182         estimate D2E/DX2                !
 ! D40   D(8,7,23,25)           53.5511         estimate D2E/DX2                !
 ! D41   D(7,8,9,10)           178.3234         estimate D2E/DX2                !
 ! D42   D(7,8,9,22)            -2.7847         estimate D2E/DX2                !
 ! D43   D(14,8,9,10)           -4.4635         estimate D2E/DX2                !
 ! D44   D(14,8,9,22)          174.4285         estimate D2E/DX2                !
 ! D45   D(7,8,14,13)         -178.9335         estimate D2E/DX2                !
 ! D46   D(7,8,14,21)            2.2093         estimate D2E/DX2                !
 ! D47   D(9,8,14,13)            3.9036         estimate D2E/DX2                !
 ! D48   D(9,8,14,21)         -174.9535         estimate D2E/DX2                !
 ! D49   D(8,9,10,11)         -178.6105         estimate D2E/DX2                !
 ! D50   D(8,9,10,12)            1.9739         estimate D2E/DX2                !
 ! D51   D(22,9,10,11)           2.5054         estimate D2E/DX2                !
 ! D52   D(22,9,10,12)        -176.9103         estimate D2E/DX2                !
 ! D53   D(8,9,22,3)             0.9065         estimate D2E/DX2                !
 ! D54   D(8,9,22,31)         -178.4372         estimate D2E/DX2                !
 ! D55   D(10,9,22,3)          179.791          estimate D2E/DX2                !
 ! D56   D(10,9,22,31)           0.4473         estimate D2E/DX2                !
 ! D57   D(9,10,12,13)           1.2593         estimate D2E/DX2                !
 ! D58   D(9,10,12,19)         179.7501         estimate D2E/DX2                !
 ! D59   D(11,10,12,13)       -178.153          estimate D2E/DX2                !
 ! D60   D(11,10,12,19)          0.3378         estimate D2E/DX2                !
 ! D61   D(10,12,13,14)         -1.8823         estimate D2E/DX2                !
 ! D62   D(10,12,13,20)        177.0486         estimate D2E/DX2                !
 ! D63   D(19,12,13,14)        179.6368         estimate D2E/DX2                !
 ! D64   D(19,12,13,20)         -1.4323         estimate D2E/DX2                !
 ! D65   D(12,13,14,8)          -0.7819         estimate D2E/DX2                !
 ! D66   D(12,13,14,21)        178.0503         estimate D2E/DX2                !
 ! D67   D(20,13,14,8)        -179.7124         estimate D2E/DX2                !
 ! D68   D(20,13,14,21)         -0.8803         estimate D2E/DX2                !
 ! D69   D(3,22,31,32)         -90.5564         estimate D2E/DX2                !
 ! D70   D(3,22,31,33)          89.3683         estimate D2E/DX2                !
 ! D71   D(9,22,31,32)          88.8072         estimate D2E/DX2                !
 ! D72   D(9,22,31,33)         -91.268          estimate D2E/DX2                !
 ! D73   D(7,23,24,26)        -178.7772         estimate D2E/DX2                !
 ! D74   D(7,23,24,46)           2.682          estimate D2E/DX2                !
 ! D75   D(25,23,24,26)          0.2725         estimate D2E/DX2                !
 ! D76   D(25,23,24,46)       -178.2682         estimate D2E/DX2                !
 ! D77   D(7,23,25,27)         177.4132         estimate D2E/DX2                !
 ! D78   D(7,23,25,30)           1.4854         estimate D2E/DX2                !
 ! D79   D(24,23,25,27)         -1.6253         estimate D2E/DX2                !
 ! D80   D(24,23,25,30)       -177.5531         estimate D2E/DX2                !
 ! D81   D(23,24,26,28)          1.4587         estimate D2E/DX2                !
 ! D82   D(23,24,26,48)       -179.9668         estimate D2E/DX2                !
 ! D83   D(46,24,26,28)       -179.9772         estimate D2E/DX2                !
 ! D84   D(46,24,26,48)         -1.4027         estimate D2E/DX2                !
 ! D85   D(23,25,27,28)          1.209          estimate D2E/DX2                !
 ! D86   D(23,25,27,29)       -177.1717         estimate D2E/DX2                !
 ! D87   D(30,25,27,28)        177.1161         estimate D2E/DX2                !
 ! D88   D(30,25,27,29)         -1.2646         estimate D2E/DX2                !
 ! D89   D(24,26,28,27)         -1.9026         estimate D2E/DX2                !
 ! D90   D(24,26,28,47)        176.8448         estimate D2E/DX2                !
 ! D91   D(48,26,28,27)        179.58           estimate D2E/DX2                !
 ! D92   D(48,26,28,47)         -1.6727         estimate D2E/DX2                !
 ! D93   D(24,26,48,49)        -31.6748         estimate D2E/DX2                !
 ! D94   D(24,26,48,50)       -151.5766         estimate D2E/DX2                !
 ! D95   D(24,26,48,51)         87.5325         estimate D2E/DX2                !
 ! D96   D(28,26,48,49)        146.8081         estimate D2E/DX2                !
 ! D97   D(28,26,48,50)         26.9063         estimate D2E/DX2                !
 ! D98   D(28,26,48,51)        -93.9846         estimate D2E/DX2                !
 ! D99   D(25,27,28,26)          0.5955         estimate D2E/DX2                !
 ! D100  D(25,27,28,47)       -178.1296         estimate D2E/DX2                !
 ! D101  D(29,27,28,26)        178.9633         estimate D2E/DX2                !
 ! D102  D(29,27,28,47)          0.2381         estimate D2E/DX2                !
 ! D103  D(22,31,32,34)        179.9272         estimate D2E/DX2                !
 ! D104  D(22,31,32,35)          0.0119         estimate D2E/DX2                !
 ! D105  D(33,31,32,34)          0.0028         estimate D2E/DX2                !
 ! D106  D(33,31,32,35)       -179.9126         estimate D2E/DX2                !
 ! D107  D(22,31,33,36)       -179.9579         estimate D2E/DX2                !
 ! D108  D(22,31,33,37)         -0.0059         estimate D2E/DX2                !
 ! D109  D(32,31,33,36)         -0.0335         estimate D2E/DX2                !
 ! D110  D(32,31,33,37)        179.9185         estimate D2E/DX2                !
 ! D111  D(31,32,34,38)          0.0135         estimate D2E/DX2                !
 ! D112  D(31,32,34,39)       -179.9405         estimate D2E/DX2                !
 ! D113  D(35,32,34,38)        179.9284         estimate D2E/DX2                !
 ! D114  D(35,32,34,39)         -0.0257         estimate D2E/DX2                !
 ! D115  D(31,33,36,38)          0.0477         estimate D2E/DX2                !
 ! D116  D(31,33,36,40)        179.9825         estimate D2E/DX2                !
 ! D117  D(37,33,36,38)       -179.9038         estimate D2E/DX2                !
 ! D118  D(37,33,36,40)          0.0309         estimate D2E/DX2                !
 ! D119  D(32,34,38,36)          0.0007         estimate D2E/DX2                !
 ! D120  D(32,34,38,41)       -179.9882         estimate D2E/DX2                !
 ! D121  D(39,34,38,36)        179.9538         estimate D2E/DX2                !
 ! D122  D(39,34,38,41)         -0.0351         estimate D2E/DX2                !
 ! D123  D(33,36,38,34)         -0.0314         estimate D2E/DX2                !
 ! D124  D(33,36,38,41)        179.9584         estimate D2E/DX2                !
 ! D125  D(40,36,38,34)       -179.9682         estimate D2E/DX2                !
 ! D126  D(40,36,38,41)          0.0217         estimate D2E/DX2                !
 ! D127  D(34,38,41,42)          0.1816         estimate D2E/DX2                !
 ! D128  D(36,38,41,42)       -179.8077         estimate D2E/DX2                !
 ! D129  D(38,41,42,43)        179.9058         estimate D2E/DX2                !
 ! D130  D(38,41,42,44)        -61.2142         estimate D2E/DX2                !
 ! D131  D(38,41,42,45)         61.0228         estimate D2E/DX2                !
 --------------------------------------------------------------------------------
 Trust Radius=3.00D-01 FncErr=1.00D-07 GrdErr=1.00D-06
 Number of steps in this run=    287 maximum allowed number of steps=    306.
 GradGradGradGradGradGradGradGradGradGradGradGradGradGradGradGradGradGrad

 Leave Link  103 at Wed Mar 31 11:57:09 2021, MaxMem=  5242880000 cpu:         0.2
 (Enter /opt/nce/packages/global/g09/l202.exe)
 Symmetry turned off by external request.
 Stoichiometry    C26H19BF3NO
 Framework group  C1[X(C26H19BF3NO)]
 Deg. of freedom   147
 Full point group                 C1      NOp   1
                          Input orientation:                          
 ---------------------------------------------------------------------
 Center     Atomic      Atomic             Coordinates (Angstroms)
 Number     Number       Type             X           Y           Z
 ---------------------------------------------------------------------
      1          6           0        0.687089    3.333469    0.920380
      2          6           0        1.493318    2.252387    0.619856
      3          6           0        0.923232    0.966936    0.464615
      4          6           0       -0.492854    0.793804    0.595479
      5          6           0       -1.275966    1.932682    0.952582
      6          6           0       -0.703778    3.175934    1.101384
      7          6           0       -1.073664   -0.500706    0.413608
      8          6           0       -0.205739   -1.595680    0.108576
      9          6           0        1.209141   -1.392528    0.037266
     10          6           0        2.064607   -2.488733   -0.230132
     11          1           0        3.141303   -2.337127   -0.261586
     12          6           0        1.530814   -3.741369   -0.461594
     13          6           0        0.133895   -3.947872   -0.462769
     14          6           0       -0.711128   -2.895203   -0.191647
     15          1           0        1.141323    4.320344    1.034923
     16          1           0        2.566799    2.384414    0.504729
     17          1           0       -2.346002    1.805153    1.103425
     18          1           0       -1.325083    4.033166    1.365114
     19          1           0        2.203554   -4.576292   -0.670549
     20          1           0       -0.274167   -4.933057   -0.694688
     21          1           0       -1.790270   -3.033435   -0.220429
     22          7           0        1.728294   -0.125780    0.206832
     23          6           0       -2.515094   -0.690735    0.524442
     24          6           0       -3.392961    0.128880   -0.220752
     25          6           0       -3.057465   -1.674350    1.385845
     26          6           0       -4.780559    0.007037   -0.133765
     27          6           0       -4.439195   -1.788214    1.504392
     28          6           0       -5.284839   -0.953937    0.758582
     29          1           0       -4.860462   -2.515507    2.203830
     30          1           0       -2.395207   -2.289439    1.999122
     31          6           0        3.154230    0.066039    0.097870
     32          6           0        3.723657    0.340620   -1.143230
     33          6           0        3.959078   -0.023010    1.239791
     34          6           0        5.102979    0.529396   -1.258687
     35          1           0        3.085356    0.409006   -2.026305
     36          6           0        5.330952    0.162622    1.133853
     37          1           0        3.501995   -0.237374    2.207702
     38          6           0        5.917078    0.441080   -0.116446
     39          1           0        5.529025    0.744144   -2.237642
     40          1           0        5.981172    0.098999    2.007559
     41          8           0        7.253448    0.606272   -0.119602
     42          6           0        7.915605    0.892680   -1.335715
     43          1           0        8.981795    0.985133   -1.094148
     44          1           0        7.781223    0.080746   -2.071523
     45          1           0        7.561664    1.840901   -1.776426
     46          1           0       -2.985285    0.872024   -0.909949
     47          1           0       -6.369017   -1.027376    0.878905
     48          5           0       -5.742345    0.997486   -1.033843
     49          9           0       -5.066651    2.229582   -1.175196
     50          9           0       -6.960097    1.172544   -0.361618
     51          9           0       -5.953057    0.423546   -2.295025
 ---------------------------------------------------------------------
 Rotational constants (GHZ):      0.2929752      0.0650026      0.0579583
 Leave Link  202 at Wed Mar 31 11:57:09 2021, MaxMem=  5242880000 cpu:         0.1
 (Enter /opt/nce/packages/global/g09/l301.exe)
 Standard basis: def2TZVP (5D, 7F)
 Ernie: Thresh=  0.10000D-02 Tol=  0.10000D-05 Strict=F.
  1106 basis functions,  1784 primitive gaussians,  1266 cartesian basis functions
   111 alpha electrons      111 beta electrons
       nuclear repulsion energy      2965.7304009032 Hartrees.
 IExCor= 4639 DFT=T Ex+Corr=wB97XD ExCW=0 ScaHFX=  1.000000
 ScaDFX=  1.000000  1.000000  1.000000  1.000000 ScalE2=  1.000000  1.000000
 IRadAn=      5 IRanWt=     -1 IRanGd=            0 ICorTp=0 IEmpDi=121
  HFx wShort=  0.000000 wLong=  0.200000 cFull=  0.222036 cShort=  0.000000 cLong=  0.777964
  DFx wShort=  0.000000 wLong=  0.200000 cFull=  0.000000 cShort=  0.000000 cLong=  1.000000
 NAtoms=   51 NActive=   51 NUniq=   51 SFac= 1.00D+00 NAtFMM=   60 NAOKFM=F Big=F
 Integral buffers will be    131072 words long.
 Raffenetti 2 integral format.
 Two-electron integral symmetry is turned off.
 R6Disp:  Grimme-D2 Dispersion energy=       -0.0424017905 Hartrees.
 Nuclear repulsion after empirical dispersion term =     2965.6879991127 Hartrees.
 ------------------------------------------------------------------------------
 Polarizable Continuum Model (PCM)
 =================================
 Model                : PCM (using non-symmetric T matrix).
 Atomic radii         : SMD-Coulomb.
 Polarization charges : Total charges.
 Charge compensation  : None.
 Solution method      : On-the-fly selection.
 Cavity type          : VdW (van der Waals Surface) (Alpha=1.000).
 Cavity algorithm     : GePol (No added spheres)
                        Default sphere list used, NSphG=   51.
                        Lebedev-Laikov grids with approx.  5.0 points / Ang**2.
                        Smoothing algorithm: York/Karplus (Gamma=1.0000).
                        Polarization charges: spherical gaussians, with
                                              point-specific exponents (IZeta= 3).
                        Self-potential: point-specific (ISelfS= 7).
                        Self-field    : sphere-specific E.n sum rule (ISelfD= 2).
 1st derivatives      : Analytical E(r).r(x)/FMM algorithm (CHGder, D1EAlg=3).
                        Cavity 1st derivative terms included.
 Solvent              : Acetonitrile, Eps=  35.688000 Eps(inf)=   1.806874
 ------------------------------------------------------------------------------
 GePol: Number of generator spheres                  =      51
 GePol: Total number of spheres                      =      51
 GePol: Number of exposed spheres                    =      51 (100.00%)
 GePol: Number of points                             =    3808
 GePol: Average weight of points                     =       0.12
 GePol: Minimum weight of points                     =   0.37D-09
 GePol: Maximum weight of points                     =    0.21559
 GePol: Number of points with low weight             =     215
 GePol: Fraction of low-weight points (<1% of avg)   =       5.65%
 GePol: Cavity surface area                          =    439.122 Ang**2
 GePol: Cavity volume                                =    430.984 Ang**3
 ------------------------------------------------------------------------------
 Atomic radii for non-electrostatic terms: SMD-CDS.
 ------------------------------------------------------------------------------
 PCM non-electrostatic energy =        -0.0068399174 Hartrees.
 Nuclear repulsion after PCM non-electrostatic terms =     2965.6811591953 Hartrees.
 Leave Link  301 at Wed Mar 31 11:57:09 2021, MaxMem=  5242880000 cpu:         1.7
 (Enter /opt/nce/packages/global/g09/l302.exe)
 NPDir=0 NMtPBC=     1 NCelOv=     1 NCel=       1 NClECP=     1 NCelD=      1
         NCelK=      1 NCelE2=     1 NClLst=     1 CellRange=     0.0.
 One-electron integrals computed using PRISM.
   1 Symmetry operations used in ECPInt.
 ECPInt:  NShTT=   91806 NPrTT=  285396 LenC2=   71439 LenP2D=  151316.
 LDataN:  DoStor=T MaxTD1= 6 Len=  172
 NBasis=  1106 RedAO= T EigKep=  5.29D-06  NBF=  1106
 NBsUse=  1106 1.00D-06 EigRej= -1.00D+00 NBFU=  1106
 Precomputing XC quadrature grid using
 IXCGrd= 4 IRadAn=           5 IRanWt=          -1 IRanGd=           0 AccXCQ= 0.00D+00.
 Generated NRdTot=       0 NPtTot=           0 NUsed=           0 NTot=          32
 NSgBfM=  1159  1159  1159  1163  1163 MxSgAt=    51 MxSgA2=    51.
 Leave Link  302 at Wed Mar 31 11:57:12 2021, MaxMem=  5242880000 cpu:        31.5
 (Enter /opt/nce/packages/global/g09/l303.exe)
 DipDrv:  MaxL=1.
 Leave Link  303 at Wed Mar 31 11:57:12 2021, MaxMem=  5242880000 cpu:         3.1
 (Enter /opt/nce/packages/global/g09/l401.exe)
 ExpMin= 6.06D-02 ExpMax= 3.55D+04 ExpMxC= 1.21D+03 IAcc=3 IRadAn=         5 AccDes= 0.00D+00
 Harris functional with IExCor= 4639 and IRadAn=       5 diagonalized for initial guess.
 HarFok:  IExCor= 4639 AccDes= 0.00D+00 IRadAn=         5 IDoV= 1 UseB2=F ITyADJ=14
 ICtDFT=  3500011 ScaDFX=  1.000000  1.000000  1.000000  1.000000
 FoFCou: FMM=F IPFlag=           0 FMFlag=      100000 FMFlg1=           0
         NFxFlg=           0 DoJE=T BraDBF=F KetDBF=T FulRan=T
         wScrn=  0.000000 ICntrl=     500 IOpCl=  0 I1Cent=   200000004 NGrid=           0
         NMat0=    1 NMatS0=      1 NMatT0=    0 NMatD0=    1 NMtDS0=    0 NMtDT0=    0
 Symmetry not used in FoFCou.
 Harris En= -1396.25195379208    
 JPrj=0 DoOrth=F DoCkMO=F.
 Leave Link  401 at Wed Mar 31 11:57:23 2021, MaxMem=  5242880000 cpu:       132.1
 (Enter /opt/nce/packages/global/g09/l502.exe)
 Closed shell SCF:
 Using DIIS extrapolation, IDIIS=  1040.
 Two-electron integral symmetry not used.
 IVT=     4849708 IEndB=     4849708 NGot=  5242880000 MDV=  5239650955
 LenX=  5239650955 LenY=  5238046933
 Requested convergence on RMS density matrix=1.00D-08 within 128 cycles.
 Requested convergence on MAX density matrix=1.00D-06.
 Requested convergence on             energy=1.00D-06.
 No special actions if energy rises.
 Fock matrices will be formed incrementally for  20 cycles.

 Cycle   1  Pass 1  IDiag  1:
 FoFJK:  IHMeth= 1 ICntrl=       0 DoSepK=T KAlg= 0 I1Cent=   0 FoldK=F
 IRaf=         1 NMat=   1 IRICut=       1 DoRegI=T DoRafI=F ISym2E= 0.
 FoFCou: FMM=F IPFlag=           0 FMFlag=      100000 FMFlg1=           0
         NFxFlg=           0 DoJE=T BraDBF=F KetDBF=F FulRan=T
         wScrn=  0.000000 ICntrl=     500 IOpCl=  0 I1Cent=           0 NGrid=           0
         NMat0=    1 NMatS0=      1 NMatT0=    0 NMatD0=    1 NMtDS0=    0 NMtDT0=    0
 Symmetry not used in FoFCou.
 Inv3:  Mode=1 IEnd=    43502592.
 Iteration    1 A*A^-1 deviation from unit magnitude is 7.11D-15 for   3808.
 Iteration    1 A*A^-1 deviation from orthogonality  is 2.66D-15 for   3239    419.
 Iteration    1 A^-1*A deviation from unit magnitude is 7.11D-15 for   3808.
 Iteration    1 A^-1*A deviation from orthogonality  is 2.36D-10 for   3221   3150.
 Iteration    2 A*A^-1 deviation from unit magnitude is 3.00D-15 for    417.
 Iteration    2 A*A^-1 deviation from orthogonality  is 2.26D-15 for   2109    152.
 Iteration    2 A^-1*A deviation from unit magnitude is 8.88D-16 for    698.
 Iteration    2 A^-1*A deviation from orthogonality  is 3.33D-16 for   3362     64.
 E= -1456.28168809029    
 DIIS: error= 6.01D-02 at cycle   1 NSaved=   1.
 NSaved= 1 IEnMin= 1 EnMin= -1456.28168809029     IErMin= 1 ErrMin= 6.01D-02
 ErrMax= 6.01D-02  0.00D+00 EMaxC= 1.00D-01 BMatC= 3.39D+00 BMatP= 3.39D+00
 IDIUse=3 WtCom= 3.99D-01 WtEn= 6.01D-01
 Coeff-Com:  0.100D+01
 Coeff-En:   0.100D+01
 Coeff:      0.100D+01
 Gap=     0.292 Goal=   None    Shift=    0.000
 GapD=    0.292 DampG=1.000 DampE=0.500 DampFc=0.5000 IDamp=-1.
 Damping current iteration by 5.00D-01
 RMSDP=2.21D-03 MaxDP=2.79D-01              OVMax= 1.93D-01

 Cycle   2  Pass 1  IDiag  1:
 RMSU=  9.31D-04    CP:  9.03D-01
 E= -1456.54130275893     Delta-E=       -0.259614668641 Rises=F Damp=T
 DIIS: error= 2.54D-02 at cycle   2 NSaved=   2.
 NSaved= 2 IEnMin= 2 EnMin= -1456.54130275893     IErMin= 2 ErrMin= 2.54D-02
 ErrMax= 2.54D-02  0.00D+00 EMaxC= 1.00D-01 BMatC= 6.55D-01 BMatP= 3.39D+00
 IDIUse=3 WtCom= 7.46D-01 WtEn= 2.54D-01
 Coeff-Com: -0.489D+00 0.149D+01
 Coeff-En:   0.000D+00 0.100D+01
 Coeff:     -0.365D+00 0.136D+01
 Gap=     0.316 Goal=   None    Shift=    0.000
 RMSDP=8.14D-04 MaxDP=6.91D-02 DE=-2.60D-01 OVMax= 2.58D-01

 Cycle   3  Pass 1  IDiag  1:
 RMSU=  6.59D-04    CP:  8.51D-01  1.39D+00
 E= -1456.70698769716     Delta-E=       -0.165684938230 Rises=F Damp=F
 DIIS: error= 1.60D-02 at cycle   3 NSaved=   3.
 NSaved= 3 IEnMin= 3 EnMin= -1456.70698769716     IErMin= 3 ErrMin= 1.60D-02
 ErrMax= 1.60D-02  0.00D+00 EMaxC= 1.00D-01 BMatC= 1.81D-01 BMatP= 6.55D-01
 IDIUse=3 WtCom= 8.40D-01 WtEn= 1.60D-01
 Coeff-Com: -0.315D+00 0.691D+00 0.624D+00
 Coeff-En:   0.000D+00 0.000D+00 0.100D+01
 Coeff:     -0.265D+00 0.580D+00 0.685D+00
 Gap=     0.263 Goal=   None    Shift=    0.000
 RMSDP=4.81D-04 MaxDP=7.29D-02 DE=-1.66D-01 OVMax= 1.10D-01

 Cycle   4  Pass 1  IDiag  1:
 RMSU=  1.58D-04    CP:  8.23D-01  1.74D+00  6.08D-01
 E= -1456.83150743413     Delta-E=       -0.124519736968 Rises=F Damp=F
 DIIS: error= 3.52D-03 at cycle   4 NSaved=   4.
 NSaved= 4 IEnMin= 4 EnMin= -1456.83150743413     IErMin= 4 ErrMin= 3.52D-03
 ErrMax= 3.52D-03  0.00D+00 EMaxC= 1.00D-01 BMatC= 1.59D-02 BMatP= 1.81D-01
 IDIUse=3 WtCom= 9.65D-01 WtEn= 3.52D-02
 Coeff-Com: -0.140D+00 0.304D+00 0.386D+00 0.450D+00
 Coeff-En:   0.000D+00 0.000D+00 0.394D-02 0.996D+00
 Coeff:     -0.135D+00 0.293D+00 0.373D+00 0.469D+00
 Gap=     0.241 Goal=   None    Shift=    0.000
 RMSDP=8.54D-05 MaxDP=1.43D-02 DE=-1.25D-01 OVMax= 2.91D-02

 Cycle   5  Pass 1  IDiag  1:
 RMSU=  5.50D-05    CP:  8.25D-01  1.71D+00  6.90D-01  9.08D-01
 E= -1456.84395191278     Delta-E=       -0.012444478650 Rises=F Damp=F
 DIIS: error= 5.46D-04 at cycle   5 NSaved=   5.
 NSaved= 5 IEnMin= 5 EnMin= -1456.84395191278     IErMin= 5 ErrMin= 5.46D-04
 ErrMax= 5.46D-04  0.00D+00 EMaxC= 1.00D-01 BMatC= 1.14D-04 BMatP= 1.59D-02
 IDIUse=3 WtCom= 9.95D-01 WtEn= 5.46D-03
 Coeff-Com:  0.257D-01-0.567D-01-0.304D-01 0.636D-01 0.998D+00
 Coeff-En:   0.000D+00 0.000D+00 0.000D+00 0.000D+00 0.100D+01
 Coeff:      0.256D-01-0.564D-01-0.302D-01 0.633D-01 0.998D+00
 Gap=     0.243 Goal=   None    Shift=    0.000
 RMSDP=3.37D-05 MaxDP=2.63D-03 DE=-1.24D-02 OVMax= 8.68D-03

 Cycle   6  Pass 1  IDiag  1:
 RMSU=  2.25D-05    CP:  8.24D-01  1.72D+00  7.04D-01  1.03D+00  1.13D+00
 E= -1456.84415768884     Delta-E=       -0.000205776059 Rises=F Damp=F
 DIIS: error= 1.88D-04 at cycle   6 NSaved=   6.
 NSaved= 6 IEnMin= 6 EnMin= -1456.84415768884     IErMin= 6 ErrMin= 1.88D-04
 ErrMax= 1.88D-04  0.00D+00 EMaxC= 1.00D-01 BMatC= 2.78D-05 BMatP= 1.14D-04
 IDIUse=3 WtCom= 9.98D-01 WtEn= 1.88D-03
 Coeff-Com:  0.163D-01-0.355D-01-0.315D-01-0.116D-01 0.393D+00 0.670D+00
 Coeff-En:   0.000D+00 0.000D+00 0.000D+00 0.000D+00 0.000D+00 0.100D+01
 Coeff:      0.162D-01-0.354D-01-0.315D-01-0.116D-01 0.392D+00 0.670D+00
 Gap=     0.243 Goal=   None    Shift=    0.000
 RMSDP=8.76D-06 MaxDP=8.72D-04 DE=-2.06D-04 OVMax= 1.80D-03

 Cycle   7  Pass 1  IDiag  1:
 RMSU=  6.32D-06    CP:  8.24D-01  1.72D+00  7.05D-01  1.05D+00  1.20D+00
                    CP:  1.07D+00
 E= -1456.84419564268     Delta-E=       -0.000037953841 Rises=F Damp=F
 DIIS: error= 1.49D-04 at cycle   7 NSaved=   7.
 NSaved= 7 IEnMin= 7 EnMin= -1456.84419564268     IErMin= 7 ErrMin= 1.49D-04
 ErrMax= 1.49D-04  0.00D+00 EMaxC= 1.00D-01 BMatC= 4.12D-06 BMatP= 2.78D-05
 IDIUse=3 WtCom= 9.99D-01 WtEn= 1.49D-03
 Coeff-Com:  0.210D-04 0.753D-04-0.453D-02-0.228D-01-0.563D-01 0.216D+00
 Coeff-Com:  0.867D+00
 Coeff-En:   0.000D+00 0.000D+00 0.000D+00 0.000D+00 0.000D+00 0.000D+00
 Coeff-En:   0.100D+01
 Coeff:      0.210D-04 0.752D-04-0.452D-02-0.227D-01-0.562D-01 0.216D+00
 Coeff:      0.867D+00
 Gap=     0.243 Goal=   None    Shift=    0.000
 RMSDP=5.75D-06 MaxDP=6.82D-04 DE=-3.80D-05 OVMax= 2.59D-03

 Cycle   8  Pass 1  IDiag  1:
 RMSU=  3.62D-06    CP:  8.24D-01  1.72D+00  7.06D-01  1.05D+00  1.22D+00
                    CP:  1.24D+00  1.12D+00
 E= -1456.84420646565     Delta-E=       -0.000010822966 Rises=F Damp=F
 DIIS: error= 6.60D-05 at cycle   8 NSaved=   8.
 NSaved= 8 IEnMin= 8 EnMin= -1456.84420646565     IErMin= 8 ErrMin= 6.60D-05
 ErrMax= 6.60D-05  0.00D+00 EMaxC= 1.00D-01 BMatC= 8.89D-07 BMatP= 4.12D-06
 IDIUse=1 WtCom= 1.00D+00 WtEn= 0.00D+00
 Coeff-Com: -0.268D-02 0.586D-02 0.347D-02-0.884D-02-0.789D-01-0.476D-01
 Coeff-Com:  0.275D+00 0.854D+00
 Coeff:     -0.268D-02 0.586D-02 0.347D-02-0.884D-02-0.789D-01-0.476D-01
 Coeff:      0.275D+00 0.854D+00
 Gap=     0.243 Goal=   None    Shift=    0.000
 RMSDP=2.48D-06 MaxDP=1.82D-04 DE=-1.08D-05 OVMax= 1.43D-03

 Cycle   9  Pass 1  IDiag  1:
 RMSU=  1.30D-06    CP:  8.24D-01  1.72D+00  7.06D-01  1.06D+00  1.23D+00
                    CP:  1.30D+00  1.28D+00  1.31D+00
 E= -1456.84420919863     Delta-E=       -0.000002732980 Rises=F Damp=F
 DIIS: error= 3.52D-05 at cycle   9 NSaved=   9.
 NSaved= 9 IEnMin= 9 EnMin= -1456.84420919863     IErMin= 9 ErrMin= 3.52D-05
 ErrMax= 3.52D-05  0.00D+00 EMaxC= 1.00D-01 BMatC= 1.54D-07 BMatP= 8.89D-07
 IDIUse=1 WtCom= 1.00D+00 WtEn= 0.00D+00
 Coeff-Com: -0.722D-03 0.154D-02 0.187D-02 0.110D-02-0.534D-02-0.639D-01
 Coeff-Com: -0.108D+00 0.200D+00 0.973D+00
 Coeff:     -0.722D-03 0.154D-02 0.187D-02 0.110D-02-0.534D-02-0.639D-01
 Coeff:     -0.108D+00 0.200D+00 0.973D+00
 Gap=     0.243 Goal=   None    Shift=    0.000
 RMSDP=1.64D-06 MaxDP=1.93D-04 DE=-2.73D-06 OVMax= 9.08D-04

 Cycle  10  Pass 1  IDiag  1:
 RMSU=  5.99D-07    CP:  8.24D-01  1.72D+00  7.07D-01  1.05D+00  1.23D+00
                    CP:  1.32D+00  1.36D+00  1.57D+00  1.41D+00
 E= -1456.84420991210     Delta-E=       -0.000000713475 Rises=F Damp=F
 DIIS: error= 1.63D-05 at cycle  10 NSaved=  10.
 NSaved=10 IEnMin=10 EnMin= -1456.84420991210     IErMin=10 ErrMin= 1.63D-05
 ErrMax= 1.63D-05  0.00D+00 EMaxC= 1.00D-01 BMatC= 2.64D-08 BMatP= 1.54D-07
 IDIUse=1 WtCom= 1.00D+00 WtEn= 0.00D+00
 Coeff-Com:  0.337D-03-0.737D-03-0.268D-03 0.138D-02 0.132D-01-0.975D-02
 Coeff-Com: -0.691D-01-0.115D+00 0.273D+00 0.907D+00
 Coeff:      0.337D-03-0.737D-03-0.268D-03 0.138D-02 0.132D-01-0.975D-02
 Coeff:     -0.691D-01-0.115D+00 0.273D+00 0.907D+00
 Gap=     0.243 Goal=   None    Shift=    0.000
 RMSDP=6.14D-07 MaxDP=4.13D-05 DE=-7.13D-07 OVMax= 4.12D-04

 Cycle  11  Pass 1  IDiag  1:
 RMSU=  2.96D-07    CP:  8.24D-01  1.72D+00  7.07D-01  1.05D+00  1.23D+00
                    CP:  1.32D+00  1.40D+00  1.64D+00  1.65D+00  1.37D+00
 E= -1456.84421003739     Delta-E=       -0.000000125292 Rises=F Damp=F
 DIIS: error= 5.58D-06 at cycle  11 NSaved=  11.
 NSaved=11 IEnMin=11 EnMin= -1456.84421003739     IErMin=11 ErrMin= 5.58D-06
 ErrMax= 5.58D-06  0.00D+00 EMaxC= 1.00D-01 BMatC= 4.35D-09 BMatP= 2.64D-08
 IDIUse=1 WtCom= 1.00D+00 WtEn= 0.00D+00
 Coeff-Com:  0.219D-03-0.472D-03-0.390D-03 0.225D-03 0.518D-02 0.705D-02
 Coeff-Com:  0.186D-02-0.699D-01-0.992D-01 0.215D+00 0.941D+00
 Coeff:      0.219D-03-0.472D-03-0.390D-03 0.225D-03 0.518D-02 0.705D-02
 Coeff:      0.186D-02-0.699D-01-0.992D-01 0.215D+00 0.941D+00
 Gap=     0.243 Goal=   None    Shift=    0.000
 RMSDP=2.82D-07 MaxDP=2.03D-05 DE=-1.25D-07 OVMax= 1.77D-04

 Cycle  12  Pass 1  IDiag  1:
 RMSU=  1.08D-07    CP:  8.24D-01  1.72D+00  7.07D-01  1.05D+00  1.23D+00
                    CP:  1.32D+00  1.41D+00  1.67D+00  1.76D+00  1.61D+00
                    CP:  1.39D+00
 E= -1456.84421006127     Delta-E=       -0.000000023876 Rises=F Damp=F
 DIIS: error= 2.27D-06 at cycle  12 NSaved=  12.
 NSaved=12 IEnMin=12 EnMin= -1456.84421006127     IErMin=12 ErrMin= 2.27D-06
 ErrMax= 2.27D-06  0.00D+00 EMaxC= 1.00D-01 BMatC= 8.55D-10 BMatP= 4.35D-09
 IDIUse=1 WtCom= 1.00D+00 WtEn= 0.00D+00
 Coeff-Com: -0.192D-06 0.131D-05-0.619D-04-0.219D-03-0.822D-03 0.349D-02
 Coeff-Com:  0.158D-01 0.307D-02-0.838D-01-0.119D+00 0.295D+00 0.887D+00
 Coeff:     -0.192D-06 0.131D-05-0.619D-04-0.219D-03-0.822D-03 0.349D-02
 Coeff:      0.158D-01 0.307D-02-0.838D-01-0.119D+00 0.295D+00 0.887D+00
 Gap=     0.243 Goal=   None    Shift=    0.000
 RMSDP=1.22D-07 MaxDP=1.06D-05 DE=-2.39D-08 OVMax= 6.44D-05

 Cycle  13  Pass 1  IDiag  1:
 RMSU=  4.65D-08    CP:  8.24D-01  1.72D+00  7.07D-01  1.05D+00  1.23D+00
                    CP:  1.32D+00  1.41D+00  1.67D+00  1.79D+00  1.68D+00
                    CP:  1.63D+00  1.35D+00
 E= -1456.84421006520     Delta-E=       -0.000000003925 Rises=F Damp=F
 DIIS: error= 4.67D-07 at cycle  13 NSaved=  13.
 NSaved=13 IEnMin=13 EnMin= -1456.84421006520     IErMin=13 ErrMin= 4.67D-07
 ErrMax= 4.67D-07  0.00D+00 EMaxC= 1.00D-01 BMatC= 1.49D-10 BMatP= 8.55D-10
 IDIUse=1 WtCom= 1.00D+00 WtEn= 0.00D+00
 Coeff-Com: -0.231D-04 0.502D-04 0.208D-04-0.124D-03-0.868D-03-0.286D-03
 Coeff-Com:  0.388D-02 0.112D-01-0.104D-01-0.682D-01-0.676D-01 0.248D+00
 Coeff-Com:  0.885D+00
 Coeff:     -0.231D-04 0.502D-04 0.208D-04-0.124D-03-0.868D-03-0.286D-03
 Coeff:      0.388D-02 0.112D-01-0.104D-01-0.682D-01-0.676D-01 0.248D+00
 Coeff:      0.885D+00
 Gap=     0.243 Goal=   None    Shift=    0.000
 RMSDP=4.85D-08 MaxDP=2.71D-06 DE=-3.93D-09 OVMax= 2.49D-05

 Cycle  14  Pass 1  IDiag  1:
 RMSU=  1.75D-08    CP:  8.24D-01  1.72D+00  7.07D-01  1.05D+00  1.23D+00
                    CP:  1.32D+00  1.42D+00  1.67D+00  1.79D+00  1.71D+00
                    CP:  1.70D+00  1.57D+00  1.23D+00
 E= -1456.84421006576     Delta-E=       -0.000000000564 Rises=F Damp=F
 DIIS: error= 1.81D-07 at cycle  14 NSaved=  14.
 NSaved=14 IEnMin=14 EnMin= -1456.84421006576     IErMin=14 ErrMin= 1.81D-07
 ErrMax= 1.81D-07  0.00D+00 EMaxC= 1.00D-01 BMatC= 1.88D-11 BMatP= 1.49D-10
 IDIUse=1 WtCom= 1.00D+00 WtEn= 0.00D+00
 Coeff-Com: -0.700D-05 0.151D-04 0.150D-04-0.154D-04-0.144D-03-0.614D-03
 Coeff-Com: -0.974D-03 0.325D-02 0.816D-02-0.340D-02-0.579D-01-0.573D-01
 Coeff-Com:  0.247D+00 0.862D+00
 Coeff:     -0.700D-05 0.151D-04 0.150D-04-0.154D-04-0.144D-03-0.614D-03
 Coeff:     -0.974D-03 0.325D-02 0.816D-02-0.340D-02-0.579D-01-0.573D-01
 Coeff:      0.247D+00 0.862D+00
 Gap=     0.243 Goal=   None    Shift=    0.000
 RMSDP=1.46D-08 MaxDP=9.12D-07 DE=-5.64D-10 OVMax= 6.04D-06

 Cycle  15  Pass 1  IDiag  1:
 RMSU=  6.94D-09    CP:  8.24D-01  1.72D+00  7.07D-01  1.05D+00  1.23D+00
                    CP:  1.32D+00  1.42D+00  1.67D+00  1.79D+00  1.71D+00
                    CP:  1.72D+00  1.63D+00  1.36D+00  1.23D+00
 E= -1456.84421006578     Delta-E=       -0.000000000024 Rises=F Damp=F
 DIIS: error= 5.62D-08 at cycle  15 NSaved=  15.
 NSaved=15 IEnMin=15 EnMin= -1456.84421006578     IErMin=15 ErrMin= 5.62D-08
 ErrMax= 5.62D-08  0.00D+00 EMaxC= 1.00D-01 BMatC= 2.34D-12 BMatP= 1.88D-11
 IDIUse=1 WtCom= 1.00D+00 WtEn= 0.00D+00
 Coeff-Com:  0.592D-06-0.136D-05 0.279D-05 0.128D-04 0.697D-04-0.155D-03
 Coeff-Com: -0.740D-03-0.540D-03 0.348D-02 0.826D-02-0.385D-02-0.509D-01
 Coeff-Com: -0.619D-01 0.231D+00 0.875D+00
 Coeff:      0.592D-06-0.136D-05 0.279D-05 0.128D-04 0.697D-04-0.155D-03
 Coeff:     -0.740D-03-0.540D-03 0.348D-02 0.826D-02-0.385D-02-0.509D-01
 Coeff:     -0.619D-01 0.231D+00 0.875D+00
 Gap=     0.243 Goal=   None    Shift=    0.000
 RMSDP=4.99D-09 MaxDP=3.00D-07 DE=-2.36D-11 OVMax= 1.19D-06

 Error on total polarization charges =  0.05668
 SCF Done:  E(RwB97XD) =  -1456.84421007     A.U. after   15 cycles
            NFock= 15  Conv=0.50D-08     -V/T= 2.0052
 KE= 1.449262287466D+03 PE=-9.333265865468D+03 EE= 3.461478208741D+03
 SMD-CDS (non-electrostatic) energy       (kcal/mol) =      -4.29
 (included in total energy above)
 Leave Link  502 at Wed Mar 31 12:37:14 2021, MaxMem=  5242880000 cpu:     28627.0
 (Enter /opt/nce/packages/global/g09/l601.exe)
 Copying SCF densities to generalized density rwf, IOpCl= 0 IROHF=0.

 **********************************************************************

            Population analysis using the SCF density.

 **********************************************************************

 Alpha  occ. eigenvalues --  -24.74781 -24.74779 -24.74553 -19.28893 -14.53540
 Alpha  occ. eigenvalues --  -10.37696 -10.37692 -10.36412 -10.36363 -10.33888
 Alpha  occ. eigenvalues --  -10.33449 -10.33417 -10.32944 -10.31595 -10.31566
 Alpha  occ. eigenvalues --  -10.31240 -10.31171 -10.30985 -10.30827 -10.30791
 Alpha  occ. eigenvalues --  -10.30747 -10.30704 -10.30343 -10.30274 -10.29787
 Alpha  occ. eigenvalues --  -10.29685 -10.29680 -10.28893 -10.28891 -10.28558
 Alpha  occ. eigenvalues --  -10.25851  -6.89535  -1.27177  -1.23139  -1.22893
 Alpha  occ. eigenvalues --   -1.18089  -1.12721  -0.99851  -0.98501  -0.96645
 Alpha  occ. eigenvalues --   -0.95448  -0.92566  -0.88701  -0.87611  -0.87036
 Alpha  occ. eigenvalues --   -0.86251  -0.85035  -0.84145  -0.83977  -0.79962
 Alpha  occ. eigenvalues --   -0.77871  -0.75678  -0.74418  -0.72191  -0.71068
 Alpha  occ. eigenvalues --   -0.69947  -0.69646  -0.67690  -0.66073  -0.65767
 Alpha  occ. eigenvalues --   -0.64348  -0.62881  -0.62057  -0.60523  -0.59824
 Alpha  occ. eigenvalues --   -0.58692  -0.57441  -0.56928  -0.56767  -0.56489
 Alpha  occ. eigenvalues --   -0.56271  -0.56027  -0.54821  -0.54346  -0.54104
 Alpha  occ. eigenvalues --   -0.53999  -0.53353  -0.53171  -0.52347  -0.52296
 Alpha  occ. eigenvalues --   -0.51894  -0.50314  -0.49954  -0.49185  -0.48295
 Alpha  occ. eigenvalues --   -0.48136  -0.48014  -0.47694  -0.47654  -0.46531
 Alpha  occ. eigenvalues --   -0.45925  -0.45766  -0.45332  -0.45061  -0.44719
 Alpha  occ. eigenvalues --   -0.44276  -0.44128  -0.43573  -0.43532  -0.41627
 Alpha  occ. eigenvalues --   -0.41514  -0.41428  -0.40675  -0.36340  -0.35664
 Alpha  occ. eigenvalues --   -0.34513  -0.34361  -0.33270  -0.32570  -0.31077
 Alpha  occ. eigenvalues --   -0.30355
 Alpha virt. eigenvalues --   -0.06033   0.01506   0.03324   0.03729   0.04930
 Alpha virt. eigenvalues --    0.05253   0.06161   0.07096   0.10574   0.11872
 Alpha virt. eigenvalues --    0.12641   0.12703   0.13955   0.14237   0.14547
 Alpha virt. eigenvalues --    0.15453   0.15602   0.15964   0.16606   0.16799
 Alpha virt. eigenvalues --    0.17215   0.17547   0.17745   0.18375   0.19030
 Alpha virt. eigenvalues --    0.19223   0.19432   0.19787   0.20031   0.20301
 Alpha virt. eigenvalues --    0.20438   0.20673   0.21071   0.21429   0.21564
 Alpha virt. eigenvalues --    0.22150   0.22462   0.23364   0.24276   0.24370
 Alpha virt. eigenvalues --    0.24930   0.25530   0.25835   0.26453   0.26501
 Alpha virt. eigenvalues --    0.26783   0.27551   0.28038   0.28426   0.28653
 Alpha virt. eigenvalues --    0.28719   0.29262   0.29600   0.29809   0.30063
 Alpha virt. eigenvalues --    0.30171   0.30364   0.30630   0.31124   0.31433
 Alpha virt. eigenvalues --    0.31509   0.31724   0.32160   0.32601   0.33209
 Alpha virt. eigenvalues --    0.33468   0.34039   0.34202   0.34323   0.35292
 Alpha virt. eigenvalues --    0.35449   0.35645   0.35924   0.36363   0.36409
 Alpha virt. eigenvalues --    0.36698   0.36884   0.37342   0.37922   0.38116
 Alpha virt. eigenvalues --    0.38360   0.38724   0.39696   0.40058   0.40178
 Alpha virt. eigenvalues --    0.40778   0.40891   0.41401   0.41648   0.42177
 Alpha virt. eigenvalues --    0.42289   0.42448   0.43167   0.43250   0.43658
 Alpha virt. eigenvalues --    0.43883   0.44126   0.44544   0.44695   0.44923
 Alpha virt. eigenvalues --    0.44985   0.45363   0.45510   0.46074   0.46434
 Alpha virt. eigenvalues --    0.46897   0.47558   0.47914   0.48570   0.48689
 Alpha virt. eigenvalues --    0.48855   0.48998   0.49490   0.49687   0.50085
 Alpha virt. eigenvalues --    0.50204   0.50584   0.50994   0.51213   0.51711
 Alpha virt. eigenvalues --    0.51824   0.51966   0.52390   0.52450   0.52644
 Alpha virt. eigenvalues --    0.53170   0.53668   0.53775   0.53966   0.54509
 Alpha virt. eigenvalues --    0.54521   0.54934   0.55450   0.55628   0.56099
 Alpha virt. eigenvalues --    0.56358   0.56975   0.57143   0.57231   0.57420
 Alpha virt. eigenvalues --    0.58004   0.58196   0.58361   0.59067   0.59173
 Alpha virt. eigenvalues --    0.60414   0.60955   0.61685   0.62267   0.62591
 Alpha virt. eigenvalues --    0.62961   0.64121   0.64525   0.64971   0.65255
 Alpha virt. eigenvalues --    0.66351   0.66969   0.67012   0.67633   0.67802
 Alpha virt. eigenvalues --    0.68148   0.68636   0.69383   0.69832   0.69980
 Alpha virt. eigenvalues --    0.70221   0.70473   0.71152   0.71763   0.72227
 Alpha virt. eigenvalues --    0.72386   0.73160   0.73421   0.73708   0.73763
 Alpha virt. eigenvalues --    0.73927   0.74219   0.74590   0.74907   0.75228
 Alpha virt. eigenvalues --    0.75770   0.75880   0.76398   0.76518   0.77197
 Alpha virt. eigenvalues --    0.77379   0.77770   0.77906   0.78481   0.78712
 Alpha virt. eigenvalues --    0.79027   0.79129   0.79464   0.80028   0.80459
 Alpha virt. eigenvalues --    0.80781   0.81333   0.81504   0.81595   0.82095
 Alpha virt. eigenvalues --    0.82267   0.82546   0.82727   0.83232   0.83650
 Alpha virt. eigenvalues --    0.83940   0.84747   0.84989   0.85344   0.86011
 Alpha virt. eigenvalues --    0.86227   0.86604   0.86879   0.87266   0.88316
 Alpha virt. eigenvalues --    0.88519   0.89113   0.89302   0.89640   0.90314
 Alpha virt. eigenvalues --    0.90905   0.91368   0.91457   0.92092   0.92882
 Alpha virt. eigenvalues --    0.93183   0.93258   0.93913   0.94178   0.94455
 Alpha virt. eigenvalues --    0.95055   0.95359   0.95918   0.96250   0.96718
 Alpha virt. eigenvalues --    0.97413   0.97909   0.99173   0.99493   1.00105
 Alpha virt. eigenvalues --    1.00613   1.01080   1.01634   1.02132   1.02809
 Alpha virt. eigenvalues --    1.03496   1.03540   1.04244   1.04983   1.05310
 Alpha virt. eigenvalues --    1.06189   1.07175   1.07408   1.07933   1.08577
 Alpha virt. eigenvalues --    1.09096   1.10123   1.10841   1.11632   1.12030
 Alpha virt. eigenvalues --    1.12455   1.13087   1.13365   1.14386   1.15010
 Alpha virt. eigenvalues --    1.15452   1.15625   1.16419   1.16851   1.17576
 Alpha virt. eigenvalues --    1.17771   1.18162   1.18904   1.19462   1.20209
 Alpha virt. eigenvalues --    1.20794   1.21662   1.21824   1.22378   1.24249
 Alpha virt. eigenvalues --    1.24469   1.24926   1.25350   1.26552   1.27006
 Alpha virt. eigenvalues --    1.27352   1.27843   1.28822   1.29687   1.29802
 Alpha virt. eigenvalues --    1.30287   1.30919   1.31565   1.31767   1.31980
 Alpha virt. eigenvalues --    1.32777   1.32936   1.33583   1.33772   1.34543
 Alpha virt. eigenvalues --    1.34913   1.36104   1.36390   1.36729   1.37255
 Alpha virt. eigenvalues --    1.38205   1.38378   1.38708   1.38811   1.38999
 Alpha virt. eigenvalues --    1.39659   1.40709   1.41263   1.41701   1.42381
 Alpha virt. eigenvalues --    1.42865   1.44227   1.45195   1.45599   1.45974
 Alpha virt. eigenvalues --    1.47211   1.47621   1.49674   1.49864   1.50395
 Alpha virt. eigenvalues --    1.50875   1.51095   1.51951   1.52283   1.52823
 Alpha virt. eigenvalues --    1.53215   1.53645   1.55176   1.55632   1.56226
 Alpha virt. eigenvalues --    1.56647   1.57043   1.57256   1.57707   1.58562
 Alpha virt. eigenvalues --    1.59323   1.59585   1.59943   1.60395   1.61209
 Alpha virt. eigenvalues --    1.61345   1.62108   1.62276   1.62410   1.62790
 Alpha virt. eigenvalues --    1.63494   1.63672   1.64625   1.64913   1.65387
 Alpha virt. eigenvalues --    1.65992   1.66252   1.67112   1.67198   1.67705
 Alpha virt. eigenvalues --    1.68113   1.68455   1.69645   1.70233   1.70308
 Alpha virt. eigenvalues --    1.71052   1.71650   1.72662   1.73072   1.73610
 Alpha virt. eigenvalues --    1.74118   1.74660   1.75359   1.75877   1.76139
 Alpha virt. eigenvalues --    1.76573   1.77352   1.77557   1.78015   1.78161
 Alpha virt. eigenvalues --    1.78347   1.79277   1.80000   1.80446   1.81124
 Alpha virt. eigenvalues --    1.81671   1.82451   1.83297   1.83720   1.84046
 Alpha virt. eigenvalues --    1.84262   1.84547   1.85187   1.86045   1.86468
 Alpha virt. eigenvalues --    1.86787   1.87156   1.88323   1.88806   1.90162
 Alpha virt. eigenvalues --    1.91973   1.92200   1.92874   1.93003   1.93342
 Alpha virt. eigenvalues --    1.93883   1.94536   1.95268   1.96150   1.96408
 Alpha virt. eigenvalues --    1.97146   1.97596   1.97965   1.98086   1.98851
 Alpha virt. eigenvalues --    2.00016   2.00361   2.01315   2.02249   2.02919
 Alpha virt. eigenvalues --    2.03641   2.03848   2.04152   2.04744   2.06002
 Alpha virt. eigenvalues --    2.06357   2.07807   2.08211   2.08486   2.09054
 Alpha virt. eigenvalues --    2.09856   2.10442   2.11090   2.12168   2.12887
 Alpha virt. eigenvalues --    2.14285   2.14621   2.14965   2.15786   2.16144
 Alpha virt. eigenvalues --    2.16556   2.16726   2.17652   2.19119   2.19254
 Alpha virt. eigenvalues --    2.19292   2.20146   2.21089   2.21502   2.22288
 Alpha virt. eigenvalues --    2.23227   2.24227   2.24545   2.24921   2.25308
 Alpha virt. eigenvalues --    2.25813   2.26122   2.26403   2.26588   2.27870
 Alpha virt. eigenvalues --    2.28912   2.30113   2.30473   2.30937   2.31038
 Alpha virt. eigenvalues --    2.31723   2.31947   2.33383   2.33723   2.34367
 Alpha virt. eigenvalues --    2.34743   2.35767   2.36475   2.36730   2.37064
 Alpha virt. eigenvalues --    2.38034   2.39207   2.39514   2.40099   2.40748
 Alpha virt. eigenvalues --    2.41585   2.42865   2.43108   2.43347   2.45507
 Alpha virt. eigenvalues --    2.47025   2.47208   2.47954   2.48448   2.48791
 Alpha virt. eigenvalues --    2.49435   2.50466   2.51385   2.52052   2.53659
 Alpha virt. eigenvalues --    2.54440   2.55592   2.56282   2.56464   2.57718
 Alpha virt. eigenvalues --    2.58023   2.59295   2.59765   2.60254   2.61963
 Alpha virt. eigenvalues --    2.62021   2.62541   2.62987   2.63070   2.63223
 Alpha virt. eigenvalues --    2.64337   2.64574   2.64729   2.66265   2.67060
 Alpha virt. eigenvalues --    2.67668   2.67994   2.68577   2.68977   2.69323
 Alpha virt. eigenvalues --    2.69980   2.70535   2.70839   2.71461   2.71980
 Alpha virt. eigenvalues --    2.72132   2.72797   2.73126   2.73858   2.74777
 Alpha virt. eigenvalues --    2.75086   2.75382   2.75747   2.76191   2.76381
 Alpha virt. eigenvalues --    2.76635   2.77148   2.77793   2.78194   2.78424
 Alpha virt. eigenvalues --    2.78931   2.78992   2.79215   2.80056   2.80208
 Alpha virt. eigenvalues --    2.80866   2.81376   2.81646   2.81751   2.82606
 Alpha virt. eigenvalues --    2.83415   2.83615   2.84127   2.84541   2.85178
 Alpha virt. eigenvalues --    2.85372   2.85758   2.86571   2.86800   2.87097
 Alpha virt. eigenvalues --    2.87626   2.88182   2.88424   2.88940   2.89761
 Alpha virt. eigenvalues --    2.90246   2.90550   2.91088   2.91199   2.91601
 Alpha virt. eigenvalues --    2.91900   2.92424   2.92791   2.93415   2.93997
 Alpha virt. eigenvalues --    2.94263   2.94791   2.95628   2.95839   2.96547
 Alpha virt. eigenvalues --    2.96798   2.97173   2.97656   2.98037   2.98879
 Alpha virt. eigenvalues --    2.99352   2.99676   3.00158   3.00409   3.00743
 Alpha virt. eigenvalues --    3.01450   3.02096   3.02563   3.03558   3.03752
 Alpha virt. eigenvalues --    3.04578   3.05038   3.05727   3.06722   3.07075
 Alpha virt. eigenvalues --    3.07314   3.07809   3.08225   3.08698   3.09573
 Alpha virt. eigenvalues --    3.10003   3.11047   3.11235   3.11516   3.11752
 Alpha virt. eigenvalues --    3.12370   3.12812   3.13068   3.14198   3.14790
 Alpha virt. eigenvalues --    3.14906   3.14962   3.15855   3.16904   3.17728
 Alpha virt. eigenvalues --    3.18380   3.18693   3.19188   3.19703   3.20025
 Alpha virt. eigenvalues --    3.20379   3.21408   3.21904   3.22523   3.22675
 Alpha virt. eigenvalues --    3.23290   3.23430   3.23878   3.24226   3.24367
 Alpha virt. eigenvalues --    3.24997   3.25381   3.26451   3.26793   3.26874
 Alpha virt. eigenvalues --    3.27445   3.28279   3.28767   3.29136   3.29342
 Alpha virt. eigenvalues --    3.29699   3.30449   3.30821   3.31443   3.31863
 Alpha virt. eigenvalues --    3.32879   3.33138   3.33554   3.34340   3.34945
 Alpha virt. eigenvalues --    3.35318   3.36400   3.36944   3.37189   3.37596
 Alpha virt. eigenvalues --    3.38041   3.38264   3.38443   3.39070   3.39778
 Alpha virt. eigenvalues --    3.40130   3.40369   3.40850   3.41054   3.42129
 Alpha virt. eigenvalues --    3.42657   3.42734   3.43317   3.43634   3.44043
 Alpha virt. eigenvalues --    3.44505   3.44794   3.45279   3.45866   3.46581
 Alpha virt. eigenvalues --    3.46733   3.46899   3.47323   3.48607   3.48872
 Alpha virt. eigenvalues --    3.49220   3.49367   3.50059   3.50631   3.51052
 Alpha virt. eigenvalues --    3.51587   3.52118   3.52437   3.53207   3.53735
 Alpha virt. eigenvalues --    3.53968   3.54129   3.55030   3.55243   3.55564
 Alpha virt. eigenvalues --    3.55932   3.56824   3.57001   3.57584   3.57862
 Alpha virt. eigenvalues --    3.58547   3.59019   3.59164   3.59803   3.60348
 Alpha virt. eigenvalues --    3.60760   3.61170   3.61421   3.61703   3.62364
 Alpha virt. eigenvalues --    3.62472   3.63076   3.63499   3.63694   3.63931
 Alpha virt. eigenvalues --    3.65139   3.65467   3.66439   3.67098   3.67449
 Alpha virt. eigenvalues --    3.67984   3.68311   3.68664   3.69230   3.69783
 Alpha virt. eigenvalues --    3.70134   3.71234   3.71656   3.72863   3.74051
 Alpha virt. eigenvalues --    3.74304   3.74962   3.75475   3.76068   3.78350
 Alpha virt. eigenvalues --    3.78446   3.79632   3.80037   3.80937   3.82319
 Alpha virt. eigenvalues --    3.82711   3.83296   3.84611   3.85513   3.85755
 Alpha virt. eigenvalues --    3.86619   3.87421   3.88635   3.89724   3.91025
 Alpha virt. eigenvalues --    3.91369   3.92602   3.93636   3.94516   3.95001
 Alpha virt. eigenvalues --    3.96746   3.96957   3.98321   3.98792   3.99324
 Alpha virt. eigenvalues --    4.00223   4.02766   4.03504   4.04448   4.04636
 Alpha virt. eigenvalues --    4.05666   4.07218   4.07316   4.07828   4.08749
 Alpha virt. eigenvalues --    4.09212   4.09522   4.12021   4.12325   4.13465
 Alpha virt. eigenvalues --    4.14063   4.14940   4.15288   4.15870   4.16805
 Alpha virt. eigenvalues --    4.17057   4.17456   4.18592   4.19796   4.20571
 Alpha virt. eigenvalues --    4.21159   4.21814   4.22246   4.22944   4.23639
 Alpha virt. eigenvalues --    4.23836   4.24679   4.25028   4.25867   4.26350
 Alpha virt. eigenvalues --    4.27679   4.27892   4.29233   4.29619   4.29700
 Alpha virt. eigenvalues --    4.30610   4.31080   4.31242   4.31478   4.31868
 Alpha virt. eigenvalues --    4.32428   4.32647   4.33645   4.34734   4.34831
 Alpha virt. eigenvalues --    4.35739   4.36538   4.37014   4.38354   4.39553
 Alpha virt. eigenvalues --    4.40920   4.41802   4.42213   4.42487   4.43803
 Alpha virt. eigenvalues --    4.44475   4.45576   4.45973   4.48164   4.49056
 Alpha virt. eigenvalues --    4.50748   4.51533   4.51682   4.52389   4.55327
 Alpha virt. eigenvalues --    4.55438   4.56547   4.58098   4.59862   4.60794
 Alpha virt. eigenvalues --    4.61883   4.63215   4.65189   4.66045   4.66203
 Alpha virt. eigenvalues --    4.67626   4.69555   4.69789   4.70582   4.72208
 Alpha virt. eigenvalues --    4.73614   4.73708   4.75156   4.75723   4.80486
 Alpha virt. eigenvalues --    4.80906   4.82653   4.83947   4.86100   4.86576
 Alpha virt. eigenvalues --    4.88881   4.91315   4.92292   4.92570   4.94531
 Alpha virt. eigenvalues --    4.94897   4.95686   4.96437   5.00101   5.02989
 Alpha virt. eigenvalues --    5.03341   5.04597   5.05486   5.07483   5.10328
 Alpha virt. eigenvalues --    5.11213   5.12880   5.14132   5.15313   5.18489
 Alpha virt. eigenvalues --    5.19602   5.20871   5.23058   5.25194   5.27072
 Alpha virt. eigenvalues --    5.27877   5.31091   5.32791   5.33739   5.33968
 Alpha virt. eigenvalues --    5.36044   5.36148   5.41652   5.43028   5.44079
 Alpha virt. eigenvalues --    5.44329   5.48159   5.50027   5.55308   5.56945
 Alpha virt. eigenvalues --    5.57201   5.58687   5.61843   5.63012   5.63818
 Alpha virt. eigenvalues --    5.67046   5.71868   5.77311   5.79675   5.84590
 Alpha virt. eigenvalues --    5.85753   5.86616   5.88807   5.91080   6.01408
 Alpha virt. eigenvalues --    6.09670   6.10824   6.18321   6.32306   6.45476
 Alpha virt. eigenvalues --    6.50425   6.63496   6.72496   6.87312   6.95362
 Alpha virt. eigenvalues --    6.96883   6.99904   7.00118   7.00351   7.00691
 Alpha virt. eigenvalues --    7.00777   7.01129   7.01527   7.02154   7.10952
 Alpha virt. eigenvalues --    7.14926   7.15891   7.17769   7.18921   7.19359
 Alpha virt. eigenvalues --    7.26315   7.34917   7.36605   7.37019   7.39507
 Alpha virt. eigenvalues --    7.49600   7.49873   7.51027   8.44695   8.48217
 Alpha virt. eigenvalues --    8.48585   8.61326   8.62027   8.66777   8.92498
 Alpha virt. eigenvalues --    8.93693   8.95190   8.95971   9.00263   9.00707
 Alpha virt. eigenvalues --    9.01315   9.05770   9.08068  15.77257  22.31942
 Alpha virt. eigenvalues --   22.43874  22.46325  22.53349  22.56597  22.71277
 Alpha virt. eigenvalues --   22.72880  22.74285  22.74694  22.76597  22.78670
 Alpha virt. eigenvalues --   22.81063  22.83288  22.87268  22.89709  22.93075
 Alpha virt. eigenvalues --   22.99973  23.03413  23.05908  23.11931  23.18047
 Alpha virt. eigenvalues --   23.24511  23.37845  23.42379  23.47655  23.79284
 Alpha virt. eigenvalues --   33.42343  44.33766  57.18062  57.24618  57.30819
          Condensed to atoms (all electrons):
 Mulliken charges:
               1
     1  C   -0.111584
     2  C   -0.230922
     3  C    0.159656
     4  C    0.071076
     5  C   -0.263510
     6  C   -0.161018
     7  C    0.317409
     8  C    0.057404
     9  C    0.158249
    10  C   -0.234083
    11  H    0.195704
    12  C   -0.107932
    13  C   -0.161881
    14  C   -0.255100
    15  H    0.179567
    16  H    0.195615
    17  H    0.220943
    18  H    0.174234
    19  H    0.180118
    20  H    0.174656
    21  H    0.213328
    22  N    0.210795
    23  C    0.117864
    24  C   -0.454216
    25  C   -0.346248
    26  C   -0.037997
    27  C   -0.142147
    28  C   -0.235326
    29  H    0.158648
    30  H    0.188548
    31  C   -0.023600
    32  C   -0.247882
    33  C   -0.220178
    34  C   -0.241648
    35  H    0.173325
    36  C   -0.205869
    37  H    0.169040
    38  C    0.382848
    39  H    0.187789
    40  H    0.162952
    41  O   -0.293871
    42  C   -0.237716
    43  H    0.164551
    44  H    0.148172
[...]
 Alpha virt. eigenvalues --    0.89144   0.89600   0.89818   0.90774   0.90963
 Alpha virt. eigenvalues --    0.91091   0.91312   0.91910   0.92616   0.92795
 Alpha virt. eigenvalues --    0.93147   0.93457   0.94048   0.94686   0.95276
 Alpha virt. eigenvalues --    0.95390   0.96059   0.96352   0.96507   0.96792
 Alpha virt. eigenvalues --    0.97275   0.97476   0.99024   0.99292   1.00791
 Alpha virt. eigenvalues --    1.01153   1.01490   1.01888   1.02679   1.02919
 Alpha virt. eigenvalues --    1.03688   1.03974   1.04400   1.04611   1.05896
 Alpha virt. eigenvalues --    1.06558   1.07274   1.07517   1.08427   1.09032
 Alpha virt. eigenvalues --    1.09537   1.10782   1.11303   1.12117   1.12519
 Alpha virt. eigenvalues --    1.12941   1.13533   1.13943   1.15241   1.15676
 Alpha virt. eigenvalues --    1.15995   1.16602   1.16837   1.16956   1.17524
 Alpha virt. eigenvalues --    1.18413   1.18790   1.19129   1.19608   1.20684
 Alpha virt. eigenvalues --    1.21687   1.22029   1.23291   1.24160   1.24644
 Alpha virt. eigenvalues --    1.25115   1.25397   1.25528   1.26493   1.26931
 Alpha virt. eigenvalues --    1.27864   1.27987   1.29441   1.30432   1.30554
 Alpha virt. eigenvalues --    1.30995   1.31141   1.32070   1.32310   1.32743
 Alpha virt. eigenvalues --    1.33294   1.33801   1.34094   1.34589   1.35011
 Alpha virt. eigenvalues --    1.35577   1.36271   1.36803   1.37479   1.38367
 Alpha virt. eigenvalues --    1.38776   1.39070   1.39130   1.39801   1.40347
 Alpha virt. eigenvalues --    1.40684   1.41616   1.42363   1.43152   1.44145
 Alpha virt. eigenvalues --    1.44589   1.45290   1.45824   1.46408   1.47348
 Alpha virt. eigenvalues --    1.47578   1.48677   1.49245   1.50201   1.51160
 Alpha virt. eigenvalues --    1.51604   1.51824   1.52435   1.52778   1.53289
 Alpha virt. eigenvalues --    1.53440   1.54090   1.55481   1.56653   1.57240
 Alpha virt. eigenvalues --    1.57421   1.57985   1.58485   1.59107   1.59620
 Alpha virt. eigenvalues --    1.60030   1.60503   1.60856   1.61098   1.62020
 Alpha virt. eigenvalues --    1.62336   1.62407   1.62722   1.63291   1.63528
 Alpha virt. eigenvalues --    1.64274   1.64605   1.65868   1.66011   1.66256
 Alpha virt. eigenvalues --    1.66583   1.67241   1.67348   1.67580   1.68109
 Alpha virt. eigenvalues --    1.68229   1.69502   1.69946   1.70374   1.71378
 Alpha virt. eigenvalues --    1.71743   1.72230   1.73056   1.73446   1.73829
 Alpha virt. eigenvalues --    1.74457   1.75018   1.75766   1.76201   1.76374
 Alpha virt. eigenvalues --    1.76712   1.77824   1.78118   1.78673   1.79055
 Alpha virt. eigenvalues --    1.79433   1.79956   1.80142   1.80981   1.81783
 Alpha virt. eigenvalues --    1.82222   1.82885   1.84006   1.84044   1.84467
 Alpha virt. eigenvalues --    1.84983   1.85059   1.85821   1.86016   1.87396
 Alpha virt. eigenvalues --    1.87597   1.87835   1.88365   1.89262   1.89919
 Alpha virt. eigenvalues --    1.90946   1.92326   1.92599   1.94093   1.94160
 Alpha virt. eigenvalues --    1.94437   1.95194   1.96470   1.96805   1.97163
 Alpha virt. eigenvalues --    1.97807   1.98349   1.98531   1.98906   1.99261
 Alpha virt. eigenvalues --    1.99851   2.01264   2.01871   2.03089   2.03394
 Alpha virt. eigenvalues --    2.03732   2.04206   2.05041   2.05776   2.06553
 Alpha virt. eigenvalues --    2.07534   2.08047   2.08680   2.09615   2.10119
 Alpha virt. eigenvalues --    2.10820   2.11622   2.12607   2.13340   2.13973
 Alpha virt. eigenvalues --    2.14343   2.14465   2.15178   2.15840   2.16783
 Alpha virt. eigenvalues --    2.17165   2.18115   2.18525   2.19010   2.20156
 Alpha virt. eigenvalues --    2.20321   2.21044   2.21699   2.22210   2.22450
 Alpha virt. eigenvalues --    2.23886   2.24684   2.24939   2.25091   2.25364
 Alpha virt. eigenvalues --    2.26422   2.27081   2.27576   2.27960   2.29401
 Alpha virt. eigenvalues --    2.30785   2.31240   2.31506   2.31791   2.32764
 Alpha virt. eigenvalues --    2.33136   2.33860   2.34448   2.34949   2.35248
 Alpha virt. eigenvalues --    2.36061   2.37031   2.37387   2.37970   2.38579
 Alpha virt. eigenvalues --    2.39476   2.39699   2.40326   2.41013   2.41568
 Alpha virt. eigenvalues --    2.42609   2.43091   2.44478   2.44927   2.46740
 Alpha virt. eigenvalues --    2.47680   2.48137   2.48589   2.49514   2.49640
 Alpha virt. eigenvalues --    2.50435   2.51983   2.52340   2.52747   2.54048
 Alpha virt. eigenvalues --    2.54987   2.56676   2.57139   2.57547   2.58474
 Alpha virt. eigenvalues --    2.59313   2.60008   2.60308   2.61239   2.62400
 Alpha virt. eigenvalues --    2.62708   2.62870   2.63980   2.64125   2.64903
 Alpha virt. eigenvalues --    2.65475   2.65672   2.66051   2.66937   2.67555
 Alpha virt. eigenvalues --    2.68197   2.69514   2.69788   2.70365   2.70529
 Alpha virt. eigenvalues --    2.71055   2.71278   2.71685   2.72284   2.72431
 Alpha virt. eigenvalues --    2.73424   2.74079   2.74295   2.74512   2.75379
 Alpha virt. eigenvalues --    2.75855   2.75931   2.76194   2.76793   2.77680
 Alpha virt. eigenvalues --    2.78466   2.78599   2.79215   2.79443   2.79614
 Alpha virt. eigenvalues --    2.79867   2.80181   2.80941   2.81114   2.81373
 Alpha virt. eigenvalues --    2.81615   2.82022   2.82378   2.83202   2.83637
 Alpha virt. eigenvalues --    2.83715   2.84516   2.85032   2.85239   2.85569
 Alpha virt. eigenvalues --    2.86393   2.86416   2.87009   2.87315   2.87642
 Alpha virt. eigenvalues --    2.88173   2.88888   2.89404   2.89878   2.90348
 Alpha virt. eigenvalues --    2.90535   2.91608   2.91848   2.92335   2.92639
 Alpha virt. eigenvalues --    2.92978   2.93596   2.93935   2.94609   2.94898
 Alpha virt. eigenvalues --    2.95118   2.95365   2.96090   2.96723   2.97232
 Alpha virt. eigenvalues --    2.97581   2.98003   2.98679   2.99120   3.00043
 Alpha virt. eigenvalues --    3.00132   3.00647   3.00928   3.01939   3.02217
 Alpha virt. eigenvalues --    3.02583   3.02923   3.03474   3.04096   3.04392
 Alpha virt. eigenvalues --    3.05084   3.05795   3.05979   3.06686   3.07044
 Alpha virt. eigenvalues --    3.07378   3.08058   3.08878   3.09526   3.09983
 Alpha virt. eigenvalues --    3.10847   3.11203   3.12152   3.12466   3.12970
 Alpha virt. eigenvalues --    3.13313   3.13432   3.14073   3.14903   3.15297
 Alpha virt. eigenvalues --    3.15894   3.16531   3.17348   3.18171   3.18669
 Alpha virt. eigenvalues --    3.18979   3.19732   3.19874   3.20153   3.20961
 Alpha virt. eigenvalues --    3.21056   3.21574   3.21896   3.22392   3.23225
 Alpha virt. eigenvalues --    3.23567   3.24290   3.24504   3.24735   3.25332
 Alpha virt. eigenvalues --    3.25868   3.26880   3.27482   3.27831   3.28126
 Alpha virt. eigenvalues --    3.28266   3.29089   3.29345   3.30484   3.30642
 Alpha virt. eigenvalues --    3.31039   3.31502   3.32362   3.32800   3.33050
 Alpha virt. eigenvalues --    3.33519   3.34159   3.34189   3.35324   3.35913
 Alpha virt. eigenvalues --    3.36219   3.36603   3.37339   3.38235   3.38636
 Alpha virt. eigenvalues --    3.38688   3.39305   3.39498   3.40200   3.40564
 Alpha virt. eigenvalues --    3.41118   3.41374   3.42184   3.42537   3.42936
 Alpha virt. eigenvalues --    3.43328   3.43704   3.44577   3.45013   3.45624
 Alpha virt. eigenvalues --    3.45747   3.46404   3.46654   3.46995   3.47316
 Alpha virt. eigenvalues --    3.48067   3.48273   3.48620   3.49029   3.49883
 Alpha virt. eigenvalues --    3.50291   3.50592   3.51342   3.51541   3.52345
 Alpha virt. eigenvalues --    3.52735   3.53386   3.53802   3.54477   3.54737
 Alpha virt. eigenvalues --    3.55077   3.55359   3.55800   3.55988   3.56344
 Alpha virt. eigenvalues --    3.56852   3.57685   3.58062   3.58405   3.59154
 Alpha virt. eigenvalues --    3.59347   3.59928   3.60404   3.61064   3.61614
 Alpha virt. eigenvalues --    3.61862   3.62311   3.62411   3.62621   3.63156
 Alpha virt. eigenvalues --    3.63322   3.63586   3.64152   3.64888   3.65027
 Alpha virt. eigenvalues --    3.66144   3.66530   3.67180   3.67687   3.68456
 Alpha virt. eigenvalues --    3.68848   3.69099   3.69690   3.70938   3.71415
 Alpha virt. eigenvalues --    3.71962   3.72941   3.73746   3.74577   3.75277
 Alpha virt. eigenvalues --    3.75606   3.75752   3.76975   3.77381   3.78761
 Alpha virt. eigenvalues --    3.79003   3.80657   3.81058   3.82192   3.82977
 Alpha virt. eigenvalues --    3.83640   3.84784   3.84942   3.86702   3.87041
 Alpha virt. eigenvalues --    3.88852   3.89402   3.89906   3.90356   3.92194
 Alpha virt. eigenvalues --    3.93143   3.93913   3.95411   3.96447   3.97546
 Alpha virt. eigenvalues --    3.98243   3.99045   3.99417   4.00582   4.01622
 Alpha virt. eigenvalues --    4.02027   4.04523   4.05044   4.06016   4.06280
 Alpha virt. eigenvalues --    4.07113   4.09289   4.09771   4.10341   4.10996
 Alpha virt. eigenvalues --    4.11448   4.12477   4.12600   4.14061   4.14497
 Alpha virt. eigenvalues --    4.15224   4.16235   4.16923   4.17358   4.18863
 Alpha virt. eigenvalues --    4.19005   4.19417   4.20149   4.21091   4.21631
 Alpha virt. eigenvalues --    4.23835   4.24317   4.24613   4.25241   4.25642
 Alpha virt. eigenvalues --    4.25959   4.26442   4.27692   4.28263   4.29082
 Alpha virt. eigenvalues --    4.29738   4.31033   4.31530   4.31699   4.32447
 Alpha virt. eigenvalues --    4.32689   4.33132   4.33612   4.34171   4.34725
 Alpha virt. eigenvalues --    4.35146   4.35719   4.35864   4.36651   4.37505
 Alpha virt. eigenvalues --    4.38225   4.39021   4.39898   4.40531   4.41377
 Alpha virt. eigenvalues --    4.42394   4.43851   4.43970   4.44851   4.45576
 Alpha virt. eigenvalues --    4.47835   4.48696   4.48910   4.50317   4.51401
 Alpha virt. eigenvalues --    4.53620   4.54299   4.54412   4.55604   4.57015
 Alpha virt. eigenvalues --    4.57567   4.58636   4.60274   4.63110   4.64064
 Alpha virt. eigenvalues --    4.65333   4.65944   4.67368   4.68799   4.69568
 Alpha virt. eigenvalues --    4.71245   4.72198   4.72376   4.73230   4.73724
 Alpha virt. eigenvalues --    4.75898   4.77019   4.77862   4.78396   4.81745
 Alpha virt. eigenvalues --    4.83588   4.84055   4.87816   4.89332   4.89631
 Alpha virt. eigenvalues --    4.90284   4.93208   4.93970   4.94452   4.97013
 Alpha virt. eigenvalues --    4.97861   4.98598   4.99036   5.01843   5.04168
 Alpha virt. eigenvalues --    5.05198   5.06234   5.06831   5.09238   5.12199
 Alpha virt. eigenvalues --    5.13209   5.15621   5.16163   5.16931   5.24035
 Alpha virt. eigenvalues --    5.24300   5.25017   5.26446   5.29035   5.29621
 Alpha virt. eigenvalues --    5.30895   5.33144   5.35531   5.37735   5.38782
 Alpha virt. eigenvalues --    5.40306   5.40954   5.43443   5.44027   5.44621
 Alpha virt. eigenvalues --    5.47653   5.50811   5.52984   5.54692   5.56666
 Alpha virt. eigenvalues --    5.59944   5.62349   5.63362   5.64299   5.67444
 Alpha virt. eigenvalues --    5.70276   5.74958   5.80448   5.83152   5.85139
 Alpha virt. eigenvalues --    5.87934   5.89136   5.91631   5.95836   6.01191
 Alpha virt. eigenvalues --    6.10488   6.15434   6.20326   6.35757   6.46530
 Alpha virt. eigenvalues --    6.56504   6.64937   6.73182   6.88150   6.95213
 Alpha virt. eigenvalues --    6.97472   7.00280   7.00665   7.00765   7.00964
 Alpha virt. eigenvalues --    7.01016   7.01450   7.01544   7.02426   7.11252
 Alpha virt. eigenvalues --    7.12588   7.13905   7.17872   7.19411   7.19746
 Alpha virt. eigenvalues --    7.26924   7.32507   7.36107   7.36598   7.39632
 Alpha virt. eigenvalues --    7.48634   7.50017   7.51864   8.45856   8.47632
 Alpha virt. eigenvalues --    8.48087   8.61392   8.62291   8.68081   8.88221
 Alpha virt. eigenvalues --    8.89882   8.91743   8.95328   8.98713   9.00695
 Alpha virt. eigenvalues --    9.02014   9.07428   9.09109  15.68092  22.37991
 Alpha virt. eigenvalues --   22.43321  22.49509  22.56074  22.62009  22.76643
 Alpha virt. eigenvalues --   22.76961  22.78849  22.80540  22.84832  22.86706
 Alpha virt. eigenvalues --   22.87043  22.89867  22.92735  22.96215  22.96831
 Alpha virt. eigenvalues --   23.07359  23.09773  23.13703  23.17260  23.25801
 Alpha virt. eigenvalues --   23.34888  23.46236  23.49661  23.56451  23.89653
 Alpha virt. eigenvalues --   33.45271  44.33868  57.14929  57.23433  57.29086
          Condensed to atoms (all electrons):
 Mulliken charges:
               1
     1  C   -0.097066
     2  C   -0.236418
     3  C    0.170624
     4  C    0.063242
     5  C   -0.221705
     6  C   -0.160550
     7  C    0.318728
     8  C    0.069706
     9  C    0.166595
    10  C   -0.236040
    11  H    0.192086
    12  C   -0.097271
    13  C   -0.158483
    14  C   -0.229314
    15  H    0.177124
    16  H    0.192140
    17  H    0.201466
    18  H    0.171408
    19  H    0.177148
    20  H    0.171513
    21  H    0.200746
    22  N    0.221063
    23  C   -0.008068
    24  C   -0.386014
    25  C   -0.276080
    26  C   -0.021431
    27  C   -0.146713
    28  C   -0.233684
    29  H    0.155712
    30  H    0.163759
    31  C   -0.010126
    32  C   -0.253607
    33  C   -0.227297
    34  C   -0.236590
    35  H    0.170428
    36  C   -0.203199
    37  H    0.166362
    38  C    0.395498
    39  H    0.184961
    40  H    0.160234
    41  O   -0.297734
    42  C   -0.233518
    43  H    0.163183
    44  H    0.148626
    45  H    0.148393
    46  H    0.154995
    47  H    0.149823
    48  B    0.619027
    49  F   -0.435862
    50  F   -0.433278
    51  F   -0.434542
 Sum of Mulliken charges =  -0.00000
 Mulliken charges with hydrogens summed into heavy atoms:
               1
     1  C    0.080058
     2  C   -0.044278
     3  C    0.170624
     4  C    0.063242
     5  C   -0.020239
     6  C    0.010858
     7  C    0.318728
     8  C    0.069706
     9  C    0.166595
    10  C   -0.043954
    12  C    0.079876
    13  C    0.013031
    14  C   -0.028567
    22  N    0.221063
    23  C   -0.008068
    24  C   -0.231019
    25  C   -0.112321
    26  C   -0.021431
    27  C    0.008999
    28  C   -0.083861
    31  C   -0.010126
    32  C   -0.083179
    33  C   -0.060935
    34  C   -0.051629
    36  C   -0.042965
    38  C    0.395498
    41  O   -0.297734
    42  C    0.226683
    48  B    0.619027
    49  F   -0.435862
    50  F   -0.433278
    51  F   -0.434542
 Electronic spatial extent (au):  <R**2>=          17337.6470
 Charge=              0.0000 electrons
 Dipole moment (field-independent basis, Debye):
    X=             32.4681    Y=              3.5774    Z=             -6.7926  Tot=             33.3633
 Quadrupole moment (field-independent basis, Debye-Ang):
   XX=           -283.6669   YY=           -154.0958   ZZ=           -183.7472
   XY=            -22.6975   XZ=             60.3971   YZ=              4.9648
 Traceless Quadrupole moment (field-independent basis, Debye-Ang):
   XX=            -76.4969   YY=             53.0742   ZZ=             23.4227
   XY=            -22.6975   XZ=             60.3971   YZ=              4.9648
 Octapole moment (field-independent basis, Debye-Ang**2):
  XXX=           1213.5255  YYY=             11.9321  ZZZ=             -0.4715  XYY=             40.2091
  XXY=             92.5187  XXZ=           -137.9769  XZZ=            112.2318  YZZ=              1.9995
  YYZ=            -12.6934  XYZ=            -22.8378
 Hexadecapole moment (field-independent basis, Debye-Ang**3):
 XXXX=         -21278.2128 YYYY=          -2618.3728 ZZZZ=          -1434.8189 XXXY=           -917.2846
 XXXZ=           2350.9890 YYYX=             29.6380 YYYZ=            145.7138 ZZZX=            135.5912
 ZZZY=            -64.9465 XXYY=          -3624.4241 XXZZ=          -3250.2081 YYZZ=           -825.6635
 XXYZ=             -6.2909 YYXZ=             60.4440 ZZXY=            -59.0151
 N-N= 2.976629144864D+03 E-N=-9.355622330709D+03  KE= 1.450246551160D+03
 Leave Link  601 at Thu Apr  1 09:53:59 2021, MaxMem=  5242880000 cpu:         6.1
 (Enter /opt/nce/packages/global/g09/l9999.exe)
 1\1\GINC-CN058\SP\RwB97XD TD-FC\Gen\C26H19B1F3N1O1\PNG4RJV\01-Apr-2021
 \0\\#p wB97XD chkbasis geom=allcheck Guess=Read int=ultrafine scrf=(SM
 D,solvent=Acetonitrile) td=(NStates=30)\\Title\\0,1\C,0,0.7911242977,3
 .2979646333,1.1833984451\C,0,1.5652173669,2.239303526,0.8093531954\C,0
 ,0.9663142998,0.9840299077,0.5665513226\C,0,-0.4396290417,0.8390675483
 ,0.7029830038\C,0,-1.2010946984,1.9695800978,1.112128949\C,0,-0.604332
 5578,3.1676800467,1.3441774503\C,0,-1.0343386078,-0.4072639308,0.45431
 92877\C,0,-0.2281433514,-1.4917374181,0.0762087948\C,0,1.1764913121,-1
 .3158187632,-0.0335778582\C,0,1.9903012702,-2.4101144131,-0.399425861\
 H,0,3.0597719177,-2.2878382065,-0.4762499242\C,0,1.4200748291,-3.62133
 01237,-0.6592700648\C,0,0.0241263509,-3.8085392663,-0.5795353094\C,0,-
 0.7762839497,-2.7705614845,-0.2226549676\H,0,1.2619194807,4.2555652311
 ,1.366371425\H,0,2.6319147497,2.3609047704,0.7002432227\H,0,-2.2681781
 501,1.8574008703,1.2392456904\H,0,-1.1922410524,4.0209069889,1.6547719
 533\H,0,2.0542509586,-4.4527500161,-0.9396197411\H,0,-0.4030526113,-4.
 7759493886,-0.8070155727\H,0,-1.8472244436,-2.9018402818,-0.1672602936
 \N,0,1.7255512423,-0.0914263201,0.2100601003\C,0,-2.5001835437,-0.5764
 58788,0.5912208365\C,0,-3.3599435147,0.007204405,-0.3342712726\C,0,-3.
 0204306945,-1.3160651847,1.6491483357\C,0,-4.7447478053,-0.131611543,-
 0.2396367746\C,0,-4.3932827741,-1.4545447035,1.7699805133\C,0,-5.23893
 21508,-0.8719005181,0.8349281248\H,0,-4.8033211966,-2.0208037985,2.597
 7218383\H,0,-2.3543188393,-1.7710734376,2.3721770032\C,0,3.1560159626,
 0.0702633627,0.0907015628\C,0,3.7021267208,0.4239046647,-1.12564272\C,
 0,3.9600232727,-0.1330691705,1.2020570141\C,0,5.0748622773,0.579608394
 8,-1.2485807774\H,0,3.0584102568,0.5790779528,-1.9823286662\C,0,5.3251
 826252,0.0196811162,1.0872925762\H,0,3.5143633649,-0.4094980547,2.1493
 457748\C,0,5.8927771241,0.3764363653,-0.1388882921\H,0,5.4902184337,0.
 8568538341,-2.2064215831\H,0,5.9715839276,-0.1346370294,1.9415064287\O
 ,0,7.2316109263,0.5006020699,-0.1542391839\C,0,7.8635440348,0.85807395
 74,-1.3731188539\H,0,8.9288505712,0.8975764658,-1.1573966956\H,0,7.678
 8964634,0.1105733925,-2.1489815143\H,0,7.528197988,1.8387976305,-1.720
 3987373\H,0,-2.9317133992,0.5828988112,-1.1483051056\H,0,-6.3102311676
 ,-0.9951952167,0.9488937502\B,0,-5.7180932347,0.5247765975,-1.35869498
 2\F,0,-5.27024589,1.8195598275,-1.7397886202\F,0,-7.0512133418,0.64678
 49811,-0.8879699267\F,0,-5.7508050085,-0.2757483918,-2.5381173008\\Ver
 sion=ES64L-G09RevE.01\State=1-A\HF=-1456.8542169\RMSD=3.608e-09\PG=C01
  [X(C26H19B1F3N1O1)]\\@


 EXPERIMENTALISTS THINK SILICON IS REALLY FUN TO USE
     ITS PLACE IN NOVEL COMPOUNDS IS CERTAIN TO AMUSE
 THEY SIT ALL DAY IN LABORATORIES MAKING ALL THIS SLUDGE
     "LOADED WITH THE SILICON THEY SAY", TO ME IT LOOKS LIKE FUDGE.
 FOR HAPPY THOUGH THEY BE WITH CRUD, I'D LIKE TO KNOW A LITTLE
      ABOUT THE PI BONDS ON THE EDGE AND SIGMAS IN THE MIDDLE.

 SO LETS DERIVE A WAVEFUNCTION.....6-31G*
     USE AN OPTIMAL GEOMETRY AND SEE WHERE ELECTRONS ARE.
 BUT WHAT OF CORRELATION?  ASKS THE WIRY LITTLE SKEPTIC.
     WE'LL THROW IN PERTURBATION AS AN ELECTRON ANTISEPTIC.
 AND WHEN THE PROGRAM GIVES US ANSWERS IN THEM WE CAN TRUST
     SINCE NOBODY CAN MAKE THE STUFF, WE HAVE NO CHOICE, WE MUST.

 SO THEORY GUYS HAVE GOT IT MADE, IN ROOMS FREE OF POLLUTION.
     INSTEAD OF PROBLEMS WITH THE REFLUX, THEY HAVE ONLY SOLUTIONS.
 AND WHEN THE FEDS ANNOUNCE THE LIST OF CARCINOGENIC TERRORS,
     THE THEORISTS SIT SAFELY AT THEIR TERMINALS FIXING ERRORS.
 IN OTHER WORDS, EXPERIMENTALISTS WILL LIKELY DIE OF CANCER
     FROM WORKING HARD YET FRUITLESSLY...TILL THEORY GIVES THE ANSWER.
          -- THOMAS A. HOLME, 1983
 Job cpu time:       2 days 18 hours 34 minutes  0.3 seconds.
 File lengths (MBytes):  RWF=   6136 Int=      0 D2E=      0 Chk=   1099 Scr=      1
 Normal termination of Gaussian 09 at Thu Apr  1 09:54:01 2021.
