 Entering Gaussian System, Link 0=g09
 Input=/home/png4rjv/fotokatalizis/benchmark/OPCs/BF3-Acr_m_M06L_def2TZVP.gjf
 Output=/home/png4rjv/fotokatalizis/benchmark/OPCs/BF3-Acr_m_M06L_def2TZVP.log
 Initial command:
 /opt/nce/packages/global/g09/l1.exe "/home/png4rjv/fotokatalizis/benchmark/OPCs/BF3-Acr_m_M06L_def2TZVP/Gau-44981.inp" -scrdir="/home/png4rjv/fotokatalizis/benchmark/OPCs/BF3-Acr_m_M06L_def2TZVP/"
 Default is to use a total of  12 processors:
                               12 via shared-memory
                                1 via Linda
 Entering Link 1 = /opt/nce/packages/global/g09/l1.exe PID=     44982.
  
 Copyright (c) 1988,1990,1992,1993,1995,1998,2003,2009,2015,
            Gaussian, Inc.  All Rights Reserved.
  
 This is part of the Gaussian(R) 09 program.  It is based on
 the Gaussian(R) 03 system (copyright 2003, Gaussian, Inc.),
 the Gaussian(R) 98 system (copyright 1998, Gaussian, Inc.),
 the Gaussian(R) 94 system (copyright 1995, Gaussian, Inc.),
 the Gaussian 92(TM) system (copyright 1992, Gaussian, Inc.),
 the Gaussian 90(TM) system (copyright 1990, Gaussian, Inc.),
 the Gaussian 88(TM) system (copyright 1988, Gaussian, Inc.),
 the Gaussian 86(TM) system (copyright 1986, Carnegie Mellon
 University), and the Gaussian 82(TM) system (copyright 1983,
 Carnegie Mellon University). Gaussian is a federally registered
 trademark of Gaussian, Inc.
  
 This software contains proprietary and confidential information,
 including trade secrets, belonging to Gaussian, Inc.
  
 This software is provided under written license and may be
 used, copied, transmitted, or stored only in accord with that
 written license.
  
 The following legend is applicable only to US Government
 contracts under FAR:
  
                    RESTRICTED RIGHTS LEGEND
  
 Use, reproduction and disclosure by the US Government is
 subject to restrictions as set forth in subparagraphs (a)
 and (c) of the Commercial Computer Software - Restricted
 Rights clause in FAR 52.227-19.
  
 Gaussian, Inc.
 340 Quinnipiac St., Bldg. 40, Wallingford CT 06492
  
  
 ---------------------------------------------------------------
 Warning -- This program may not be used in any manner that
 competes with the business of Gaussian, Inc. or will provide
 assistance to any competitor of Gaussian, Inc.  The licensee
 of this program is prohibited from giving any competitor of
 Gaussian, Inc. access to this program.  By using this program,
 the user acknowledges that Gaussian, Inc. is engaged in the
 business of creating and licensing software in the field of
 computational chemistry and represents and warrants to the
 licensee that it is not a competitor of Gaussian, Inc. and that
 it will not use this program in any manner prohibited above.
 ---------------------------------------------------------------
  

 Cite this work as:
 Gaussian 09, Revision E.01,
 M. J. Frisch, G. W. Trucks, H. B. Schlegel, G. E. Scuseria, 
 M. A. Robb, J. R. Cheeseman, G. Scalmani, V. Barone, B. Mennucci, 
 G. A. Petersson, H. Nakatsuji, M. Caricato, X. Li, H. P. Hratchian, 
 A. F. Izmaylov, J. Bloino, G. Zheng, J. L. Sonnenberg, M. Hada, 
 M. Ehara, K. Toyota, R. Fukuda, J. Hasegawa, M. Ishida, T. Nakajima, 
 Y. Honda, O. Kitao, H. Nakai, T. Vreven, J. A. Montgomery, Jr., 
 J. E. Peralta, F. Ogliaro, M. Bearpark, J. J. Heyd, E. Brothers, 
 K. N. Kudin, V. N. Staroverov, T. Keith, R. Kobayashi, J. Normand, 
 K. Raghavachari, A. Rendell, J. C. Burant, S. S. Iyengar, J. Tomasi, 
 M. Cossi, N. Rega, J. M. Millam, M. Klene, J. E. Knox, J. B. Cross, 
 V. Bakken, C. Adamo, J. Jaramillo, R. Gomperts, R. E. Stratmann, 
 O. Yazyev, A. J. Austin, R. Cammi, C. Pomelli, J. W. Ochterski, 
 R. L. Martin, K. Morokuma, V. G. Zakrzewski, G. A. Voth, 
 P. Salvador, J. J. Dannenberg, S. Dapprich, A. D. Daniels, 
 O. Farkas, J. B. Foresman, J. V. Ortiz, J. Cioslowski, 
 and D. J. Fox, Gaussian, Inc., Wallingford CT, 2013.
 
 ******************************************
 Gaussian 09:  ES64L-G09RevE.01 30-Nov-2015
                16-Feb-2021 
 ******************************************
 %chk=cp.chk
 Default route:  MaxDisk=500GB
 ----------------------------------------------------------------------
 #p m06l/def2TZVP opt freq=noraman nosymm int=ultrafine scrf=(SMD,solve
 nt=Acetonitrile)
 ----------------------------------------------------------------------
 1/14=-1,18=20,19=15,26=4,38=1/1,3;
 2/9=110,12=2,15=1,17=6,18=5,40=1/2;
 3/5=44,7=101,11=2,16=1,25=1,30=1,70=32201,71=1,72=2,74=-53,75=-5/1,2,3;
 4//1;
 5/5=2,38=5,53=2/2;
 6/7=2,8=2,9=2,10=2,28=1/1;
 7/30=1/1,2,3,16;
 1/14=-1,18=20,19=15,26=4/3(2);
 2/9=110,15=1/2;
 99//99;
 2/9=110,15=1/2;
 3/5=44,7=101,11=2,16=1,25=1,30=1,70=32205,71=1,72=2,74=-53,75=-5/1,2,3;
 4/5=5,16=3,69=1/1;
 5/5=2,38=5,53=2/2;
 7/30=1/1,2,3,16;
 1/14=-1,18=20,19=15,26=4/3(-5);
 2/9=110,15=1/2;
 6/7=2,8=2,9=2,10=2,19=2,28=1/1;
 99/9=1/99;
 Leave Link    1 at Tue Feb 16 00:40:33 2021, MaxMem=           0 cpu:         0.9
 (Enter /opt/nce/packages/global/g09/l101.exe)
 -----
 Title
 -----
 Symbolic Z-matrix:
 Charge =  0 Multiplicity = 1
 C                     0.68709   3.33347   0.92038 
 C                     1.49332   2.25239   0.61986 
 C                     0.92323   0.96694   0.46462 
 C                    -0.49285   0.7938    0.59548 
 C                    -1.27597   1.93268   0.95258 
 C                    -0.70378   3.17593   1.10138 
 C                    -1.07366  -0.50071   0.41361 
 C                    -0.20574  -1.59568   0.10858 
 C                     1.20914  -1.39253   0.03727 
 C                     2.06461  -2.48873  -0.23013 
 H                     3.1413   -2.33713  -0.26159 
 C                     1.53081  -3.74137  -0.46159 
 C                     0.1339   -3.94787  -0.46277 
 C                    -0.71113  -2.8952   -0.19165 
 H                     1.14132   4.32034   1.03492 
 H                     2.5668    2.38441   0.50473 
 H                    -2.346     1.80515   1.10343 
 H                    -1.32508   4.03317   1.36511 
 H                     2.20355  -4.57629  -0.67055 
 H                    -0.27417  -4.93306  -0.69469 
 H                    -1.79027  -3.03343  -0.22043 
 N                     1.72829  -0.12578   0.20683 
 C                    -2.51509  -0.69074   0.52444 
 C                    -3.39296   0.12888  -0.22075 
 C                    -3.05747  -1.67435   1.38585 
 C                    -4.78056   0.00704  -0.13377 
 C                    -4.43919  -1.78821   1.50439 
 C                    -5.28484  -0.95394   0.75858 
 H                    -4.86046  -2.51551   2.20383 
 H                    -2.39521  -2.28944   1.99912 
 C                     3.15423   0.06604   0.09787 
 C                     3.72366   0.34062  -1.14323 
 C                     3.95908  -0.02301   1.23979 
 C                     5.10298   0.5294   -1.25869 
 H                     3.08536   0.40901  -2.0263 
 C                     5.33095   0.16262   1.13385 
 H                     3.502    -0.23737   2.2077 
 C                     5.91708   0.44108  -0.11645 
 H                     5.52903   0.74414  -2.23764 
 H                     5.98117   0.099     2.00756 
 O                     7.25345   0.60627  -0.1196 
 C                     7.91561   0.89268  -1.33572 
 H                     8.98179   0.98513  -1.09415 
 H                     7.78122   0.08075  -2.07152 
 H                     7.56166   1.8409   -1.77643 
 H                    -2.98529   0.87202  -0.90995 
 H                    -6.36902  -1.02738   0.87891 
 B                    -5.74235   0.99749  -1.03384 
 F                    -5.06665   2.22958  -1.1752 
 F                    -6.9601    1.17254  -0.36162 
 F                    -5.95306   0.42355  -2.29503 
 
 NAtoms=     51 NQM=       51 NQMF=       0 NMMI=      0 NMMIF=      0
                NMic=       0 NMicF=      0.
                    Isotopes and Nuclear Properties:
 (Nuclear quadrupole moments (NQMom) in fm**2, nuclear magnetic moments (NMagM)
  in nuclear magnetons)

  Atom         1           2           3           4           5           6           7           8           9          10
 IAtWgt=          12          12          12          12          12          12          12          12          12          12
 AtmWgt=  12.0000000  12.0000000  12.0000000  12.0000000  12.0000000  12.0000000  12.0000000  12.0000000  12.0000000  12.0000000
 NucSpn=           0           0           0           0           0           0           0           0           0           0
 AtZEff=   0.0000000   0.0000000   0.0000000   0.0000000   0.0000000   0.0000000   0.0000000   0.0000000   0.0000000   0.0000000
 NQMom=    0.0000000   0.0000000   0.0000000   0.0000000   0.0000000   0.0000000   0.0000000   0.0000000   0.0000000   0.0000000
 NMagM=    0.0000000   0.0000000   0.0000000   0.0000000   0.0000000   0.0000000   0.0000000   0.0000000   0.0000000   0.0000000
 AtZNuc=   6.0000000   6.0000000   6.0000000   6.0000000   6.0000000   6.0000000   6.0000000   6.0000000   6.0000000   6.0000000

  Atom        11          12          13          14          15          16          17          18          19          20
 IAtWgt=           1          12          12          12           1           1           1           1           1           1
 AtmWgt=   1.0078250  12.0000000  12.0000000  12.0000000   1.0078250   1.0078250   1.0078250   1.0078250   1.0078250   1.0078250
 NucSpn=           1           0           0           0           1           1           1           1           1           1
 AtZEff=   0.0000000   0.0000000   0.0000000   0.0000000   0.0000000   0.0000000   0.0000000   0.0000000   0.0000000   0.0000000
 NQMom=    0.0000000   0.0000000   0.0000000   0.0000000   0.0000000   0.0000000   0.0000000   0.0000000   0.0000000   0.0000000
 NMagM=    2.7928460   0.0000000   0.0000000   0.0000000   2.7928460   2.7928460   2.7928460   2.7928460   2.7928460   2.7928460
 AtZNuc=   1.0000000   6.0000000   6.0000000   6.0000000   1.0000000   1.0000000   1.0000000   1.0000000   1.0000000   1.0000000

  Atom        21          22          23          24          25          26          27          28          29          30
 IAtWgt=           1          14          12          12          12          12          12          12           1           1
 AtmWgt=   1.0078250  14.0030740  12.0000000  12.0000000  12.0000000  12.0000000  12.0000000  12.0000000   1.0078250   1.0078250
 NucSpn=           1           2           0           0           0           0           0           0           1           1
 AtZEff=   0.0000000   0.0000000   0.0000000   0.0000000   0.0000000   0.0000000   0.0000000   0.0000000   0.0000000   0.0000000
 NQMom=    0.0000000   2.0440000   0.0000000   0.0000000   0.0000000   0.0000000   0.0000000   0.0000000   0.0000000   0.0000000
 NMagM=    2.7928460   0.4037610   0.0000000   0.0000000   0.0000000   0.0000000   0.0000000   0.0000000   2.7928460   2.7928460
 AtZNuc=   1.0000000   7.0000000   6.0000000   6.0000000   6.0000000   6.0000000   6.0000000   6.0000000   1.0000000   1.0000000

  Atom        31          32          33          34          35          36          37          38          39          40
 IAtWgt=          12          12          12          12           1          12           1          12           1           1
 AtmWgt=  12.0000000  12.0000000  12.0000000  12.0000000   1.0078250  12.0000000   1.0078250  12.0000000   1.0078250   1.0078250
 NucSpn=           0           0           0           0           1           0           1           0           1           1
 AtZEff=   0.0000000   0.0000000   0.0000000   0.0000000   0.0000000   0.0000000   0.0000000   0.0000000   0.0000000   0.0000000
 NQMom=    0.0000000   0.0000000   0.0000000   0.0000000   0.0000000   0.0000000   0.0000000   0.0000000   0.0000000   0.0000000
 NMagM=    0.0000000   0.0000000   0.0000000   0.0000000   2.7928460   0.0000000   2.7928460   0.0000000   2.7928460   2.7928460
 AtZNuc=   6.0000000   6.0000000   6.0000000   6.0000000   1.0000000   6.0000000   1.0000000   6.0000000   1.0000000   1.0000000

  Atom        41          42          43          44          45          46          47          48          49          50
 IAtWgt=          16          12           1           1           1           1           1          11          19          19
 AtmWgt=  15.9949146  12.0000000   1.0078250   1.0078250   1.0078250   1.0078250   1.0078250  11.0093053  18.9984033  18.9984033
 NucSpn=           0           0           1           1           1           1           1           3           1           1
 AtZEff=   0.0000000   0.0000000   0.0000000   0.0000000   0.0000000   0.0000000   0.0000000   0.0000000   0.0000000   0.0000000
 NQMom=    0.0000000   0.0000000   0.0000000   0.0000000   0.0000000   0.0000000   0.0000000   4.0590000   0.0000000   0.0000000
 NMagM=    0.0000000   0.0000000   2.7928460   2.7928460   2.7928460   2.7928460   2.7928460   2.6886370   2.6288670   2.6288670
 AtZNuc=   8.0000000   6.0000000   1.0000000   1.0000000   1.0000000   1.0000000   1.0000000   5.0000000   9.0000000   9.0000000

  Atom        51
 IAtWgt=          19
 AtmWgt=  18.9984033
 NucSpn=           1
 AtZEff=   0.0000000
 NQMom=    0.0000000
 NMagM=    2.6288670
 AtZNuc=   9.0000000
 Leave Link  101 at Tue Feb 16 00:40:34 2021, MaxMem=  5242880000 cpu:         4.3
 (Enter /opt/nce/packages/global/g09/l103.exe)

 GradGradGradGradGradGradGradGradGradGradGradGradGradGradGradGradGradGrad
 Berny optimization.
 Initialization pass.
                           ----------------------------
                           !    Initial Parameters    !
                           ! (Angstroms and Degrees)  !
 --------------------------                            --------------------------
 ! Name  Definition              Value          Derivative Info.                !
 --------------------------------------------------------------------------------
 ! R1    R(1,2)                  1.3817         estimate D2E/DX2                !
 ! R2    R(1,6)                  1.4114         estimate D2E/DX2                !
 ! R3    R(1,15)                 1.0924         estimate D2E/DX2                !
 ! R4    R(2,3)                  1.4147         estimate D2E/DX2                !
 ! R5    R(2,16)                 1.0877         estimate D2E/DX2                !
 ! R6    R(3,4)                  1.4326         estimate D2E/DX2                !
 ! R7    R(3,22)                 1.3815         estimate D2E/DX2                !
 ! R8    R(4,5)                  1.4275         estimate D2E/DX2                !
 ! R9    R(4,7)                  1.4304         estimate D2E/DX2                !
 ! R10   R(5,6)                  1.3767         estimate D2E/DX2                !
 ! R11   R(5,17)                 1.0881         estimate D2E/DX2                !
 ! R12   R(6,18)                 1.0911         estimate D2E/DX2                !
 ! R13   R(7,8)                  1.4301         estimate D2E/DX2                !
 ! R14   R(7,23)                 1.4581         estimate D2E/DX2                !
 ! R15   R(8,9)                  1.4312         estimate D2E/DX2                !
 ! R16   R(8,14)                 1.4263         estimate D2E/DX2                !
 ! R17   R(9,10)                 1.416          estimate D2E/DX2                !
 ! R18   R(9,22)                 1.3795         estimate D2E/DX2                !
 ! R19   R(10,11)                1.0878         estimate D2E/DX2                !
 ! R20   R(10,12)                1.3812         estimate D2E/DX2                !
 ! R21   R(12,13)                1.4121         estimate D2E/DX2                !
 ! R22   R(12,19)                1.0924         estimate D2E/DX2                !
 ! R23   R(13,14)                1.3768         estimate D2E/DX2                !
 ! R24   R(13,20)                1.0913         estimate D2E/DX2                !
 ! R25   R(14,21)                1.0883         estimate D2E/DX2                !
 ! R26   R(22,31)                1.4429         estimate D2E/DX2                !
 ! R27   R(23,24)                1.4134         estimate D2E/DX2                !
 ! R28   R(23,25)                1.4155         estimate D2E/DX2                !
 ! R29   R(24,26)                1.3957         estimate D2E/DX2                !
 ! R30   R(24,46)                1.0925         estimate D2E/DX2                !
 ! R31   R(25,27)                1.3915         estimate D2E/DX2                !
 ! R32   R(25,30)                1.0923         estimate D2E/DX2                !
 ! R33   R(26,28)                1.405          estimate D2E/DX2                !
 ! R34   R(26,48)                1.6481         estimate D2E/DX2                !
 ! R35   R(27,28)                1.4026         estimate D2E/DX2                !
 ! R36   R(27,29)                1.0935         estimate D2E/DX2                !
 ! R37   R(28,47)                1.0933         estimate D2E/DX2                !
 ! R38   R(31,32)                1.3928         estimate D2E/DX2                !
 ! R39   R(31,33)                1.3999         estimate D2E/DX2                !
 ! R40   R(32,34)                1.397          estimate D2E/DX2                !
 ! R41   R(32,35)                1.0918         estimate D2E/DX2                !
 ! R42   R(33,36)                1.3884         estimate D2E/DX2                !
 ! R43   R(33,37)                1.0917         estimate D2E/DX2                !
 ! R44   R(34,38)                1.4054         estimate D2E/DX2                !
 ! R45   R(34,39)                1.089          estimate D2E/DX2                !
 ! R46   R(36,38)                1.4087         estimate D2E/DX2                !
 ! R47   R(36,40)                1.091          estimate D2E/DX2                !
 ! R48   R(38,41)                1.3465         estimate D2E/DX2                !
 ! R49   R(41,42)                1.414          estimate D2E/DX2                !
 ! R50   R(42,43)                1.0971         estimate D2E/DX2                !
 ! R51   R(42,44)                1.104          estimate D2E/DX2                !
 ! R52   R(42,45)                1.1039         estimate D2E/DX2                !
 ! R53   R(48,49)                1.4123         estimate D2E/DX2                !
 ! R54   R(48,50)                1.4019         estimate D2E/DX2                !
 ! R55   R(48,51)                1.4016         estimate D2E/DX2                !
 ! A1    A(2,1,6)              121.0361         estimate D2E/DX2                !
 ! A2    A(2,1,15)             119.145          estimate D2E/DX2                !
 ! A3    A(6,1,15)             119.8109         estimate D2E/DX2                !
 ! A4    A(1,2,3)              119.978          estimate D2E/DX2                !
 ! A5    A(1,2,16)             120.261          estimate D2E/DX2                !
 ! A6    A(3,2,16)             119.7607         estimate D2E/DX2                !
 ! A7    A(2,3,4)              119.874          estimate D2E/DX2                !
 ! A8    A(2,3,22)             120.2865         estimate D2E/DX2                !
 ! A9    A(4,3,22)             119.8326         estimate D2E/DX2                !
 ! A10   A(3,4,5)              117.949          estimate D2E/DX2                !
 ! A11   A(3,4,7)              119.9405         estimate D2E/DX2                !
 ! A12   A(5,4,7)              122.0762         estimate D2E/DX2                !
 ! A13   A(4,5,6)              121.2996         estimate D2E/DX2                !
 ! A14   A(4,5,17)             118.7272         estimate D2E/DX2                !
 ! A15   A(6,5,17)             119.9726         estimate D2E/DX2                !
 ! A16   A(1,6,5)              119.7699         estimate D2E/DX2                !
 ! A17   A(1,6,18)             120.2957         estimate D2E/DX2                !
 ! A18   A(5,6,18)             119.933          estimate D2E/DX2                !
 ! A19   A(4,7,8)              118.2673         estimate D2E/DX2                !
 ! A20   A(4,7,23)             120.6413         estimate D2E/DX2                !
 ! A21   A(8,7,23)             121.0887         estimate D2E/DX2                !
 ! A22   A(7,8,9)              120.1271         estimate D2E/DX2                !
 ! A23   A(7,8,14)             121.8329         estimate D2E/DX2                !
 ! A24   A(9,8,14)             117.979          estimate D2E/DX2                !
 ! A25   A(8,9,10)             119.7881         estimate D2E/DX2                !
 ! A26   A(8,9,22)             119.7546         estimate D2E/DX2                !
 ! A27   A(10,9,22)            120.4479         estimate D2E/DX2                !
 ! A28   A(9,10,11)            119.7069         estimate D2E/DX2                !
 ! A29   A(9,10,12)            120.0186         estimate D2E/DX2                !
 ! A30   A(11,10,12)           120.2719         estimate D2E/DX2                !
 ! A31   A(10,12,13)           121.0038         estimate D2E/DX2                !
 ! A32   A(10,12,19)           119.1584         estimate D2E/DX2                !
 ! A33   A(13,12,19)           119.8206         estimate D2E/DX2                !
 ! A34   A(12,13,14)           119.6811         estimate D2E/DX2                !
 ! A35   A(12,13,20)           120.1395         estimate D2E/DX2                !
 ! A36   A(14,13,20)           120.1707         estimate D2E/DX2                !
 ! A37   A(8,14,13)            121.3711         estimate D2E/DX2                !
 ! A38   A(8,14,21)            118.2053         estimate D2E/DX2                !
 ! A39   A(13,14,21)           120.4137         estimate D2E/DX2                !
 ! A40   A(3,22,9)             122.002          estimate D2E/DX2                !
 ! A41   A(3,22,31)            119.0011         estimate D2E/DX2                !
 ! A42   A(9,22,31)            118.9937         estimate D2E/DX2                !
 ! A43   A(7,23,24)            119.8902         estimate D2E/DX2                !
 ! A44   A(7,23,25)            121.0371         estimate D2E/DX2                !
 ! A45   A(24,23,25)           119.0658         estimate D2E/DX2                !
 ! A46   A(23,24,26)           122.278          estimate D2E/DX2                !
 ! A47   A(23,24,46)           119.6898         estimate D2E/DX2                !
 ! A48   A(26,24,46)           118.0167         estimate D2E/DX2                !
 ! A49   A(23,25,27)           119.2871         estimate D2E/DX2                !
 ! A50   A(23,25,30)           120.0448         estimate D2E/DX2                !
 ! A51   A(27,25,30)           120.5412         estimate D2E/DX2                !
 ! A52   A(24,26,28)           117.1384         estimate D2E/DX2                !
 ! A53   A(24,26,48)           119.5846         estimate D2E/DX2                !
 ! A54   A(28,26,48)           123.2606         estimate D2E/DX2                !
 ! A55   A(25,27,28)           120.3118         estimate D2E/DX2                !
 ! A56   A(25,27,29)           119.4386         estimate D2E/DX2                !
 ! A57   A(28,27,29)           120.2297         estimate D2E/DX2                !
 ! A58   A(26,28,27)           121.8795         estimate D2E/DX2                !
 ! A59   A(26,28,47)           118.1486         estimate D2E/DX2                !
 ! A60   A(27,28,47)           119.96           estimate D2E/DX2                !
 ! A61   A(22,31,32)           119.836          estimate D2E/DX2                !
 ! A62   A(22,31,33)           119.8757         estimate D2E/DX2                !
 ! A63   A(32,31,33)           120.2883         estimate D2E/DX2                !
 ! A64   A(31,32,34)           120.2618         estimate D2E/DX2                !
 ! A65   A(31,32,35)           119.6085         estimate D2E/DX2                !
 ! A66   A(34,32,35)           120.1297         estimate D2E/DX2                !
 ! A67   A(31,33,36)           119.824          estimate D2E/DX2                !
 ! A68   A(31,33,37)           119.6707         estimate D2E/DX2                !
 ! A69   A(36,33,37)           120.5053         estimate D2E/DX2                !
 ! A70   A(32,34,38)           119.7536         estimate D2E/DX2                !
 ! A71   A(32,34,39)           119.158          estimate D2E/DX2                !
 ! A72   A(38,34,39)           121.0884         estimate D2E/DX2                !
 ! A73   A(33,36,38)           120.3499         estimate D2E/DX2                !
 ! A74   A(33,36,40)           121.3322         estimate D2E/DX2                !
 ! A75   A(38,36,40)           118.3179         estimate D2E/DX2                !
 ! A76   A(34,38,36)           119.5224         estimate D2E/DX2                !
 ! A77   A(34,38,41)           124.4201         estimate D2E/DX2                !
 ! A78   A(36,38,41)           116.0575         estimate D2E/DX2                !
 ! A79   A(38,41,42)           119.4465         estimate D2E/DX2                !
 ! A80   A(41,42,43)           106.4265         estimate D2E/DX2                !
 ! A81   A(41,42,44)           111.5471         estimate D2E/DX2                !
 ! A82   A(41,42,45)           111.5427         estimate D2E/DX2                !
 ! A83   A(43,42,44)           109.0888         estimate D2E/DX2                !
 ! A84   A(43,42,45)           109.0932         estimate D2E/DX2                !
 ! A85   A(44,42,45)           109.0643         estimate D2E/DX2                !
 ! A86   A(26,48,49)           107.4423         estimate D2E/DX2                !
 ! A87   A(26,48,50)           108.6677         estimate D2E/DX2                !
 ! A88   A(26,48,51)           109.4554         estimate D2E/DX2                !
 ! A89   A(49,48,50)           110.7708         estimate D2E/DX2                !
 ! A90   A(49,48,51)           109.8229         estimate D2E/DX2                !
 ! A91   A(50,48,51)           110.6105         estimate D2E/DX2                !
 ! D1    D(6,1,2,3)              1.1744         estimate D2E/DX2                !
 ! D2    D(6,1,2,16)          -178.641          estimate D2E/DX2                !
 ! D3    D(15,1,2,3)          -179.8564         estimate D2E/DX2                !
 ! D4    D(15,1,2,16)            0.3281         estimate D2E/DX2                !
 ! D5    D(2,1,6,5)             -1.2472         estimate D2E/DX2                !
 ! D6    D(2,1,6,18)           178.3312         estimate D2E/DX2                !
 ! D7    D(15,1,6,5)           179.7904         estimate D2E/DX2                !
 ! D8    D(15,1,6,18)           -0.6312         estimate D2E/DX2                !
 ! D9    D(1,2,3,4)              1.1382         estimate D2E/DX2                !
 ! D10   D(1,2,3,22)          -177.9053         estimate D2E/DX2                !
 ! D11   D(16,2,3,4)          -179.0454         estimate D2E/DX2                !
 ! D12   D(16,2,3,22)            1.9111         estimate D2E/DX2                !
 ! D13   D(2,3,4,5)             -3.2768         estimate D2E/DX2                !
 ! D14   D(2,3,4,7)            178.8092         estimate D2E/DX2                !
 ! D15   D(22,3,4,5)           175.771          estimate D2E/DX2                !
 ! D16   D(22,3,4,7)            -2.1429         estimate D2E/DX2                !
 ! D17   D(2,3,22,9)          -179.4023         estimate D2E/DX2                !
 ! D18   D(2,3,22,31)           -0.0586         estimate D2E/DX2                !
 ! D19   D(4,3,22,9)             1.5539         estimate D2E/DX2                !
 ! D20   D(4,3,22,31)         -179.1025         estimate D2E/DX2                !
 ! D21   D(3,4,5,6)              3.2501         estimate D2E/DX2                !
 ! D22   D(3,4,5,17)          -177.0235         estimate D2E/DX2                !
 ! D23   D(7,4,5,6)           -178.8833         estimate D2E/DX2                !
 ! D24   D(7,4,5,17)             0.8432         estimate D2E/DX2                !
 ! D25   D(3,4,7,8)              0.2843         estimate D2E/DX2                !
 ! D26   D(3,4,7,23)          -179.1214         estimate D2E/DX2                !
 ! D27   D(5,4,7,8)           -177.5409         estimate D2E/DX2                !
 ! D28   D(5,4,7,23)             3.0534         estimate D2E/DX2                !
 ! D29   D(4,5,6,1)             -1.0325         estimate D2E/DX2                !
 ! D30   D(4,5,6,18)           179.3876         estimate D2E/DX2                !
 ! D31   D(17,5,6,1)           179.2444         estimate D2E/DX2                !
 ! D32   D(17,5,6,18)           -0.3355         estimate D2E/DX2                !
 ! D33   D(4,7,8,9)              2.1429         estimate D2E/DX2                !
 ! D34   D(4,7,8,14)          -174.9602         estimate D2E/DX2                !
 ! D35   D(23,7,8,9)          -178.4542         estimate D2E/DX2                !
 ! D36   D(23,7,8,14)            4.4427         estimate D2E/DX2                !
 ! D37   D(4,7,23,24)           51.9706         estimate D2E/DX2                !
 ! D38   D(4,7,23,25)         -127.0601         estimate D2E/DX2                !
 ! D39   D(8,7,23,24)         -127.4182         estimate D2E/DX2                !
 ! D40   D(8,7,23,25)           53.5511         estimate D2E/DX2                !
 ! D41   D(7,8,9,10)           178.3234         estimate D2E/DX2                !
 ! D42   D(7,8,9,22)            -2.7847         estimate D2E/DX2                !
 ! D43   D(14,8,9,10)           -4.4635         estimate D2E/DX2                !
 ! D44   D(14,8,9,22)          174.4285         estimate D2E/DX2                !
 ! D45   D(7,8,14,13)         -178.9335         estimate D2E/DX2                !
 ! D46   D(7,8,14,21)            2.2093         estimate D2E/DX2                !
 ! D47   D(9,8,14,13)            3.9036         estimate D2E/DX2                !
 ! D48   D(9,8,14,21)         -174.9535         estimate D2E/DX2                !
 ! D49   D(8,9,10,11)         -178.6105         estimate D2E/DX2                !
 ! D50   D(8,9,10,12)            1.9739         estimate D2E/DX2                !
 ! D51   D(22,9,10,11)           2.5054         estimate D2E/DX2                !
 ! D52   D(22,9,10,12)        -176.9103         estimate D2E/DX2                !
 ! D53   D(8,9,22,3)             0.9065         estimate D2E/DX2                !
 ! D54   D(8,9,22,31)         -178.4372         estimate D2E/DX2                !
 ! D55   D(10,9,22,3)          179.791          estimate D2E/DX2                !
 ! D56   D(10,9,22,31)           0.4473         estimate D2E/DX2                !
 ! D57   D(9,10,12,13)           1.2593         estimate D2E/DX2                !
 ! D58   D(9,10,12,19)         179.7501         estimate D2E/DX2                !
 ! D59   D(11,10,12,13)       -178.153          estimate D2E/DX2                !
 ! D60   D(11,10,12,19)          0.3378         estimate D2E/DX2                !
 ! D61   D(10,12,13,14)         -1.8823         estimate D2E/DX2                !
 ! D62   D(10,12,13,20)        177.0486         estimate D2E/DX2                !
 ! D63   D(19,12,13,14)        179.6368         estimate D2E/DX2                !
 ! D64   D(19,12,13,20)         -1.4323         estimate D2E/DX2                !
 ! D65   D(12,13,14,8)          -0.7819         estimate D2E/DX2                !
 ! D66   D(12,13,14,21)        178.0503         estimate D2E/DX2                !
 ! D67   D(20,13,14,8)        -179.7124         estimate D2E/DX2                !
 ! D68   D(20,13,14,21)         -0.8803         estimate D2E/DX2                !
 ! D69   D(3,22,31,32)         -90.5564         estimate D2E/DX2                !
 ! D70   D(3,22,31,33)          89.3683         estimate D2E/DX2                !
 ! D71   D(9,22,31,32)          88.8072         estimate D2E/DX2                !
 ! D72   D(9,22,31,33)         -91.268          estimate D2E/DX2                !
 ! D73   D(7,23,24,26)        -178.7772         estimate D2E/DX2                !
 ! D74   D(7,23,24,46)           2.682          estimate D2E/DX2                !
 ! D75   D(25,23,24,26)          0.2725         estimate D2E/DX2                !
 ! D76   D(25,23,24,46)       -178.2682         estimate D2E/DX2                !
 ! D77   D(7,23,25,27)         177.4132         estimate D2E/DX2                !
 ! D78   D(7,23,25,30)           1.4854         estimate D2E/DX2                !
 ! D79   D(24,23,25,27)         -1.6253         estimate D2E/DX2                !
 ! D80   D(24,23,25,30)       -177.5531         estimate D2E/DX2                !
 ! D81   D(23,24,26,28)          1.4587         estimate D2E/DX2                !
 ! D82   D(23,24,26,48)       -179.9668         estimate D2E/DX2                !
 ! D83   D(46,24,26,28)       -179.9772         estimate D2E/DX2                !
 ! D84   D(46,24,26,48)         -1.4027         estimate D2E/DX2                !
 ! D85   D(23,25,27,28)          1.209          estimate D2E/DX2                !
 ! D86   D(23,25,27,29)       -177.1717         estimate D2E/DX2                !
 ! D87   D(30,25,27,28)        177.1161         estimate D2E/DX2                !
 ! D88   D(30,25,27,29)         -1.2646         estimate D2E/DX2                !
 ! D89   D(24,26,28,27)         -1.9026         estimate D2E/DX2                !
 ! D90   D(24,26,28,47)        176.8448         estimate D2E/DX2                !
 ! D91   D(48,26,28,27)        179.58           estimate D2E/DX2                !
 ! D92   D(48,26,28,47)         -1.6727         estimate D2E/DX2                !
 ! D93   D(24,26,48,49)        -31.6748         estimate D2E/DX2                !
 ! D94   D(24,26,48,50)       -151.5766         estimate D2E/DX2                !
 ! D95   D(24,26,48,51)         87.5325         estimate D2E/DX2                !
 ! D96   D(28,26,48,49)        146.8081         estimate D2E/DX2                !
 ! D97   D(28,26,48,50)         26.9063         estimate D2E/DX2                !
 ! D98   D(28,26,48,51)        -93.9846         estimate D2E/DX2                !
 ! D99   D(25,27,28,26)          0.5955         estimate D2E/DX2                !
 ! D100  D(25,27,28,47)       -178.1296         estimate D2E/DX2                !
 ! D101  D(29,27,28,26)        178.9633         estimate D2E/DX2                !
 ! D102  D(29,27,28,47)          0.2381         estimate D2E/DX2                !
 ! D103  D(22,31,32,34)        179.9272         estimate D2E/DX2                !
 ! D104  D(22,31,32,35)          0.0119         estimate D2E/DX2                !
 ! D105  D(33,31,32,34)          0.0028         estimate D2E/DX2                !
 ! D106  D(33,31,32,35)       -179.9126         estimate D2E/DX2                !
 ! D107  D(22,31,33,36)       -179.9579         estimate D2E/DX2                !
 ! D108  D(22,31,33,37)         -0.0059         estimate D2E/DX2                !
 ! D109  D(32,31,33,36)         -0.0335         estimate D2E/DX2                !
 ! D110  D(32,31,33,37)        179.9185         estimate D2E/DX2                !
 ! D111  D(31,32,34,38)          0.0135         estimate D2E/DX2                !
 ! D112  D(31,32,34,39)       -179.9405         estimate D2E/DX2                !
 ! D113  D(35,32,34,38)        179.9284         estimate D2E/DX2                !
 ! D114  D(35,32,34,39)         -0.0257         estimate D2E/DX2                !
 ! D115  D(31,33,36,38)          0.0477         estimate D2E/DX2                !
 ! D116  D(31,33,36,40)        179.9825         estimate D2E/DX2                !
 ! D117  D(37,33,36,38)       -179.9038         estimate D2E/DX2                !
 ! D118  D(37,33,36,40)          0.0309         estimate D2E/DX2                !
 ! D119  D(32,34,38,36)          0.0007         estimate D2E/DX2                !
 ! D120  D(32,34,38,41)       -179.9882         estimate D2E/DX2                !
 ! D121  D(39,34,38,36)        179.9538         estimate D2E/DX2                !
 ! D122  D(39,34,38,41)         -0.0351         estimate D2E/DX2                !
 ! D123  D(33,36,38,34)         -0.0314         estimate D2E/DX2                !
 ! D124  D(33,36,38,41)        179.9584         estimate D2E/DX2                !
 ! D125  D(40,36,38,34)       -179.9682         estimate D2E/DX2                !
 ! D126  D(40,36,38,41)          0.0217         estimate D2E/DX2                !
 ! D127  D(34,38,41,42)          0.1816         estimate D2E/DX2                !
 ! D128  D(36,38,41,42)       -179.8077         estimate D2E/DX2                !
 ! D129  D(38,41,42,43)        179.9058         estimate D2E/DX2                !
 ! D130  D(38,41,42,44)        -61.2142         estimate D2E/DX2                !
 ! D131  D(38,41,42,45)         61.0228         estimate D2E/DX2                !
 --------------------------------------------------------------------------------
 Trust Radius=3.00D-01 FncErr=1.00D-07 GrdErr=1.00D-06
 Number of steps in this run=    287 maximum allowed number of steps=    306.
 GradGradGradGradGradGradGradGradGradGradGradGradGradGradGradGradGradGrad

 Leave Link  103 at Tue Feb 16 00:40:34 2021, MaxMem=  5242880000 cpu:         0.2
 (Enter /opt/nce/packages/global/g09/l202.exe)
 Symmetry turned off by external request.
 Stoichiometry    C26H19BF3NO
 Framework group  C1[X(C26H19BF3NO)]
 Deg. of freedom   147
 Full point group                 C1      NOp   1
                          Input orientation:                          
 ---------------------------------------------------------------------
 Center     Atomic      Atomic             Coordinates (Angstroms)
 Number     Number       Type             X           Y           Z
 ---------------------------------------------------------------------
      1          6           0        0.687089    3.333469    0.920380
      2          6           0        1.493318    2.252387    0.619856
      3          6           0        0.923232    0.966936    0.464615
      4          6           0       -0.492854    0.793804    0.595479
      5          6           0       -1.275966    1.932682    0.952582
      6          6           0       -0.703778    3.175934    1.101384
      7          6           0       -1.073664   -0.500706    0.413608
      8          6           0       -0.205739   -1.595680    0.108576
      9          6           0        1.209141   -1.392528    0.037266
     10          6           0        2.064607   -2.488733   -0.230132
     11          1           0        3.141303   -2.337127   -0.261586
     12          6           0        1.530814   -3.741369   -0.461594
     13          6           0        0.133895   -3.947872   -0.462769
     14          6           0       -0.711128   -2.895203   -0.191647
     15          1           0        1.141323    4.320344    1.034923
     16          1           0        2.566799    2.384414    0.504729
     17          1           0       -2.346002    1.805153    1.103425
     18          1           0       -1.325083    4.033166    1.365114
     19          1           0        2.203554   -4.576292   -0.670549
     20          1           0       -0.274167   -4.933057   -0.694688
     21          1           0       -1.790270   -3.033435   -0.220429
     22          7           0        1.728294   -0.125780    0.206832
     23          6           0       -2.515094   -0.690735    0.524442
     24          6           0       -3.392961    0.128880   -0.220752
     25          6           0       -3.057465   -1.674350    1.385845
     26          6           0       -4.780559    0.007037   -0.133765
     27          6           0       -4.439195   -1.788214    1.504392
     28          6           0       -5.284839   -0.953937    0.758582
     29          1           0       -4.860462   -2.515507    2.203830
     30          1           0       -2.395207   -2.289439    1.999122
     31          6           0        3.154230    0.066039    0.097870
     32          6           0        3.723657    0.340620   -1.143230
     33          6           0        3.959078   -0.023010    1.239791
     34          6           0        5.102979    0.529396   -1.258687
     35          1           0        3.085356    0.409006   -2.026305
     36          6           0        5.330952    0.162622    1.133853
     37          1           0        3.501995   -0.237374    2.207702
     38          6           0        5.917078    0.441080   -0.116446
     39          1           0        5.529025    0.744144   -2.237642
     40          1           0        5.981172    0.098999    2.007559
     41          8           0        7.253448    0.606272   -0.119602
     42          6           0        7.915605    0.892680   -1.335715
     43          1           0        8.981795    0.985133   -1.094148
     44          1           0        7.781223    0.080746   -2.071523
     45          1           0        7.561664    1.840901   -1.776426
     46          1           0       -2.985285    0.872024   -0.909949
     47          1           0       -6.369017   -1.027376    0.878905
     48          5           0       -5.742345    0.997486   -1.033843
     49          9           0       -5.066651    2.229582   -1.175196
     50          9           0       -6.960097    1.172544   -0.361618
     51          9           0       -5.953057    0.423546   -2.295025
 ---------------------------------------------------------------------
 Rotational constants (GHZ):      0.2929752      0.0650026      0.0579583
 Leave Link  202 at Tue Feb 16 00:40:34 2021, MaxMem=  5242880000 cpu:         0.1
 (Enter /opt/nce/packages/global/g09/l301.exe)
 Standard basis: def2TZVP (5D, 7F)
 Ernie: Thresh=  0.10000D-02 Tol=  0.10000D-05 Strict=F.
  1106 basis functions,  1784 primitive gaussians,  1266 cartesian basis functions
   111 alpha electrons      111 beta electrons
       nuclear repulsion energy      2965.7304009032 Hartrees.
 IExCor= 4134 DFT=T Ex+Corr=M06L ExCW=0 ScaHFX=  0.000000
 ScaDFX=  1.000000  1.000000  1.000000  1.000000 ScalE2=  1.000000  1.000000
 IRadAn=      5 IRanWt=     -1 IRanGd=            0 ICorTp=0 IEmpDi=  4
 NAtoms=   51 NActive=   51 NUniq=   51 SFac= 1.00D+00 NAtFMM=   60 NAOKFM=F Big=F
 Integral buffers will be    131072 words long.
 Raffenetti 2 integral format.
 Two-electron integral symmetry is turned off.
 ------------------------------------------------------------------------------
 Polarizable Continuum Model (PCM)
 =================================
 Model                : PCM (using non-symmetric T matrix).
 Atomic radii         : SMD-Coulomb.
 Polarization charges : Total charges.
 Charge compensation  : None.
 Solution method      : On-the-fly selection.
 Cavity type          : VdW (van der Waals Surface) (Alpha=1.000).
 Cavity algorithm     : GePol (No added spheres)
                        Default sphere list used, NSphG=   51.
                        Lebedev-Laikov grids with approx.  5.0 points / Ang**2.
                        Smoothing algorithm: York/Karplus (Gamma=1.0000).
                        Polarization charges: spherical gaussians, with
                                              point-specific exponents (IZeta= 3).
                        Self-potential: point-specific (ISelfS= 7).
                        Self-field    : sphere-specific E.n sum rule (ISelfD= 2).
 1st derivatives      : Analytical E(r).r(x)/FMM algorithm (CHGder, D1EAlg=3).
                        Cavity 1st derivative terms included.
 Solvent              : Acetonitrile, Eps=  35.688000 Eps(inf)=   1.806874
 ------------------------------------------------------------------------------
 GePol: Number of generator spheres                  =      51
 GePol: Total number of spheres                      =      51
 GePol: Number of exposed spheres                    =      51 (100.00%)
 GePol: Number of points                             =    3808
 GePol: Average weight of points                     =       0.12
 GePol: Minimum weight of points                     =   0.37D-09
 GePol: Maximum weight of points                     =    0.21559
 GePol: Number of points with low weight             =     215
 GePol: Fraction of low-weight points (<1% of avg)   =       5.65%
 GePol: Cavity surface area                          =    439.122 Ang**2
 GePol: Cavity volume                                =    430.984 Ang**3
 ------------------------------------------------------------------------------
 Atomic radii for non-electrostatic terms: SMD-CDS.
 ------------------------------------------------------------------------------
 PCM non-electrostatic energy =        -0.0068399174 Hartrees.
 Nuclear repulsion after PCM non-electrostatic terms =     2965.7235609858 Hartrees.
 Leave Link  301 at Tue Feb 16 00:40:34 2021, MaxMem=  5242880000 cpu:         2.3
 (Enter /opt/nce/packages/global/g09/l302.exe)
 NPDir=0 NMtPBC=     1 NCelOv=     1 NCel=       1 NClECP=     1 NCelD=      1
         NCelK=      1 NCelE2=     1 NClLst=     1 CellRange=     0.0.
 One-electron integrals computed using PRISM.
   1 Symmetry operations used in ECPInt.
 ECPInt:  NShTT=   91806 NPrTT=  285396 LenC2=   71439 LenP2D=  151316.
 LDataN:  DoStor=T MaxTD1= 6 Len=  172
 NBasis=  1106 RedAO= T EigKep=  5.29D-06  NBF=  1106
 NBsUse=  1106 1.00D-06 EigRej= -1.00D+00 NBFU=  1106
 Precomputing XC quadrature grid using
 IXCGrd= 4 IRadAn=           5 IRanWt=          -1 IRanGd=           0 AccXCQ= 0.00D+00.
 Generated NRdTot=       0 NPtTot=           0 NUsed=           0 NTot=          32
 NSgBfM=  1159  1159  1159  1163  1163 MxSgAt=    51 MxSgA2=    51.
 Leave Link  302 at Tue Feb 16 00:40:41 2021, MaxMem=  5242880000 cpu:        52.7
 (Enter /opt/nce/packages/global/g09/l303.exe)
 DipDrv:  MaxL=1.
 Leave Link  303 at Tue Feb 16 00:40:41 2021, MaxMem=  5242880000 cpu:         3.0
 (Enter /opt/nce/packages/global/g09/l401.exe)
 ExpMin= 6.06D-02 ExpMax= 3.55D+04 ExpMxC= 1.21D+03 IAcc=3 IRadAn=         5 AccDes= 0.00D+00
 Harris functional with IExCor= 1009 and IRadAn=       5 diagonalized for initial guess.
 HarFok:  IExCor= 1009 AccDes= 0.00D+00 IRadAn=         5 IDoV= 1 UseB2=F ITyADJ=14
 ICtDFT=  3500011 ScaDFX=  1.000000  1.000000  1.000000  1.000000
 FoFCou: FMM=F IPFlag=           0 FMFlag=      100000 FMFlg1=           0
         NFxFlg=           0 DoJE=T BraDBF=F KetDBF=T FulRan=T
         wScrn=  0.000000 ICntrl=     500 IOpCl=  0 I1Cent=   200000004 NGrid=           0
         NMat0=    1 NMatS0=      1 NMatT0=    0 NMatD0=    1 NMtDS0=    0 NMtDT0=    0
 Symmetry not used in FoFCou.
 Harris En= -1455.96002641613    
 JPrj=0 DoOrth=F DoCkMO=F.
 Leave Link  401 at Tue Feb 16 00:40:52 2021, MaxMem=  5242880000 cpu:       131.4
 (Enter /opt/nce/packages/global/g09/l502.exe)
 Closed shell SCF:
 Using DIIS extrapolation, IDIIS=  1040.
 Two-electron integral symmetry not used.
 IVT=     4849708 IEndB=     4849708 NGot=  5242880000 MDV=  5239650955
 LenX=  5239650955 LenY=  5238046933
 Requested convergence on RMS density matrix=1.00D-08 within 128 cycles.
 Requested convergence on MAX density matrix=1.00D-06.
 Requested convergence on             energy=1.00D-06.
 No special actions if energy rises.
 Fock matrices will be formed incrementally for  20 cycles.

 Cycle   1  Pass 1  IDiag  1:
 FoFJK:  IHMeth= 1 ICntrl=     500 DoSepK=F KAlg= 0 I1Cent=   0 FoldK=F
 IRaf= 660000000 NMat=   1 IRICut=       1 DoRegI=T DoRafI=F ISym2E= 0.
 FoFCou: FMM=F IPFlag=           0 FMFlag=      100000 FMFlg1=           0
         NFxFlg=           0 DoJE=T BraDBF=F KetDBF=F FulRan=T
         wScrn=  0.000000 ICntrl=     500 IOpCl=  0 I1Cent=           0 NGrid=           0
         NMat0=    1 NMatS0=      1 NMatT0=    0 NMatD0=    1 NMtDS0=    0 NMtDT0=    0
 Symmetry not used in FoFCou.
 Inv3:  Mode=1 IEnd=    43502592.
 Iteration    1 A*A^-1 deviation from unit magnitude is 7.33D-15 for   3808.
 Iteration    1 A*A^-1 deviation from orthogonality  is 2.66D-15 for   3239    419.
 Iteration    1 A^-1*A deviation from unit magnitude is 7.55D-15 for   3808.
 Iteration    1 A^-1*A deviation from orthogonality  is 2.37D-10 for   3221   3150.
 Iteration    2 A*A^-1 deviation from unit magnitude is 2.78D-15 for    417.
 Iteration    2 A*A^-1 deviation from orthogonality  is 2.38D-15 for   1621    552.
 Iteration    2 A^-1*A deviation from unit magnitude is 8.88D-16 for   1346.
 Iteration    2 A^-1*A deviation from orthogonality  is 3.27D-16 for   1822    409.
 E= -1456.52505501316    
 DIIS: error= 2.77D-02 at cycle   1 NSaved=   1.
 NSaved= 1 IEnMin= 1 EnMin= -1456.52505501316     IErMin= 1 ErrMin= 2.77D-02
 ErrMax= 2.77D-02  0.00D+00 EMaxC= 1.00D-01 BMatC= 7.53D-01 BMatP= 7.53D-01
 IDIUse=3 WtCom= 7.23D-01 WtEn= 2.77D-01
 Coeff-Com:  0.100D+01
 Coeff-En:   0.100D+01
 Coeff:      0.100D+01
 Gap=     0.068 Goal=   None    Shift=    0.000
 GapD=    0.068 DampG=0.500 DampE=0.500 DampFc=0.2500 IDamp=-1.
 Damping current iteration by 2.50D-01
 RMSDP=3.17D-03 MaxDP=4.47D-01              OVMax= 4.26D-01

 Cycle   2  Pass 1  IDiag  1:
 RMSU=  7.90D-04    CP:  1.01D+00
 E= -1456.72397658481     Delta-E=       -0.198921571657 Rises=F Damp=T
 DIIS: error= 1.23D-02 at cycle   2 NSaved=   2.
 NSaved= 2 IEnMin= 2 EnMin= -1456.72397658481     IErMin= 2 ErrMin= 1.23D-02
 ErrMax= 1.23D-02  0.00D+00 EMaxC= 1.00D-01 BMatC= 2.28D-01 BMatP= 7.53D-01
 IDIUse=3 WtCom= 8.77D-01 WtEn= 1.23D-01
 Coeff-Com: -0.737D+00 0.174D+01
 Coeff-En:   0.000D+00 0.100D+01
 Coeff:     -0.646D+00 0.165D+01
 Gap=     0.105 Goal=   None    Shift=    0.000
 RMSDP=1.92D-03 MaxDP=2.38D-01 DE=-1.99D-01 OVMax= 5.68D-01

 Cycle   3  Pass 1  IDiag  1:
 RMSU=  1.56D-03    CP:  9.97D-01  2.42D+00
 E= -1456.95153714937     Delta-E=       -0.227560564559 Rises=F Damp=F
 DIIS: error= 1.38D-02 at cycle   3 NSaved=   3.
 NSaved= 3 IEnMin= 3 EnMin= -1456.95153714937     IErMin= 2 ErrMin= 1.23D-02
 ErrMax= 1.38D-02  0.00D+00 EMaxC= 1.00D-01 BMatC= 1.39D-01 BMatP= 2.28D-01
 IDIUse=3 WtCom= 8.62D-01 WtEn= 1.38D-01
 Coeff-Com: -0.551D+00 0.105D+01 0.504D+00
 Coeff-En:   0.000D+00 0.000D+00 0.100D+01
 Coeff:     -0.475D+00 0.903D+00 0.572D+00
 Gap=     0.096 Goal=   None    Shift=    0.000
 RMSDP=6.45D-04 MaxDP=7.44D-02 DE=-2.28D-01 OVMax= 2.44D-01

 Cycle   4  Pass 1  IDiag  1:
 RMSU=  6.31D-04    CP:  1.00D+00  2.39D+00  9.19D-01
 E= -1457.02860976493     Delta-E=       -0.077072615556 Rises=F Damp=F
 DIIS: error= 9.49D-03 at cycle   4 NSaved=   4.
 NSaved= 4 IEnMin= 4 EnMin= -1457.02860976493     IErMin= 4 ErrMin= 9.49D-03
 ErrMax= 9.49D-03  0.00D+00 EMaxC= 1.00D-01 BMatC= 7.51D-02 BMatP= 1.39D-01
 IDIUse=3 WtCom= 9.05D-01 WtEn= 9.49D-02
 Coeff-Com: -0.186D+00 0.315D+00 0.427D+00 0.444D+00
 Coeff-En:   0.000D+00 0.000D+00 0.379D+00 0.621D+00
 Coeff:     -0.168D+00 0.285D+00 0.423D+00 0.461D+00
 Gap=     0.076 Goal=   None    Shift=    0.000
 RMSDP=3.01D-04 MaxDP=3.67D-02 DE=-7.71D-02 OVMax= 1.70D-01

 Cycle   5  Pass 1  IDiag  1:
 RMSU=  2.07D-04    CP:  1.00D+00  2.34D+00  8.99D-01  6.65D-01
 E= -1457.10370697678     Delta-E=       -0.075097211846 Rises=F Damp=F
 DIIS: error= 2.28D-03 at cycle   5 NSaved=   5.
 NSaved= 5 IEnMin= 5 EnMin= -1457.10370697678     IErMin= 5 ErrMin= 2.28D-03
 ErrMax= 2.28D-03  0.00D+00 EMaxC= 1.00D-01 BMatC= 5.40D-03 BMatP= 7.51D-02
 IDIUse=3 WtCom= 9.77D-01 WtEn= 2.28D-02
 Coeff-Com: -0.575D-01 0.833D-01 0.218D+00 0.294D+00 0.462D+00
 Coeff-En:   0.000D+00 0.000D+00 0.000D+00 0.123D-01 0.988D+00
 Coeff:     -0.562D-01 0.814D-01 0.213D+00 0.287D+00 0.474D+00
 Gap=     0.080 Goal=   None    Shift=    0.000
 RMSDP=1.44D-04 MaxDP=1.33D-02 DE=-7.51D-02 OVMax= 4.21D-02

 Cycle   6  Pass 1  IDiag  1:
 RMSU=  1.15D-04    CP:  9.99D-01  2.32D+00  8.65D-01  6.20D-01  7.11D-01
 E= -1457.10840143564     Delta-E=       -0.004694458860 Rises=F Damp=F
 DIIS: error= 1.28D-03 at cycle   6 NSaved=   6.
 NSaved= 6 IEnMin= 6 EnMin= -1457.10840143564     IErMin= 6 ErrMin= 1.28D-03
 ErrMax= 1.28D-03  0.00D+00 EMaxC= 1.00D-01 BMatC= 1.11D-03 BMatP= 5.40D-03
 IDIUse=3 WtCom= 9.87D-01 WtEn= 1.28D-02
 Coeff-Com: -0.144D-01 0.160D-01 0.671D-01 0.973D-01 0.328D+00 0.506D+00
 Coeff-En:   0.000D+00 0.000D+00 0.000D+00 0.000D+00 0.227D+00 0.773D+00
 Coeff:     -0.142D-01 0.158D-01 0.663D-01 0.961D-01 0.327D+00 0.509D+00
 Gap=     0.079 Goal=   None    Shift=    0.000
 RMSDP=4.15D-05 MaxDP=3.15D-03 DE=-4.69D-03 OVMax= 1.74D-02

 Cycle   7  Pass 1  IDiag  1:
 RMSU=  3.18D-05    CP:  9.99D-01  2.32D+00  8.63D-01  6.13D-01  8.02D-01
                    CP:  8.42D-01
 E= -1457.10958290442     Delta-E=       -0.001181468784 Rises=F Damp=F
 DIIS: error= 3.25D-04 at cycle   7 NSaved=   7.
 NSaved= 7 IEnMin= 7 EnMin= -1457.10958290442     IErMin= 7 ErrMin= 3.25D-04
 ErrMax= 3.25D-04  0.00D+00 EMaxC= 1.00D-01 BMatC= 1.25D-04 BMatP= 1.11D-03
 IDIUse=3 WtCom= 9.97D-01 WtEn= 3.25D-03
 Coeff-Com: -0.378D-02 0.336D-02 0.919D-02 0.122D-01 0.137D+00 0.322D+00
 Coeff-Com:  0.520D+00
 Coeff-En:   0.000D+00 0.000D+00 0.000D+00 0.000D+00 0.000D+00 0.527D-01
 Coeff-En:   0.947D+00
 Coeff:     -0.377D-02 0.335D-02 0.916D-02 0.122D-01 0.137D+00 0.321D+00
 Coeff:      0.521D+00
 Gap=     0.079 Goal=   None    Shift=    0.000
 RMSDP=1.40D-05 MaxDP=8.69D-04 DE=-1.18D-03 OVMax= 4.29D-03

 Cycle   8  Pass 1  IDiag  1:
 RMSU=  1.16D-05    CP:  9.99D-01  2.32D+00  8.62D-01  6.13D-01  8.16D-01
                    CP:  8.82D-01  8.79D-01
 E= -1457.10969556455     Delta-E=       -0.000112660132 Rises=F Damp=F
 DIIS: error= 9.78D-05 at cycle   8 NSaved=   8.
 NSaved= 8 IEnMin= 8 EnMin= -1457.10969556455     IErMin= 8 ErrMin= 9.78D-05
 ErrMax= 9.78D-05  0.00D+00 EMaxC= 1.00D-01 BMatC= 1.11D-05 BMatP= 1.25D-04
 IDIUse=1 WtCom= 1.00D+00 WtEn= 0.00D+00
 Coeff-Com: -0.186D-02 0.196D-02-0.400D-03-0.268D-02 0.473D-01 0.137D+00
 Coeff-Com:  0.300D+00 0.519D+00
 Coeff:     -0.186D-02 0.196D-02-0.400D-03-0.268D-02 0.473D-01 0.137D+00
 Coeff:      0.300D+00 0.519D+00
 Gap=     0.079 Goal=   None    Shift=    0.000
 RMSDP=5.49D-06 MaxDP=5.54D-04 DE=-1.13D-04 OVMax= 1.53D-03

 Cycle   9  Pass 1  IDiag  1:
 RMSU=  4.60D-06    CP:  9.99D-01  2.32D+00  8.61D-01  6.13D-01  8.16D-01
                    CP:  8.92D-01  9.27D-01  8.48D-01
 E= -1457.10970477973     Delta-E=       -0.000009215183 Rises=F Damp=F
 DIIS: error= 5.19D-05 at cycle   9 NSaved=   9.
 NSaved= 9 IEnMin= 9 EnMin= -1457.10970477973     IErMin= 9 ErrMin= 5.19D-05
 ErrMax= 5.19D-05  0.00D+00 EMaxC= 1.00D-01 BMatC= 1.88D-06 BMatP= 1.11D-05
 IDIUse=1 WtCom= 1.00D+00 WtEn= 0.00D+00
 Coeff-Com: -0.930D-03 0.118D-02-0.111D-02-0.322D-02 0.101D-01 0.387D-01
 Coeff-Com:  0.108D+00 0.325D+00 0.523D+00
 Coeff:     -0.930D-03 0.118D-02-0.111D-02-0.322D-02 0.101D-01 0.387D-01
 Coeff:      0.108D+00 0.325D+00 0.523D+00
 Gap=     0.079 Goal=   None    Shift=    0.000
 RMSDP=2.87D-06 MaxDP=3.40D-04 DE=-9.22D-06 OVMax= 6.11D-04

 Cycle  10  Pass 1  IDiag  1:
 RMSU=  1.56D-06    CP:  9.99D-01  2.32D+00  8.61D-01  6.12D-01  8.19D-01
                    CP:  8.99D-01  9.47D-01  9.56D-01  8.14D-01
 E= -1457.10970662345     Delta-E=       -0.000001843719 Rises=F Damp=F
 DIIS: error= 8.38D-06 at cycle  10 NSaved=  10.
 NSaved=10 IEnMin=10 EnMin= -1457.10970662345     IErMin=10 ErrMin= 8.38D-06
 ErrMax= 8.38D-06  0.00D+00 EMaxC= 1.00D-01 BMatC= 1.29D-07 BMatP= 1.88D-06
 IDIUse=1 WtCom= 1.00D+00 WtEn= 0.00D+00
 Coeff-Com: -0.322D-03 0.445D-03-0.402D-03-0.124D-02-0.127D-02 0.701D-03
 Coeff-Com:  0.129D-01 0.891D-01 0.251D+00 0.649D+00
 Coeff:     -0.322D-03 0.445D-03-0.402D-03-0.124D-02-0.127D-02 0.701D-03
 Coeff:      0.129D-01 0.891D-01 0.251D+00 0.649D+00
 Gap=     0.079 Goal=   None    Shift=    0.000
 RMSDP=1.32D-06 MaxDP=1.71D-04 DE=-1.84D-06 OVMax= 1.21D-04

 Cycle  11  Pass 1  IDiag  1:
 RMSU=  6.37D-07    CP:  9.99D-01  2.32D+00  8.60D-01  6.11D-01  8.19D-01
                    CP:  9.04D-01  9.60D-01  9.73D-01  9.03D-01  1.09D+00
 E= -1457.10970671118     Delta-E=       -0.000000087725 Rises=F Damp=F
 DIIS: error= 5.50D-06 at cycle  11 NSaved=  11.
 NSaved=11 IEnMin=11 EnMin= -1457.10970671118     IErMin=11 ErrMin= 5.50D-06
 ErrMax= 5.50D-06  0.00D+00 EMaxC= 1.00D-01 BMatC= 3.94D-08 BMatP= 1.29D-07
 IDIUse=1 WtCom= 1.00D+00 WtEn= 0.00D+00
 Coeff-Com: -0.948D-04 0.147D-03-0.272D-04-0.192D-03-0.254D-02-0.636D-02
 Coeff-Com: -0.104D-01 0.707D-03 0.707D-01 0.414D+00 0.534D+00
 Coeff:     -0.948D-04 0.147D-03-0.272D-04-0.192D-03-0.254D-02-0.636D-02
 Coeff:     -0.104D-01 0.707D-03 0.707D-01 0.414D+00 0.534D+00
 Gap=     0.079 Goal=   None    Shift=    0.000
 RMSDP=5.12D-07 MaxDP=5.53D-05 DE=-8.77D-08 OVMax= 4.12D-05

 Cycle  12  Pass 1  IDiag  1:
 RMSU=  2.62D-07    CP:  9.99D-01  2.32D+00  8.60D-01  6.11D-01  8.20D-01
                    CP:  9.04D-01  9.64D-01  9.91D-01  9.14D-01  1.19D+00
                    CP:  1.13D+00
 E= -1457.10970674656     Delta-E=       -0.000000035378 Rises=F Damp=F
 DIIS: error= 1.00D-06 at cycle  12 NSaved=  12.
 NSaved=12 IEnMin=12 EnMin= -1457.10970674656     IErMin=12 ErrMin= 1.00D-06
 ErrMax= 1.00D-06  0.00D+00 EMaxC= 1.00D-01 BMatC= 1.18D-09 BMatP= 3.94D-08
 IDIUse=1 WtCom= 1.00D+00 WtEn= 0.00D+00
 Coeff-Com: -0.312D-04 0.473D-04 0.204D-04 0.149D-04-0.923D-03-0.263D-02
 Coeff-Com: -0.488D-02-0.512D-02 0.119D-01 0.123D+00 0.217D+00 0.662D+00
 Coeff:     -0.312D-04 0.473D-04 0.204D-04 0.149D-04-0.923D-03-0.263D-02
 Coeff:     -0.488D-02-0.512D-02 0.119D-01 0.123D+00 0.217D+00 0.662D+00
 Gap=     0.079 Goal=   None    Shift=    0.000
 RMSDP=1.56D-07 MaxDP=2.22D-05 DE=-3.54D-08 OVMax= 8.44D-06

 Cycle  13  Pass 1  IDiag  1:
 RMSU=  6.46D-08    CP:  9.99D-01  2.32D+00  8.60D-01  6.11D-01  8.20D-01
                    CP:  9.05D-01  9.65D-01  9.93D-01  9.21D-01  1.22D+00
                    CP:  1.23D+00  1.03D+00
 E= -1457.10970674738     Delta-E=       -0.000000000827 Rises=F Damp=F
 DIIS: error= 4.04D-07 at cycle  13 NSaved=  13.
 NSaved=13 IEnMin=13 EnMin= -1457.10970674738     IErMin=13 ErrMin= 4.04D-07
 ErrMax= 4.04D-07  0.00D+00 EMaxC= 1.00D-01 BMatC= 2.75D-10 BMatP= 1.18D-09
 IDIUse=1 WtCom= 1.00D+00 WtEn= 0.00D+00
 Coeff-Com: -0.431D-05 0.615D-05 0.488D-05 0.245D-04-0.205D-03-0.645D-03
 Coeff-Com: -0.133D-02-0.293D-02-0.362D-02 0.990D-02 0.431D-01 0.354D+00
 Coeff-Com:  0.601D+00
 Coeff:     -0.431D-05 0.615D-05 0.488D-05 0.245D-04-0.205D-03-0.645D-03
 Coeff:     -0.133D-02-0.293D-02-0.362D-02 0.990D-02 0.431D-01 0.354D+00
 Coeff:      0.601D+00
 Gap=     0.079 Goal=   None    Shift=    0.000
 RMSDP=5.89D-08 MaxDP=9.11D-06 DE=-8.27D-10 OVMax= 5.49D-06

 Cycle  14  Pass 1  IDiag  1:
 RMSU=  2.62D-08    CP:  9.99D-01  2.32D+00  8.60D-01  6.11D-01  8.20D-01
                    CP:  9.05D-01  9.66D-01  9.94D-01  9.22D-01  1.23D+00
                    CP:  1.26D+00  1.09D+00  1.04D+00
 E= -1457.10970674757     Delta-E=       -0.000000000191 Rises=F Damp=F
 DIIS: error= 1.54D-07 at cycle  14 NSaved=  14.
 NSaved=14 IEnMin=14 EnMin= -1457.10970674757     IErMin=14 ErrMin= 1.54D-07
 ErrMax= 1.54D-07  0.00D+00 EMaxC= 1.00D-01 BMatC= 4.05D-11 BMatP= 2.75D-10
 IDIUse=1 WtCom= 1.00D+00 WtEn= 0.00D+00
 Coeff-Com: -0.188D-06-0.230D-07 0.107D-05 0.114D-04 0.814D-05 0.273D-05
 Coeff-Com: -0.425D-04-0.750D-03-0.327D-02-0.983D-02-0.416D-02 0.105D+00
 Coeff-Com:  0.338D+00 0.575D+00
 Coeff:     -0.188D-06-0.230D-07 0.107D-05 0.114D-04 0.814D-05 0.273D-05
 Coeff:     -0.425D-04-0.750D-03-0.327D-02-0.983D-02-0.416D-02 0.105D+00
 Coeff:      0.338D+00 0.575D+00
 Gap=     0.079 Goal=   None    Shift=    0.000
 RMSDP=1.85D-08 MaxDP=2.53D-06 DE=-1.91D-10 OVMax= 2.39D-06

 Cycle  15  Pass 1  IDiag  1:
 RMSU=  9.75D-09    CP:  9.99D-01  2.32D+00  8.60D-01  6.11D-01  8.20D-01
                    CP:  9.05D-01  9.66D-01  9.95D-01  9.23D-01  1.23D+00
                    CP:  1.27D+00  1.11D+00  1.09D+00  1.14D+00
 E= -1457.10970674763     Delta-E=       -0.000000000052 Rises=F Damp=F
 DIIS: error= 5.81D-08 at cycle  15 NSaved=  15.
 NSaved=15 IEnMin=15 EnMin= -1457.10970674763     IErMin=15 ErrMin= 5.81D-08
 ErrMax= 5.81D-08  0.00D+00 EMaxC= 1.00D-01 BMatC= 3.67D-12 BMatP= 4.05D-11
 IDIUse=1 WtCom= 1.00D+00 WtEn= 0.00D+00
 Coeff-Com:  0.350D-06-0.615D-06-0.118D-06 0.250D-05 0.245D-04 0.740D-04
 Coeff-Com:  0.127D-03-0.589D-04-0.130D-02-0.608D-02-0.696D-02 0.141D-01
 Coeff-Com:  0.111D+00 0.292D+00 0.597D+00
 Coeff:      0.350D-06-0.615D-06-0.118D-06 0.250D-05 0.245D-04 0.740D-04
 Coeff:      0.127D-03-0.589D-04-0.130D-02-0.608D-02-0.696D-02 0.141D-01
 Coeff:      0.111D+00 0.292D+00 0.597D+00
 Gap=     0.079 Goal=   None    Shift=    0.000
 RMSDP=6.47D-09 MaxDP=6.91D-07 DE=-5.18D-11 OVMax= 7.28D-07

 Error on total polarization charges =  0.05090
 SCF Done:  E(RM06L) =  -1457.10970675     A.U. after   15 cycles
            NFock= 15  Conv=0.65D-08     -V/T= 2.0046
 KE= 1.450444004353D+03 PE=-9.334574341695D+03 EE= 3.461297069608D+03
 SMD-CDS (non-electrostatic) energy       (kcal/mol) =      -4.29
 (included in total energy above)
 Leave Link  502 at Tue Feb 16 00:58:48 2021, MaxMem=  5242880000 cpu:     12818.1
 (Enter /opt/nce/packages/global/g09/l601.exe)
 Copying SCF densities to generalized density rwf, IOpCl= 0 IROHF=0.

 **********************************************************************

            Population analysis using the SCF density.

 **********************************************************************

 Alpha  occ. eigenvalues --  -24.43468 -24.43448 -24.43227 -19.00540 -14.26901
 Alpha  occ. eigenvalues --  -10.13211 -10.13206 -10.12218 -10.11368 -10.09876
 Alpha  occ. eigenvalues --  -10.09717 -10.09365 -10.09329 -10.07502 -10.07473
 Alpha  occ. eigenvalues --  -10.07122 -10.07059 -10.06974 -10.06948 -10.06916
 Alpha  occ. eigenvalues --  -10.06745 -10.06722 -10.06526 -10.06461 -10.05894
 Alpha  occ. eigenvalues --  -10.05836 -10.05681 -10.05042 -10.04843 -10.04631
 Alpha  occ. eigenvalues --  -10.01956  -6.67946  -1.14289  -1.10710  -1.10462
 Alpha  occ. eigenvalues --   -1.04969  -0.98410  -0.85475  -0.84183  -0.82470
 Alpha  occ. eigenvalues --   -0.81322  -0.78464  -0.74739  -0.73780  -0.73288
 Alpha  occ. eigenvalues --   -0.72547  -0.71406  -0.70502  -0.70378  -0.66448
 Alpha  occ. eigenvalues --   -0.64468  -0.62141  -0.61044  -0.58930  -0.57891
 Alpha  occ. eigenvalues --   -0.56872  -0.56378  -0.54645  -0.52767  -0.52639
 Alpha  occ. eigenvalues --   -0.51140  -0.49588  -0.48937  -0.47030  -0.46763
 Alpha  occ. eigenvalues --   -0.45986  -0.44631  -0.44138  -0.44032  -0.43132
 Alpha  occ. eigenvalues --   -0.42970  -0.42470  -0.41921  -0.41681  -0.41440
 Alpha  occ. eigenvalues --   -0.41047  -0.40771  -0.40697  -0.39845  -0.39603
 Alpha  occ. eigenvalues --   -0.39343  -0.38070  -0.37755  -0.37179  -0.35914
 Alpha  occ. eigenvalues --   -0.35614  -0.35494  -0.34553  -0.34102  -0.34063
 Alpha  occ. eigenvalues --   -0.33784  -0.33503  -0.32882  -0.32731  -0.32448
 Alpha  occ. eigenvalues --   -0.31936  -0.31423  -0.31275  -0.30121  -0.29874
 Alpha  occ. eigenvalues --   -0.29726  -0.29626  -0.29541  -0.25972  -0.25121
 Alpha  occ. eigenvalues --   -0.24529  -0.24001  -0.23379  -0.22647  -0.21392
 Alpha  occ. eigenvalues --   -0.21056
 Alpha virt. eigenvalues --   -0.13140  -0.06480  -0.05205  -0.04770  -0.03892
 Alpha virt. eigenvalues --   -0.03447  -0.02711  -0.02044   0.00981   0.04960
 Alpha virt. eigenvalues --    0.05228   0.06303   0.06489   0.06867   0.07675
 Alpha virt. eigenvalues --    0.08357   0.08641   0.08946   0.09369   0.09454
 Alpha virt. eigenvalues --    0.09612   0.10255   0.10354   0.10392   0.10979
 Alpha virt. eigenvalues --    0.11286   0.11525   0.11895   0.12064   0.12125
 Alpha virt. eigenvalues --    0.12557   0.12800   0.13281   0.13813   0.13943
 Alpha virt. eigenvalues --    0.14266   0.14847   0.15762   0.16660   0.17238
 Alpha virt. eigenvalues --    0.17805   0.18251   0.18525   0.18708   0.19546
 Alpha virt. eigenvalues --    0.19786   0.20914   0.21241   0.21411   0.21634
 Alpha virt. eigenvalues --    0.21665   0.21966   0.22227   0.22232   0.22572
 Alpha virt. eigenvalues --    0.22866   0.23110   0.23715   0.23963   0.24203
 Alpha virt. eigenvalues --    0.24310   0.24378   0.25165   0.25481   0.25725
 Alpha virt. eigenvalues --    0.25889   0.26297   0.26618   0.26980   0.27234
 Alpha virt. eigenvalues --    0.27494   0.27516   0.27980   0.28369   0.28698
 Alpha virt. eigenvalues --    0.29060   0.29516   0.29897   0.30094   0.30607
 Alpha virt. eigenvalues --    0.30986   0.31043   0.31377   0.31701   0.32205
 Alpha virt. eigenvalues --    0.32709   0.32907   0.33355   0.33470   0.33711
 Alpha virt. eigenvalues --    0.33809   0.34059   0.34176   0.34423   0.34604
 Alpha virt. eigenvalues --    0.34891   0.35264   0.35369   0.35978   0.36379
 Alpha virt. eigenvalues --    0.36523   0.36696   0.37200   0.37305   0.37747
 Alpha virt. eigenvalues --    0.38084   0.38526   0.38992   0.39384   0.39689
 Alpha virt. eigenvalues --    0.39860   0.40266   0.40394   0.40468   0.40586
 Alpha virt. eigenvalues --    0.40730   0.41654   0.41933   0.42188   0.42581
 Alpha virt. eigenvalues --    0.42671   0.42804   0.43221   0.43906   0.43997
 Alpha virt. eigenvalues --    0.44255   0.44359   0.44730   0.45159   0.45316
 Alpha virt. eigenvalues --    0.45692   0.45916   0.46286   0.46640   0.46790
 Alpha virt. eigenvalues --    0.47108   0.47967   0.48331   0.48611   0.48936
 Alpha virt. eigenvalues --    0.49246   0.49530   0.49748   0.50288   0.50925
 Alpha virt. eigenvalues --    0.51717   0.52297   0.53195   0.53588   0.54054
 Alpha virt. eigenvalues --    0.54243   0.55279   0.55647   0.55902   0.56636
 Alpha virt. eigenvalues --    0.57514   0.58233   0.58412   0.58911   0.59251
 Alpha virt. eigenvalues --    0.59523   0.59647   0.60582   0.60934   0.61216
 Alpha virt. eigenvalues --    0.61273   0.61610   0.62282   0.63063   0.63404
 Alpha virt. eigenvalues --    0.63651   0.64141   0.64466   0.64727   0.64879
 Alpha virt. eigenvalues --    0.65006   0.65317   0.65519   0.65791   0.66420
 Alpha virt. eigenvalues --    0.66694   0.66885   0.67331   0.67498   0.67825
 Alpha virt. eigenvalues --    0.68474   0.68539   0.68717   0.69201   0.69430
 Alpha virt. eigenvalues --    0.69778   0.70092   0.70533   0.70993   0.71064
 Alpha virt. eigenvalues --    0.71577   0.71710   0.72338   0.72645   0.72912
 Alpha virt. eigenvalues --    0.73472   0.73583   0.73828   0.74058   0.74563
 Alpha virt. eigenvalues --    0.75099   0.75708   0.75847   0.76288   0.76683
 Alpha virt. eigenvalues --    0.77241   0.77309   0.78028   0.78177   0.78949
 Alpha virt. eigenvalues --    0.79305   0.79979   0.80262   0.80989   0.81468
 Alpha virt. eigenvalues --    0.81653   0.81818   0.82452   0.82724   0.83336
 Alpha virt. eigenvalues --    0.84370   0.84468   0.84895   0.85294   0.85999
 Alpha virt. eigenvalues --    0.86451   0.86717   0.87166   0.87653   0.87800
 Alpha virt. eigenvalues --    0.88702   0.88963   0.90482   0.90969   0.91422
 Alpha virt. eigenvalues --    0.92238   0.92956   0.93211   0.93740   0.94268
 Alpha virt. eigenvalues --    0.94888   0.95217   0.95592   0.96437   0.96789
 Alpha virt. eigenvalues --    0.97344   0.98454   0.99070   0.99335   1.00411
 Alpha virt. eigenvalues --    1.00862   1.02066   1.02984   1.03186   1.04080
 Alpha virt. eigenvalues --    1.04610   1.04915   1.05251   1.06270   1.07155
 Alpha virt. eigenvalues --    1.07712   1.07905   1.08825   1.09352   1.09683
 Alpha virt. eigenvalues --    1.09867   1.10140   1.10913   1.11474   1.12439
 Alpha virt. eigenvalues --    1.13245   1.13526   1.13852   1.14439   1.15897
 Alpha virt. eigenvalues --    1.16544   1.16811   1.17189   1.18428   1.18809
 Alpha virt. eigenvalues --    1.19783   1.20057   1.20898   1.21666   1.22032
 Alpha virt. eigenvalues --    1.22356   1.22818   1.23628   1.23887   1.24226
 Alpha virt. eigenvalues --    1.24614   1.25113   1.25343   1.25529   1.26323
 Alpha virt. eigenvalues --    1.27116   1.27874   1.28309   1.28538   1.29020
 Alpha virt. eigenvalues --    1.30286   1.30653   1.30918   1.31063   1.31392
 Alpha virt. eigenvalues --    1.31498   1.32755   1.33259   1.33853   1.34602
 Alpha virt. eigenvalues --    1.35242   1.36170   1.37214   1.38227   1.38627
 Alpha virt. eigenvalues --    1.39183   1.39878   1.42276   1.42373   1.42614
 Alpha virt. eigenvalues --    1.43238   1.43865   1.44650   1.44797   1.45477
 Alpha virt. eigenvalues --    1.46061   1.46594   1.47211   1.47653   1.48160
 Alpha virt. eigenvalues --    1.48613   1.49189   1.49587   1.50142   1.50220
 Alpha virt. eigenvalues --    1.50911   1.51185   1.52119   1.52326   1.53270
 Alpha virt. eigenvalues --    1.53896   1.54082   1.54360   1.54884   1.55271
 Alpha virt. eigenvalues --    1.55905   1.56342   1.56936   1.57231   1.57699
 Alpha virt. eigenvalues --    1.58624   1.58812   1.59046   1.59502   1.60172
 Alpha virt. eigenvalues --    1.60236   1.60838   1.62152   1.62534   1.62798
 Alpha virt. eigenvalues --    1.63437   1.64367   1.65035   1.65646   1.66107
 Alpha virt. eigenvalues --    1.66794   1.67097   1.67442   1.68685   1.69140
 Alpha virt. eigenvalues --    1.69550   1.69897   1.70099   1.70546   1.70866
 Alpha virt. eigenvalues --    1.71085   1.72199   1.72981   1.73469   1.73695
 Alpha virt. eigenvalues --    1.74829   1.75171   1.76294   1.76964   1.77157
 Alpha virt. eigenvalues --    1.77206   1.77791   1.78346   1.78728   1.79326
 Alpha virt. eigenvalues --    1.79734   1.79975   1.81305   1.82067   1.82934
 Alpha virt. eigenvalues --    1.84874   1.85427   1.85641   1.85889   1.86474
 Alpha virt. eigenvalues --    1.87326   1.87869   1.88493   1.89406   1.89896
 Alpha virt. eigenvalues --    1.90557   1.91048   1.91294   1.91919   1.92767
 Alpha virt. eigenvalues --    1.93317   1.93593   1.95066   1.95788   1.96139
 Alpha virt. eigenvalues --    1.96837   1.96922   1.97032   1.97958   1.99190
 Alpha virt. eigenvalues --    1.99388   2.01062   2.01414   2.01715   2.02764
 Alpha virt. eigenvalues --    2.03547   2.04002   2.04667   2.05960   2.06473
 Alpha virt. eigenvalues --    2.07904   2.08548   2.08825   2.09237   2.09727
 Alpha virt. eigenvalues --    2.10112   2.10941   2.11514   2.12626   2.12761
 Alpha virt. eigenvalues --    2.12818   2.13862   2.14978   2.15563   2.16779
 Alpha virt. eigenvalues --    2.17572   2.17857   2.18183   2.18659   2.19401
 Alpha virt. eigenvalues --    2.19505   2.19881   2.20614   2.21086   2.22053
 Alpha virt. eigenvalues --    2.22980   2.23656   2.23950   2.24268   2.24423
 Alpha virt. eigenvalues --    2.25187   2.25307   2.25667   2.26301   2.26841
 Alpha virt. eigenvalues --    2.28290   2.28768   2.29800   2.30040   2.31107
 Alpha virt. eigenvalues --    2.31280   2.32004   2.32901   2.34167   2.35156
 Alpha virt. eigenvalues --    2.36155   2.36690   2.37474   2.37653   2.40271
 Alpha virt. eigenvalues --    2.40649   2.41357   2.41868   2.42007   2.43126
 Alpha virt. eigenvalues --    2.44331   2.45394   2.46282   2.46779   2.49456
 Alpha virt. eigenvalues --    2.49718   2.50771   2.51370   2.51594   2.52794
 Alpha virt. eigenvalues --    2.53635   2.54412   2.54692   2.55057   2.56277
 Alpha virt. eigenvalues --    2.57032   2.57268   2.58076   2.58393   2.58707
 Alpha virt. eigenvalues --    2.59558   2.59862   2.60195   2.62121   2.62448
 Alpha virt. eigenvalues --    2.63131   2.63597   2.63753   2.64476   2.64911
 Alpha virt. eigenvalues --    2.65131   2.65510   2.65977   2.66358   2.67256
 Alpha virt. eigenvalues --    2.67723   2.67884   2.68409   2.69373   2.69763
 Alpha virt. eigenvalues --    2.70295   2.70565   2.70785   2.71351   2.71962
 Alpha virt. eigenvalues --    2.72128   2.72816   2.73289   2.73668   2.74315
 Alpha virt. eigenvalues --    2.75093   2.75156   2.75366   2.75821   2.75908
 Alpha virt. eigenvalues --    2.76925   2.77182   2.77376   2.77764   2.78981
 Alpha virt. eigenvalues --    2.79245   2.79583   2.80497   2.80905   2.81013
 Alpha virt. eigenvalues --    2.81506   2.81903   2.82681   2.83206   2.83594
 Alpha virt. eigenvalues --    2.83945   2.84194   2.84545   2.85566   2.86107
 Alpha virt. eigenvalues --    2.86587   2.87140   2.87522   2.87789   2.88122
 Alpha virt. eigenvalues --    2.88317   2.88943   2.89565   2.89824   2.90291
 Alpha virt. eigenvalues --    2.90678   2.91393   2.91676   2.92176   2.92457
 Alpha virt. eigenvalues --    2.93565   2.93852   2.93929   2.94608   2.95015
 Alpha virt. eigenvalues --    2.95312   2.95405   2.96155   2.96352   2.97360
 Alpha virt. eigenvalues --    2.97498   2.97879   2.98472   2.98789   2.99603
 Alpha virt. eigenvalues --    3.00500   3.00907   3.01565   3.02746   3.02980
 Alpha virt. eigenvalues --    3.03499   3.03882   3.04146   3.04375   3.05898
 Alpha virt. eigenvalues --    3.06299   3.07037   3.07625   3.07906   3.08316
 Alpha virt. eigenvalues --    3.08648   3.08783   3.09377   3.10246   3.10669
 Alpha virt. eigenvalues --    3.10974   3.11581   3.12034   3.13151   3.14092
 Alpha virt. eigenvalues --    3.14843   3.14998   3.15328   3.16046   3.16089
 Alpha virt. eigenvalues --    3.16830   3.17334   3.18165   3.18705   3.19080
 Alpha virt. eigenvalues --    3.19598   3.19838   3.19967   3.20157   3.20453
 Alpha virt. eigenvalues --    3.20843   3.21504   3.22717   3.23273   3.23649
 Alpha virt. eigenvalues --    3.23835   3.24152   3.25154   3.25616   3.26102
 Alpha virt. eigenvalues --    3.26449   3.26768   3.27282   3.27908   3.28517
 Alpha virt. eigenvalues --    3.29172   3.29676   3.30076   3.30677   3.31796
 Alpha virt. eigenvalues --    3.32201   3.32869   3.33695   3.33955   3.34146
 Alpha virt. eigenvalues --    3.34642   3.34897   3.35271   3.35854   3.36675
 Alpha virt. eigenvalues --    3.36962   3.37327   3.37852   3.37913   3.38999
 Alpha virt. eigenvalues --    3.39330   3.39833   3.40045   3.40271   3.41167
 Alpha virt. eigenvalues --    3.41324   3.41804   3.41966   3.42997   3.43383
 Alpha virt. eigenvalues --    3.43821   3.44437   3.44910   3.45696   3.45914
 Alpha virt. eigenvalues --    3.46256   3.46599   3.46926   3.47717   3.48295
 Alpha virt. eigenvalues --    3.48444   3.49279   3.49478   3.50121   3.50868
 Alpha virt. eigenvalues --    3.51122   3.51239   3.52199   3.52592   3.52727
 Alpha virt. eigenvalues --    3.53354   3.54193   3.54905   3.55102   3.55197
 Alpha virt. eigenvalues --    3.55528   3.56924   3.57086   3.57326   3.57848
 Alpha virt. eigenvalues --    3.58385   3.58859   3.59266   3.59367   3.59971
 Alpha virt. eigenvalues --    3.60447   3.60852   3.61218   3.61666   3.62012
 Alpha virt. eigenvalues --    3.63153   3.63622   3.63777   3.64461   3.65266
 Alpha virt. eigenvalues --    3.65850   3.66215   3.66469   3.67296   3.68033
 Alpha virt. eigenvalues --    3.68474   3.70094   3.70177   3.71348   3.72179
 Alpha virt. eigenvalues --    3.72615   3.73116   3.73834   3.73966   3.76122
 Alpha virt. eigenvalues --    3.76203   3.77370   3.78995   3.79106   3.79791
 Alpha virt. eigenvalues --    3.81320   3.81922   3.82411   3.83097   3.83829
 Alpha virt. eigenvalues --    3.84726   3.85637   3.85751   3.87592   3.88958
 Alpha virt. eigenvalues --    3.89792   3.90649   3.91121   3.92375   3.92887
 Alpha virt. eigenvalues --    3.93506   3.94637   3.95300   3.96226   3.97827
 Alpha virt. eigenvalues --    3.98569   3.99554   3.99929   4.00110   4.00862
 Alpha virt. eigenvalues --    4.01766   4.02251   4.03578   4.04084   4.05391
 Alpha virt. eigenvalues --    4.05722   4.06307   4.07650   4.09198   4.10891
 Alpha virt. eigenvalues --    4.11354   4.11967   4.12440   4.13116   4.13667
 Alpha virt. eigenvalues --    4.14609   4.15300   4.16309   4.17245   4.17781
 Alpha virt. eigenvalues --    4.18558   4.18945   4.19928   4.20786   4.21730
 Alpha virt. eigenvalues --    4.22176   4.22974   4.23550   4.25611   4.26373
 Alpha virt. eigenvalues --    4.26955   4.27451   4.28065   4.28209   4.28687
 Alpha virt. eigenvalues --    4.29712   4.30588   4.31335   4.31340   4.32074
 Alpha virt. eigenvalues --    4.32475   4.32785   4.33461   4.33867   4.34401
 Alpha virt. eigenvalues --    4.34788   4.35262   4.36639   4.37397   4.37917
 Alpha virt. eigenvalues --    4.38224   4.40124   4.41150   4.41603   4.41805
 Alpha virt. eigenvalues --    4.43665   4.43711   4.47037   4.48711   4.49465
 Alpha virt. eigenvalues --    4.49656   4.51570   4.52277   4.52847   4.53210
 Alpha virt. eigenvalues --    4.55875   4.56216   4.56831   4.57481   4.60106
 Alpha virt. eigenvalues --    4.61968   4.63271   4.65256   4.65957   4.66655
 Alpha virt. eigenvalues --    4.69262   4.70564   4.71405   4.72389   4.73941
 Alpha virt. eigenvalues --    4.74356   4.75555   4.76401   4.77957   4.78426
 Alpha virt. eigenvalues --    4.78890   4.82256   4.83936   4.84479   4.85054
 Alpha virt. eigenvalues --    4.87316   4.91773   4.93264   4.95489   4.96935
 Alpha virt. eigenvalues --    4.98528   4.99826   5.00657   5.01907   5.04853
 Alpha virt. eigenvalues --    5.05912   5.07022   5.07232   5.08518   5.10273
 Alpha virt. eigenvalues --    5.11554   5.12440   5.17058   5.17423   5.19206
 Alpha virt. eigenvalues --    5.19765   5.20077   5.25165   5.25983   5.27789
 Alpha virt. eigenvalues --    5.28836   5.31631   5.33844   5.35378   5.37328
 Alpha virt. eigenvalues --    5.38098   5.39794   5.46484   5.46833   5.47096
 Alpha virt. eigenvalues --    5.48814   5.52430   5.54313   5.61583   5.61857
 Alpha virt. eigenvalues --    5.63543   5.63945   5.67773   5.68903   5.70123
 Alpha virt. eigenvalues --    5.71283   5.77023   5.83402   5.86209   5.88294
 Alpha virt. eigenvalues --    5.89344   5.93669   5.94826   5.97466   6.06697
 Alpha virt. eigenvalues --    6.13699   6.13910   6.22808   6.36912   6.49179
 Alpha virt. eigenvalues --    6.55953   6.68749   6.77541   6.93106   7.01507
 Alpha virt. eigenvalues --    7.03846   7.06720   7.06868   7.07077   7.07465
 Alpha virt. eigenvalues --    7.07539   7.07966   7.08444   7.08944   7.18590
 Alpha virt. eigenvalues --    7.22513   7.23415   7.25759   7.26888   7.27320
 Alpha virt. eigenvalues --    7.31451   7.43025   7.44700   7.44969   7.47970
 Alpha virt. eigenvalues --    7.58714   7.58941   7.59137   8.50122   8.53923
 Alpha virt. eigenvalues --    8.54330   8.67750   8.68502   8.73551   9.01133
 Alpha virt. eigenvalues --    9.02386   9.04101   9.04619   9.08913   9.09355
 Alpha virt. eigenvalues --    9.09872   9.15026   9.17425  15.74166  22.30394
 Alpha virt. eigenvalues --   22.42073  22.43601  22.51988  22.55340  22.70082
 Alpha virt. eigenvalues --   22.71644  22.72996  22.73471  22.75347  22.77475
 Alpha virt. eigenvalues --   22.79949  22.82115  22.86277  22.88713  22.92543
 Alpha virt. eigenvalues --   22.99095  23.02697  23.05145  23.11463  23.17911
 Alpha virt. eigenvalues --   23.24841  23.37651  23.42082  23.47776  23.80151
 Alpha virt. eigenvalues --   33.47064  44.42680  57.32249  57.38874  57.45143
          Condensed to atoms (all electrons):
 Mulliken charges:
               1
     1  C   -0.035107
     2  C   -0.193136
     3  C    0.292941
     4  C   -0.028608
     5  C   -0.181619
     6  C   -0.105069
     7  C    0.541257
     8  C   -0.035019
     9  C    0.289473
    10  C   -0.195826
    11  H    0.139875
    12  C   -0.032486
    13  C   -0.104032
    14  C   -0.164170
    15  H    0.112058
    16  H    0.139736
    17  H    0.191288
    18  H    0.105287
    19  H    0.112684
    20  H    0.105701
    21  H    0.178389
    22  N   -0.038988
    23  C    0.137917
    24  C   -0.529492
    25  C   -0.408236
    26  C   -0.055040
    27  C   -0.050894
    28  C   -0.204896
    29  H    0.091158
    30  H    0.129593
    31  C    0.100962
    32  C   -0.308228
    33  C   -0.279672
    34  C   -0.169871
    35  H    0.112372
    36  C   -0.108705
    37  H    0.107570
    38  C    0.596923
    39  H    0.124773
    40  H    0.103049
    41  O   -0.467437
    42  C    0.001218
    43  H    0.094362
    44  H    0.085379
    45  H    0.085545
    46  H    0.142486
    47  H    0.093912
    48  B    0.900055
    49  F   -0.477023
    50  F   -0.470744
    51  F   -0.471662
 Sum of Mulliken charges =  -0.00000
 Mulliken charges with hydrogens summed into heavy atoms:
               1
     1  C    0.076951
     2  C   -0.053400
     3  C    0.292941
     4  C   -0.028608
[...]
 Alpha virt. eigenvalues --    0.75536   0.75869   0.76248   0.76376   0.76636
 Alpha virt. eigenvalues --    0.77129   0.77824   0.78309   0.78625   0.79141
 Alpha virt. eigenvalues --    0.79837   0.80409   0.81153   0.81450   0.81801
 Alpha virt. eigenvalues --    0.82093   0.82278   0.82711   0.83063   0.83997
 Alpha virt. eigenvalues --    0.84337   0.84432   0.85141   0.85586   0.86583
 Alpha virt. eigenvalues --    0.86871   0.87027   0.87400   0.87632   0.88159
 Alpha virt. eigenvalues --    0.88645   0.89163   0.90594   0.91125   0.91667
 Alpha virt. eigenvalues --    0.92792   0.93220   0.93426   0.93954   0.94072
 Alpha virt. eigenvalues --    0.95142   0.95559   0.95963   0.96530   0.97156
 Alpha virt. eigenvalues --    0.97633   0.98739   0.99150   0.99501   1.00980
 Alpha virt. eigenvalues --    1.01205   1.02477   1.03191   1.03718   1.04355
 Alpha virt. eigenvalues --    1.04748   1.05129   1.05777   1.07372   1.07454
 Alpha virt. eigenvalues --    1.08082   1.08413   1.08949   1.09477   1.09707
 Alpha virt. eigenvalues --    1.09942   1.10693   1.11169   1.11689   1.12760
 Alpha virt. eigenvalues --    1.13728   1.14093   1.14766   1.15098   1.16070
 Alpha virt. eigenvalues --    1.16599   1.17244   1.17780   1.18599   1.19285
 Alpha virt. eigenvalues --    1.20041   1.20323   1.21691   1.22257   1.22612
 Alpha virt. eigenvalues --    1.22925   1.23179   1.24181   1.24449   1.25067
 Alpha virt. eigenvalues --    1.25124   1.25425   1.26002   1.26122   1.26976
 Alpha virt. eigenvalues --    1.27740   1.28455   1.28563   1.29019   1.29629
 Alpha virt. eigenvalues --    1.30497   1.30879   1.31141   1.31887   1.32178
 Alpha virt. eigenvalues --    1.32467   1.33716   1.34129   1.34495   1.35095
 Alpha virt. eigenvalues --    1.36257   1.37441   1.37969   1.38717   1.39097
 Alpha virt. eigenvalues --    1.39653   1.40489   1.41986   1.42771   1.43231
 Alpha virt. eigenvalues --    1.43455   1.44044   1.44923   1.45182   1.45721
 Alpha virt. eigenvalues --    1.46190   1.47022   1.47290   1.47795   1.48936
 Alpha virt. eigenvalues --    1.49435   1.49568   1.50265   1.50972   1.51053
 Alpha virt. eigenvalues --    1.51577   1.52051   1.52563   1.53113   1.53493
 Alpha virt. eigenvalues --    1.54399   1.54487   1.54880   1.55276   1.55999
 Alpha virt. eigenvalues --    1.56361   1.56674   1.57025   1.57926   1.58348
 Alpha virt. eigenvalues --    1.59104   1.59499   1.59606   1.60016   1.60544
 Alpha virt. eigenvalues --    1.60729   1.60967   1.61913   1.63039   1.63731
 Alpha virt. eigenvalues --    1.64283   1.64650   1.65662   1.66113   1.66707
 Alpha virt. eigenvalues --    1.67048   1.67668   1.67847   1.68742   1.69488
 Alpha virt. eigenvalues --    1.69753   1.70272   1.70537   1.71195   1.71439
 Alpha virt. eigenvalues --    1.71987   1.72823   1.73210   1.74145   1.74419
 Alpha virt. eigenvalues --    1.75325   1.75830   1.77036   1.77257   1.77568
 Alpha virt. eigenvalues --    1.77898   1.78235   1.79046   1.79191   1.80279
 Alpha virt. eigenvalues --    1.80460   1.81038   1.81613   1.82922   1.83080
 Alpha virt. eigenvalues --    1.84459   1.85549   1.85889   1.86607   1.87507
 Alpha virt. eigenvalues --    1.87804   1.88495   1.89464   1.90398   1.90697
 Alpha virt. eigenvalues --    1.91262   1.91691   1.91945   1.92544   1.93085
 Alpha virt. eigenvalues --    1.93851   1.94689   1.94930   1.96458   1.97127
 Alpha virt. eigenvalues --    1.97230   1.97435   1.97957   1.98632   1.99948
 Alpha virt. eigenvalues --    2.00530   2.01663   2.02173   2.03264   2.03608
 Alpha virt. eigenvalues --    2.04466   2.05400   2.06338   2.07197   2.07644
 Alpha virt. eigenvalues --    2.08262   2.09188   2.09424   2.10140   2.10586
 Alpha virt. eigenvalues --    2.10754   2.11631   2.12381   2.13457   2.13617
 Alpha virt. eigenvalues --    2.13712   2.14625   2.15771   2.16345   2.17025
 Alpha virt. eigenvalues --    2.17651   2.18580   2.18807   2.19657   2.20290
 Alpha virt. eigenvalues --    2.20426   2.20465   2.21374   2.22031   2.22952
 Alpha virt. eigenvalues --    2.24247   2.24404   2.24936   2.25347   2.25463
 Alpha virt. eigenvalues --    2.25848   2.26319   2.26942   2.27464   2.28298
 Alpha virt. eigenvalues --    2.29325   2.29434   2.30979   2.31749   2.32022
 Alpha virt. eigenvalues --    2.32982   2.33028   2.33631   2.35251   2.36042
 Alpha virt. eigenvalues --    2.36646   2.38101   2.39023   2.39970   2.41282
 Alpha virt. eigenvalues --    2.41683   2.42366   2.42728   2.43010   2.43792
 Alpha virt. eigenvalues --    2.45593   2.46222   2.46999   2.48001   2.49712
 Alpha virt. eigenvalues --    2.50489   2.51588   2.52265   2.52899   2.53590
 Alpha virt. eigenvalues --    2.54187   2.55078   2.55587   2.56180   2.57446
 Alpha virt. eigenvalues --    2.58081   2.58157   2.58715   2.59101   2.59893
 Alpha virt. eigenvalues --    2.60153   2.60571   2.61304   2.62875   2.63223
 Alpha virt. eigenvalues --    2.63882   2.64180   2.64312   2.65274   2.66037
 Alpha virt. eigenvalues --    2.66183   2.66466   2.66816   2.67700   2.67733
 Alpha virt. eigenvalues --    2.68489   2.68941   2.69496   2.70202   2.70681
 Alpha virt. eigenvalues --    2.71195   2.71687   2.71796   2.72124   2.72886
 Alpha virt. eigenvalues --    2.73454   2.73987   2.74435   2.75132   2.75463
 Alpha virt. eigenvalues --    2.75857   2.76004   2.76523   2.76966   2.77149
 Alpha virt. eigenvalues --    2.77581   2.77769   2.78120   2.78548   2.79433
 Alpha virt. eigenvalues --    2.79739   2.80783   2.80884   2.81735   2.82148
 Alpha virt. eigenvalues --    2.82359   2.82868   2.83220   2.83640   2.83766
 Alpha virt. eigenvalues --    2.84565   2.85185   2.85274   2.86214   2.86838
 Alpha virt. eigenvalues --    2.87004   2.87724   2.88408   2.88552   2.88950
 Alpha virt. eigenvalues --    2.89308   2.89659   2.90350   2.90980   2.91316
 Alpha virt. eigenvalues --    2.91793   2.92038   2.92596   2.93107   2.93541
 Alpha virt. eigenvalues --    2.93951   2.94511   2.95060   2.95575   2.96270
 Alpha virt. eigenvalues --    2.96512   2.96924   2.97285   2.97527   2.98062
 Alpha virt. eigenvalues --    2.98368   2.99078   2.99320   2.99786   3.00331
 Alpha virt. eigenvalues --    3.01244   3.01471   3.01595   3.02519   3.03162
 Alpha virt. eigenvalues --    3.03831   3.04017   3.05345   3.05508   3.06016
 Alpha virt. eigenvalues --    3.06994   3.07321   3.08068   3.08712   3.09081
 Alpha virt. eigenvalues --    3.09272   3.09914   3.10664   3.10738   3.11580
 Alpha virt. eigenvalues --    3.11764   3.12496   3.13305   3.14184   3.14818
 Alpha virt. eigenvalues --    3.15285   3.15700   3.15947   3.16436   3.16903
 Alpha virt. eigenvalues --    3.17240   3.17945   3.18931   3.19127   3.19588
 Alpha virt. eigenvalues --    3.19780   3.20190   3.20396   3.20739   3.20787
 Alpha virt. eigenvalues --    3.21093   3.22524   3.23610   3.24022   3.24283
 Alpha virt. eigenvalues --    3.24788   3.25151   3.25707   3.26502   3.26754
 Alpha virt. eigenvalues --    3.27246   3.27580   3.28360   3.29174   3.29694
 Alpha virt. eigenvalues --    3.29862   3.30429   3.30922   3.31801   3.32639
 Alpha virt. eigenvalues --    3.32957   3.33367   3.34179   3.34770   3.34941
 Alpha virt. eigenvalues --    3.35132   3.35514   3.36428   3.37053   3.37479
 Alpha virt. eigenvalues --    3.37926   3.38540   3.39011   3.39421   3.39802
 Alpha virt. eigenvalues --    3.39828   3.40738   3.41041   3.41539   3.42109
 Alpha virt. eigenvalues --    3.42681   3.43018   3.43474   3.43887   3.44556
 Alpha virt. eigenvalues --    3.44815   3.45555   3.45814   3.46465   3.46683
 Alpha virt. eigenvalues --    3.47378   3.47795   3.48013   3.48591   3.49117
 Alpha virt. eigenvalues --    3.49535   3.49970   3.50359   3.51406   3.51677
 Alpha virt. eigenvalues --    3.52003   3.52409   3.52850   3.53380   3.53461
 Alpha virt. eigenvalues --    3.54075   3.54960   3.55681   3.55994   3.56464
 Alpha virt. eigenvalues --    3.56792   3.57703   3.58310   3.58776   3.58968
 Alpha virt. eigenvalues --    3.59259   3.59617   3.60381   3.60587   3.61076
 Alpha virt. eigenvalues --    3.61607   3.62141   3.62238   3.62658   3.63116
 Alpha virt. eigenvalues --    3.63964   3.64408   3.64561   3.65116   3.66036
 Alpha virt. eigenvalues --    3.66307   3.67040   3.67481   3.68418   3.69565
 Alpha virt. eigenvalues --    3.70143   3.70755   3.72397   3.72798   3.73610
 Alpha virt. eigenvalues --    3.73917   3.74569   3.74813   3.75627   3.76773
 Alpha virt. eigenvalues --    3.76886   3.77805   3.79161   3.80188   3.81363
 Alpha virt. eigenvalues --    3.82681   3.83175   3.83972   3.84212   3.85271
 Alpha virt. eigenvalues --    3.86890   3.86929   3.87610   3.89473   3.90734
 Alpha virt. eigenvalues --    3.91636   3.91693   3.92670   3.93893   3.94287
 Alpha virt. eigenvalues --    3.94869   3.96811   3.97554   3.98081   3.99869
 Alpha virt. eigenvalues --    4.00232   4.01462   4.01619   4.02307   4.02920
 Alpha virt. eigenvalues --    4.03463   4.04058   4.05200   4.06004   4.06557
 Alpha virt. eigenvalues --    4.07651   4.08079   4.09385   4.11026   4.12059
 Alpha virt. eigenvalues --    4.12862   4.13416   4.13538   4.14010   4.16041
 Alpha virt. eigenvalues --    4.16511   4.17184   4.18340   4.18579   4.18976
 Alpha virt. eigenvalues --    4.20459   4.21304   4.21788   4.22709   4.23231
 Alpha virt. eigenvalues --    4.24244   4.24664   4.25637   4.27630   4.28450
 Alpha virt. eigenvalues --    4.29245   4.29936   4.30116   4.30697   4.31542
 Alpha virt. eigenvalues --    4.32058   4.32536   4.33696   4.33758   4.34083
 Alpha virt. eigenvalues --    4.34668   4.34926   4.35731   4.36309   4.36363
 Alpha virt. eigenvalues --    4.37005   4.37935   4.38792   4.39783   4.40174
 Alpha virt. eigenvalues --    4.40844   4.41575   4.43259   4.43887   4.44352
 Alpha virt. eigenvalues --    4.44537   4.46470   4.49526   4.51689   4.52292
 Alpha virt. eigenvalues --    4.52734   4.54080   4.54703   4.55049   4.55094
 Alpha virt. eigenvalues --    4.57523   4.58260   4.58834   4.59636   4.63753
 Alpha virt. eigenvalues --    4.64016   4.65900   4.68378   4.69042   4.69320
 Alpha virt. eigenvalues --    4.71316   4.72452   4.74030   4.75022   4.75890
 Alpha virt. eigenvalues --    4.76151   4.78117   4.79261   4.80205   4.81099
 Alpha virt. eigenvalues --    4.82029   4.85300   4.85830   4.87729   4.88093
 Alpha virt. eigenvalues --    4.89106   4.93601   4.95147   4.96202   4.99000
 Alpha virt. eigenvalues --    4.99878   5.01563   5.02893   5.03524   5.06529
 Alpha virt. eigenvalues --    5.07812   5.08138   5.10299   5.10703   5.12054
 Alpha virt. eigenvalues --    5.13544   5.14483   5.19895   5.20828   5.21738
 Alpha virt. eigenvalues --    5.22719   5.23283   5.27281   5.28912   5.30917
 Alpha virt. eigenvalues --    5.31771   5.35485   5.37138   5.38762   5.39758
 Alpha virt. eigenvalues --    5.40911   5.43843   5.47879   5.48266   5.48691
 Alpha virt. eigenvalues --    5.49574   5.54499   5.55876   5.61967   5.63142
 Alpha virt. eigenvalues --    5.64738   5.66301   5.68501   5.70031   5.71285
 Alpha virt. eigenvalues --    5.73448   5.79081   5.86070   5.88628   5.88681
 Alpha virt. eigenvalues --    5.91197   5.95712   5.98850   6.00052   6.05186
 Alpha virt. eigenvalues --    6.13938   6.17546   6.24177   6.39651   6.49674
 Alpha virt. eigenvalues --    6.61205   6.68928   6.78350   6.93962   7.00814
 Alpha virt. eigenvalues --    7.04411   7.07155   7.07445   7.07513   7.07759
 Alpha virt. eigenvalues --    7.07829   7.08161   7.08468   7.09237   7.19226
 Alpha virt. eigenvalues --    7.20477   7.21654   7.26493   7.27723   7.28198
 Alpha virt. eigenvalues --    7.31729   7.41008   7.44777   7.45450   7.48317
 Alpha virt. eigenvalues --    7.58737   7.59670   7.59797   8.51623   8.53684
 Alpha virt. eigenvalues --    8.53877   8.68481   8.68902   8.75301   8.97035
 Alpha virt. eigenvalues --    8.99064   9.00374   9.04434   9.07600   9.09711
 Alpha virt. eigenvalues --    9.10691   9.17419   9.19333  15.68532  22.33406
 Alpha virt. eigenvalues --   22.42935  22.46826  22.54357  22.60602  22.75607
 Alpha virt. eigenvalues --   22.77155  22.78401  22.79257  22.82516  22.84501
 Alpha virt. eigenvalues --   22.85531  22.88258  22.91265  22.95766  22.97492
 Alpha virt. eigenvalues --   23.06647  23.08017  23.11981  23.16608  23.25072
 Alpha virt. eigenvalues --   23.32883  23.45010  23.48381  23.55466  23.89131
 Alpha virt. eigenvalues --   33.49467  44.42118  57.30590  57.38434  57.42429
          Condensed to atoms (all electrons):
 Mulliken charges:
               1
     1  C   -0.014350
     2  C   -0.191264
     3  C    0.313321
     4  C   -0.053725
     5  C   -0.112790
     6  C   -0.110614
     7  C    0.555014
     8  C   -0.036236
     9  C    0.305093
    10  C   -0.190050
    11  H    0.133413
    12  C   -0.016698
    13  C   -0.103770
    14  C   -0.121441
    15  H    0.105362
    16  H    0.133388
    17  H    0.169326
    18  H    0.097371
    19  H    0.105472
    20  H    0.097462
    21  H    0.163869
    22  N   -0.050576
    23  C    0.057001
    24  C   -0.511597
    25  C   -0.369994
    26  C   -0.027902
    27  C   -0.049974
    28  C   -0.203346
    29  H    0.083321
    30  H    0.113159
    31  C    0.113881
    32  C   -0.317333
    33  C   -0.286362
    34  C   -0.157243
    35  H    0.105230
    36  C   -0.100750
    37  H    0.100752
    38  C    0.611673
    39  H    0.119098
    40  H    0.096281
    41  O   -0.470908
    42  C    0.011758
    43  H    0.090598
    44  H    0.083052
    45  H    0.082921
    46  H    0.121578
    47  H    0.087143
    48  B    0.896157
    49  F   -0.483805
    50  F   -0.483100
    51  F   -0.488861
 Sum of Mulliken charges =  -0.00000
 Mulliken charges with hydrogens summed into heavy atoms:
               1
     1  C    0.091011
     2  C   -0.057876
     3  C    0.313321
     4  C   -0.053725
     5  C    0.056536
     6  C   -0.013244
     7  C    0.555014
     8  C   -0.036236
     9  C    0.305093
    10  C   -0.056637
    12  C    0.088773
    13  C   -0.006308
    14  C    0.042428
    22  N   -0.050576
    23  C    0.057001
    24  C   -0.390019
    25  C   -0.256835
    26  C   -0.027902
    27  C    0.033347
    28  C   -0.116203
    31  C    0.113881
    32  C   -0.212103
    33  C   -0.185610
    34  C   -0.038145
    36  C   -0.004469
    38  C    0.611673
    41  O   -0.470908
    42  C    0.268329
    48  B    0.896157
    49  F   -0.483805
    50  F   -0.483100
    51  F   -0.488861
 Electronic spatial extent (au):  <R**2>=          17368.7229
 Charge=              0.0000 electrons
 Dipole moment (field-independent basis, Debye):
    X=             32.0440    Y=              4.8767    Z=             -5.9519  Tot=             32.9549
 Quadrupole moment (field-independent basis, Debye-Ang):
   XX=           -281.9090   YY=           -156.4197   ZZ=           -182.7746
   XY=            -29.6806   XZ=             53.8451   YZ=              6.4592
 Traceless Quadrupole moment (field-independent basis, Debye-Ang):
   XX=            -74.8746   YY=             50.6147   ZZ=             24.2598
   XY=            -29.6806   XZ=             53.8451   YZ=              6.4592
 Octapole moment (field-independent basis, Debye-Ang**2):
  XXX=           1209.8272  YYY=             18.0774  ZZZ=              3.3961  XYY=             43.6264
  XXY=            127.9861  XXZ=           -114.8252  XZZ=             99.7799  YZZ=             -0.9215
  YYZ=            -12.7702  XYZ=            -29.4062
 Hexadecapole moment (field-independent basis, Debye-Ang**3):
 XXXX=         -21206.7267 YYYY=          -2855.5307 ZZZZ=          -1305.9378 XXXY=          -1174.8216
 XXXZ=           2103.1408 YYYX=             22.4590 YYYZ=            137.1700 ZZZX=             89.6231
 ZZZY=            -51.5870 XXYY=          -3650.1775 XXZZ=          -3233.0033 YYZZ=           -796.1003
 XXYZ=             18.3282 YYXZ=             74.0148 ZZXY=            -54.0361
 N-N= 2.976661039439D+03 E-N=-9.356868388944D+03  KE= 1.451379928903D+03
 Leave Link  601 at Tue Feb 16 16:34:26 2021, MaxMem=  5242880000 cpu:         6.0
 (Enter /opt/nce/packages/global/g09/l9999.exe)
 1\1\GINC-CN017\SP\RM06L TD-FC\Gen\C26H19B1F3N1O1\PNG4RJV\16-Feb-2021\0
 \\#p m06l chkbasis geom=allcheck Guess=Read int=ultrafine scrf=(SMD,so
 lvent=Acetonitrile) td=(NStates=30)\\Title\\0,1\C,0,0.746014386,3.3157
 467962,1.0692508203\C,0,1.530069669,2.2497387479,0.7213932753\C,0,0.94
 90021107,0.984554821,0.5243196368\C,0,-0.4617853881,0.8222865674,0.660
 9058249\C,0,-1.2236041136,1.9521575267,1.054436914\C,0,-0.6390174512,3
 .168191188,1.2512098963\C,0,-1.0464412131,-0.4405001013,0.4381881089\C
 ,0,-0.216012022,-1.5271975967,0.0979157892\C,0,1.1951699479,-1.3398743
 055,0.0066524922\C,0,2.0268317032,-2.4305356304,-0.3035902325\H,0,3.09
 6025911,-2.2918654513,-0.3551215799\C,0,1.4796977275,-3.6612555497,-0.
 5446986487\C,0,0.0892844928,-3.8566877855,-0.5050126817\C,0,-0.7337209
 887,-2.8148593052,-0.1943357845\H,0,1.2074400737,4.2833122936,1.218379
 0117\H,0,2.5953240894,2.3753342299,0.6007404087\H,0,-2.2860339859,1.83
 07781983,1.2069115077\H,0,-1.237163674,4.0170366209,1.5531392883\H,0,2
 .1321814918,-4.4909783186,-0.7836093392\H,0,-0.32550851,-4.8301268594,
 -0.7283076388\H,0,-1.8043117527,-2.9569820117,-0.1788402991\N,0,1.7286
 892583,-0.0961755272,0.2117908103\C,0,-2.5021962089,-0.6201853806,0.55
 66087628\C,0,-3.3741855659,0.1004060711,-0.2636531122\C,0,-3.032130529
 2,-1.5118726493,1.492082679\C,0,-4.7584348898,-0.0464924879,-0.1888042
 26\C,0,-4.4045248514,-1.65554988,1.6020407565\C,0,-5.2510050203,-0.935
 5420463,0.769424821\H,0,-4.8124611083,-2.3327756405,2.3426796111\H,0,-
 2.3663622986,-2.068977229,2.140077748\C,0,3.1598863698,0.0804096139,0.
 0968237032\C,0,3.715537158,0.3646903925,-1.1362126353\C,0,3.9568724031
 ,-0.0401636446,1.2268811803\C,0,5.0867339917,0.5312013713,-1.254721115
 8\H,0,3.0774573865,0.455052291,-2.0062726255\C,0,5.3213593945,0.124290
 1392,1.1155042451\H,0,3.5043407304,-0.2619692693,2.185086507\C,0,5.896
 3406492,0.4097744688,-0.1258380384\H,0,5.5139637642,0.7533050017,-2.22
 16950187\H,0,5.9624396868,0.0343588334,1.9824111724\O,0,7.2368215818,0
 .5503129109,-0.1358871343\C,0,7.8604468979,0.8357285427,-1.3794175825\
 H,0,8.9250408659,0.9041169513,-1.1747152368\H,0,7.6841687717,0.0400861
 259,-2.1065452865\H,0,7.5120875697,1.7848481015,-1.7926690029\H,0,-2.9
 495917073,0.7852673842,-0.9913322202\H,0,-6.3235946707,-1.0645845751,0
 .8693715282\B,0,-5.7286592301,0.755969731,-1.1914795617\F,0,-5.2248980
 989,2.0505259674,-1.4768388238\F,0,-7.0300826573,0.9025494524,-0.65381
 71918\F,0,-5.8557611465,0.072422905,-2.4334154825\\Version=ES64L-G09Re
 vE.01\State=1-A\HF=-1457.1172944\RMSD=9.016e-09\PG=C01 [X(C26H19B1F3N1
 O1)]\\@


 I WOULD TAKE COUNSEL OF MYSELF.
 I WOULD STOP AND LOOK WITHIN
 AND LOOKING WITHIN, LOOK BACK, ALSO
 THAT I MAY LOOK AHEAD WITH CLEARER UNDERSTANDING
 OF THE WAY I HAVE BEEN MOVING, AND IN WHAT DIRECTION.
 I NEED TO KNOW IF I AM GOING FORWARD OR RETREATING,
 WHETHER I HAVE BEEN WASTING, OR ENJOYING
 THE PRECIOUS MOMENTS OF LIFE.  THERE HAVE BEEN FRICTIONS,
 ANNOYANCES AND SOMETIMES WRATH,
 BUT WERE THEY BECAUSE I WAS RIGHT AND OTHERS WRONG.....
 HAVE I HAD MY THOUGHTS TOO SHARPLY FOCUSED
 ON THAT WHICH PLEASED ME, SERVED MY SELF-ESTEEM,
 UNDERGIRDED MY SECURITY,
 OF WHICH I DID NOT INQUIRE WHETHER IT SERVED OR HAMPERED OTHERS.....
 HAVE I BEEN TRYING TO STOP THE CLOCK
 TO HOLD THE WORLD
 IN PERPETUATION OF WHAT WAS AN IS ALREADY SLIPPING AWAY.....
 HAVE I BEEN CRITICAL OF OTHERS FOR WHAT REALLY NEEDED CHANGING IN ME...
 LET ME INDEED TAKE COUNSEL OF MYSELF
 AND SET MY DIRECTIONS STRAIGHT.

                          R.T. WESTON AS ADAPTED BY D. OSBORN 1967
 Job cpu time:       2 days 11 hours 27 minutes 13.2 seconds.
 File lengths (MBytes):  RWF=   5050 Int=      0 D2E=      0 Chk=   1099 Scr=      1
 Normal termination of Gaussian 09 at Tue Feb 16 16:34:28 2021.
