 Entering Gaussian System, Link 0=g09
 Input=/home/png4rjv/fotokatalizis/benchmark/OPCs/BF3-Acr_m_CAM-B3LYP-D3_def2TZVP.gjf
 Output=/home/png4rjv/fotokatalizis/benchmark/OPCs/BF3-Acr_m_CAM-B3LYP-D3_def2TZVP.log
 Initial command:
 /opt/nce/packages/global/g09/l1.exe "/home/png4rjv/fotokatalizis/benchmark/OPCs/BF3-Acr_m_CAM-B3LYP-D3_def2TZVP/Gau-35478.inp" -scrdir="/home/png4rjv/fotokatalizis/benchmark/OPCs/BF3-Acr_m_CAM-B3LYP-D3_def2TZVP/"
 Default is to use a total of  12 processors:
                               12 via shared-memory
                                1 via Linda
 Entering Link 1 = /opt/nce/packages/global/g09/l1.exe PID=     35480.
  
 Copyright (c) 1988,1990,1992,1993,1995,1998,2003,2009,2015,
            Gaussian, Inc.  All Rights Reserved.
  
 This is part of the Gaussian(R) 09 program.  It is based on
 the Gaussian(R) 03 system (copyright 2003, Gaussian, Inc.),
 the Gaussian(R) 98 system (copyright 1998, Gaussian, Inc.),
 the Gaussian(R) 94 system (copyright 1995, Gaussian, Inc.),
 the Gaussian 92(TM) system (copyright 1992, Gaussian, Inc.),
 the Gaussian 90(TM) system (copyright 1990, Gaussian, Inc.),
 the Gaussian 88(TM) system (copyright 1988, Gaussian, Inc.),
 the Gaussian 86(TM) system (copyright 1986, Carnegie Mellon
 University), and the Gaussian 82(TM) system (copyright 1983,
 Carnegie Mellon University). Gaussian is a federally registered
 trademark of Gaussian, Inc.
  
 This software contains proprietary and confidential information,
 including trade secrets, belonging to Gaussian, Inc.
  
 This software is provided under written license and may be
 used, copied, transmitted, or stored only in accord with that
 written license.
  
 The following legend is applicable only to US Government
 contracts under FAR:
  
                    RESTRICTED RIGHTS LEGEND
  
 Use, reproduction and disclosure by the US Government is
 subject to restrictions as set forth in subparagraphs (a)
 and (c) of the Commercial Computer Software - Restricted
 Rights clause in FAR 52.227-19.
  
 Gaussian, Inc.
 340 Quinnipiac St., Bldg. 40, Wallingford CT 06492
  
  
 ---------------------------------------------------------------
 Warning -- This program may not be used in any manner that
 competes with the business of Gaussian, Inc. or will provide
 assistance to any competitor of Gaussian, Inc.  The licensee
 of this program is prohibited from giving any competitor of
 Gaussian, Inc. access to this program.  By using this program,
 the user acknowledges that Gaussian, Inc. is engaged in the
 business of creating and licensing software in the field of
 computational chemistry and represents and warrants to the
 licensee that it is not a competitor of Gaussian, Inc. and that
 it will not use this program in any manner prohibited above.
 ---------------------------------------------------------------
  

 Cite this work as:
 Gaussian 09, Revision E.01,
 M. J. Frisch, G. W. Trucks, H. B. Schlegel, G. E. Scuseria, 
 M. A. Robb, J. R. Cheeseman, G. Scalmani, V. Barone, B. Mennucci, 
 G. A. Petersson, H. Nakatsuji, M. Caricato, X. Li, H. P. Hratchian, 
 A. F. Izmaylov, J. Bloino, G. Zheng, J. L. Sonnenberg, M. Hada, 
 M. Ehara, K. Toyota, R. Fukuda, J. Hasegawa, M. Ishida, T. Nakajima, 
 Y. Honda, O. Kitao, H. Nakai, T. Vreven, J. A. Montgomery, Jr., 
 J. E. Peralta, F. Ogliaro, M. Bearpark, J. J. Heyd, E. Brothers, 
 K. N. Kudin, V. N. Staroverov, T. Keith, R. Kobayashi, J. Normand, 
 K. Raghavachari, A. Rendell, J. C. Burant, S. S. Iyengar, J. Tomasi, 
 M. Cossi, N. Rega, J. M. Millam, M. Klene, J. E. Knox, J. B. Cross, 
 V. Bakken, C. Adamo, J. Jaramillo, R. Gomperts, R. E. Stratmann, 
 O. Yazyev, A. J. Austin, R. Cammi, C. Pomelli, J. W. Ochterski, 
 R. L. Martin, K. Morokuma, V. G. Zakrzewski, G. A. Voth, 
 P. Salvador, J. J. Dannenberg, S. Dapprich, A. D. Daniels, 
 O. Farkas, J. B. Foresman, J. V. Ortiz, J. Cioslowski, 
 and D. J. Fox, Gaussian, Inc., Wallingford CT, 2013.
 
 ******************************************
 Gaussian 09:  ES64L-G09RevE.01 30-Nov-2015
                24-Feb-2021 
 ******************************************
 %chk=cp.chk
 Default route:  MaxDisk=500GB
 ----------------------------------------------------------------------
 #p cam-b3lyp/def2TZVP opt freq=noraman nosymm int=ultrafine scrf=(SMD,
 solvent=Acetonitrile) EmpiricalDispersion=GD3BJ
 ----------------------------------------------------------------------
 1/14=-1,18=20,19=15,26=4,38=1/1,3;
 2/9=110,12=2,15=1,17=6,18=5,40=1/2;
 3/5=44,7=101,11=2,16=1,25=1,30=1,70=32201,71=1,72=2,74=-40,75=-5,124=41/1,2,3;
 4//1;
 5/5=2,38=5,53=2/2;
 6/7=2,8=2,9=2,10=2,28=1/1;
 7/30=1/1,2,3,16;
 1/14=-1,18=20,19=15,26=4/3(2);
 2/9=110,15=1/2;
 99//99;
 2/9=110,15=1/2;
 3/5=44,7=101,11=2,16=1,25=1,30=1,70=32205,71=1,72=2,74=-40,75=-5,124=41/1,2,3;
 4/5=5,16=3,69=1/1;
 5/5=2,38=5,53=2/2;
 7/30=1/1,2,3,16;
 1/14=-1,18=20,19=15,26=4/3(-5);
 2/9=110,15=1/2;
 6/7=2,8=2,9=2,10=2,19=2,28=1/1;
 99/9=1/99;
 Leave Link    1 at Wed Feb 24 00:10:50 2021, MaxMem=           0 cpu:         7.2
 (Enter /opt/nce/packages/global/g09/l101.exe)
 -----
 Title
 -----
 Symbolic Z-matrix:
 Charge =  0 Multiplicity = 1
 C                     0.68709   3.33347   0.92038 
 C                     1.49332   2.25239   0.61986 
 C                     0.92323   0.96694   0.46462 
 C                    -0.49285   0.7938    0.59548 
 C                    -1.27597   1.93268   0.95258 
 C                    -0.70378   3.17593   1.10138 
 C                    -1.07366  -0.50071   0.41361 
 C                    -0.20574  -1.59568   0.10858 
 C                     1.20914  -1.39253   0.03727 
 C                     2.06461  -2.48873  -0.23013 
 H                     3.1413   -2.33713  -0.26159 
 C                     1.53081  -3.74137  -0.46159 
 C                     0.1339   -3.94787  -0.46277 
 C                    -0.71113  -2.8952   -0.19165 
 H                     1.14132   4.32034   1.03492 
 H                     2.5668    2.38441   0.50473 
 H                    -2.346     1.80515   1.10343 
 H                    -1.32508   4.03317   1.36511 
 H                     2.20355  -4.57629  -0.67055 
 H                    -0.27417  -4.93306  -0.69469 
 H                    -1.79027  -3.03343  -0.22043 
 N                     1.72829  -0.12578   0.20683 
 C                    -2.51509  -0.69074   0.52444 
 C                    -3.39296   0.12888  -0.22075 
 C                    -3.05747  -1.67435   1.38585 
 C                    -4.78056   0.00704  -0.13377 
 C                    -4.43919  -1.78821   1.50439 
 C                    -5.28484  -0.95394   0.75858 
 H                    -4.86046  -2.51551   2.20383 
 H                    -2.39521  -2.28944   1.99912 
 C                     3.15423   0.06604   0.09787 
 C                     3.72366   0.34062  -1.14323 
 C                     3.95908  -0.02301   1.23979 
 C                     5.10298   0.5294   -1.25869 
 H                     3.08536   0.40901  -2.0263 
 C                     5.33095   0.16262   1.13385 
 H                     3.502    -0.23737   2.2077 
 C                     5.91708   0.44108  -0.11645 
 H                     5.52903   0.74414  -2.23764 
 H                     5.98117   0.099     2.00756 
 O                     7.25345   0.60627  -0.1196 
 C                     7.91561   0.89268  -1.33572 
 H                     8.98179   0.98513  -1.09415 
 H                     7.78122   0.08075  -2.07152 
 H                     7.56166   1.8409   -1.77643 
 H                    -2.98529   0.87202  -0.90995 
 H                    -6.36902  -1.02738   0.87891 
 B                    -5.74235   0.99749  -1.03384 
 F                    -5.06665   2.22958  -1.1752 
 F                    -6.9601    1.17254  -0.36162 
 F                    -5.95306   0.42355  -2.29503 
 
 NAtoms=     51 NQM=       51 NQMF=       0 NMMI=      0 NMMIF=      0
                NMic=       0 NMicF=      0.
                    Isotopes and Nuclear Properties:
 (Nuclear quadrupole moments (NQMom) in fm**2, nuclear magnetic moments (NMagM)
  in nuclear magnetons)

  Atom         1           2           3           4           5           6           7           8           9          10
 IAtWgt=          12          12          12          12          12          12          12          12          12          12
 AtmWgt=  12.0000000  12.0000000  12.0000000  12.0000000  12.0000000  12.0000000  12.0000000  12.0000000  12.0000000  12.0000000
 NucSpn=           0           0           0           0           0           0           0           0           0           0
 AtZEff=   0.0000000   0.0000000   0.0000000   0.0000000   0.0000000   0.0000000   0.0000000   0.0000000   0.0000000   0.0000000
 NQMom=    0.0000000   0.0000000   0.0000000   0.0000000   0.0000000   0.0000000   0.0000000   0.0000000   0.0000000   0.0000000
 NMagM=    0.0000000   0.0000000   0.0000000   0.0000000   0.0000000   0.0000000   0.0000000   0.0000000   0.0000000   0.0000000
 AtZNuc=   6.0000000   6.0000000   6.0000000   6.0000000   6.0000000   6.0000000   6.0000000   6.0000000   6.0000000   6.0000000

  Atom        11          12          13          14          15          16          17          18          19          20
 IAtWgt=           1          12          12          12           1           1           1           1           1           1
 AtmWgt=   1.0078250  12.0000000  12.0000000  12.0000000   1.0078250   1.0078250   1.0078250   1.0078250   1.0078250   1.0078250
 NucSpn=           1           0           0           0           1           1           1           1           1           1
 AtZEff=   0.0000000   0.0000000   0.0000000   0.0000000   0.0000000   0.0000000   0.0000000   0.0000000   0.0000000   0.0000000
 NQMom=    0.0000000   0.0000000   0.0000000   0.0000000   0.0000000   0.0000000   0.0000000   0.0000000   0.0000000   0.0000000
 NMagM=    2.7928460   0.0000000   0.0000000   0.0000000   2.7928460   2.7928460   2.7928460   2.7928460   2.7928460   2.7928460
 AtZNuc=   1.0000000   6.0000000   6.0000000   6.0000000   1.0000000   1.0000000   1.0000000   1.0000000   1.0000000   1.0000000

  Atom        21          22          23          24          25          26          27          28          29          30
 IAtWgt=           1          14          12          12          12          12          12          12           1           1
 AtmWgt=   1.0078250  14.0030740  12.0000000  12.0000000  12.0000000  12.0000000  12.0000000  12.0000000   1.0078250   1.0078250
 NucSpn=           1           2           0           0           0           0           0           0           1           1
 AtZEff=   0.0000000   0.0000000   0.0000000   0.0000000   0.0000000   0.0000000   0.0000000   0.0000000   0.0000000   0.0000000
 NQMom=    0.0000000   2.0440000   0.0000000   0.0000000   0.0000000   0.0000000   0.0000000   0.0000000   0.0000000   0.0000000
 NMagM=    2.7928460   0.4037610   0.0000000   0.0000000   0.0000000   0.0000000   0.0000000   0.0000000   2.7928460   2.7928460
 AtZNuc=   1.0000000   7.0000000   6.0000000   6.0000000   6.0000000   6.0000000   6.0000000   6.0000000   1.0000000   1.0000000

  Atom        31          32          33          34          35          36          37          38          39          40
 IAtWgt=          12          12          12          12           1          12           1          12           1           1
 AtmWgt=  12.0000000  12.0000000  12.0000000  12.0000000   1.0078250  12.0000000   1.0078250  12.0000000   1.0078250   1.0078250
 NucSpn=           0           0           0           0           1           0           1           0           1           1
 AtZEff=   0.0000000   0.0000000   0.0000000   0.0000000   0.0000000   0.0000000   0.0000000   0.0000000   0.0000000   0.0000000
 NQMom=    0.0000000   0.0000000   0.0000000   0.0000000   0.0000000   0.0000000   0.0000000   0.0000000   0.0000000   0.0000000
 NMagM=    0.0000000   0.0000000   0.0000000   0.0000000   2.7928460   0.0000000   2.7928460   0.0000000   2.7928460   2.7928460
 AtZNuc=   6.0000000   6.0000000   6.0000000   6.0000000   1.0000000   6.0000000   1.0000000   6.0000000   1.0000000   1.0000000

  Atom        41          42          43          44          45          46          47          48          49          50
 IAtWgt=          16          12           1           1           1           1           1          11          19          19
 AtmWgt=  15.9949146  12.0000000   1.0078250   1.0078250   1.0078250   1.0078250   1.0078250  11.0093053  18.9984033  18.9984033
 NucSpn=           0           0           1           1           1           1           1           3           1           1
 AtZEff=   0.0000000   0.0000000   0.0000000   0.0000000   0.0000000   0.0000000   0.0000000   0.0000000   0.0000000   0.0000000
 NQMom=    0.0000000   0.0000000   0.0000000   0.0000000   0.0000000   0.0000000   0.0000000   4.0590000   0.0000000   0.0000000
 NMagM=    0.0000000   0.0000000   2.7928460   2.7928460   2.7928460   2.7928460   2.7928460   2.6886370   2.6288670   2.6288670
 AtZNuc=   8.0000000   6.0000000   1.0000000   1.0000000   1.0000000   1.0000000   1.0000000   5.0000000   9.0000000   9.0000000

  Atom        51
 IAtWgt=          19
 AtmWgt=  18.9984033
 NucSpn=           1
 AtZEff=   0.0000000
 NQMom=    0.0000000
 NMagM=    2.6288670
 AtZNuc=   9.0000000
 Leave Link  101 at Wed Feb 24 00:10:57 2021, MaxMem=  5242880000 cpu:        20.5
 (Enter /opt/nce/packages/global/g09/l103.exe)

 GradGradGradGradGradGradGradGradGradGradGradGradGradGradGradGradGradGrad
 Berny optimization.
 Initialization pass.
                           ----------------------------
                           !    Initial Parameters    !
                           ! (Angstroms and Degrees)  !
 --------------------------                            --------------------------
 ! Name  Definition              Value          Derivative Info.                !
 --------------------------------------------------------------------------------
 ! R1    R(1,2)                  1.3817         estimate D2E/DX2                !
 ! R2    R(1,6)                  1.4114         estimate D2E/DX2                !
 ! R3    R(1,15)                 1.0924         estimate D2E/DX2                !
 ! R4    R(2,3)                  1.4147         estimate D2E/DX2                !
 ! R5    R(2,16)                 1.0877         estimate D2E/DX2                !
 ! R6    R(3,4)                  1.4326         estimate D2E/DX2                !
 ! R7    R(3,22)                 1.3815         estimate D2E/DX2                !
 ! R8    R(4,5)                  1.4275         estimate D2E/DX2                !
 ! R9    R(4,7)                  1.4304         estimate D2E/DX2                !
 ! R10   R(5,6)                  1.3767         estimate D2E/DX2                !
 ! R11   R(5,17)                 1.0881         estimate D2E/DX2                !
 ! R12   R(6,18)                 1.0911         estimate D2E/DX2                !
 ! R13   R(7,8)                  1.4301         estimate D2E/DX2                !
 ! R14   R(7,23)                 1.4581         estimate D2E/DX2                !
 ! R15   R(8,9)                  1.4312         estimate D2E/DX2                !
 ! R16   R(8,14)                 1.4263         estimate D2E/DX2                !
 ! R17   R(9,10)                 1.416          estimate D2E/DX2                !
 ! R18   R(9,22)                 1.3795         estimate D2E/DX2                !
 ! R19   R(10,11)                1.0878         estimate D2E/DX2                !
 ! R20   R(10,12)                1.3812         estimate D2E/DX2                !
 ! R21   R(12,13)                1.4121         estimate D2E/DX2                !
 ! R22   R(12,19)                1.0924         estimate D2E/DX2                !
 ! R23   R(13,14)                1.3768         estimate D2E/DX2                !
 ! R24   R(13,20)                1.0913         estimate D2E/DX2                !
 ! R25   R(14,21)                1.0883         estimate D2E/DX2                !
 ! R26   R(22,31)                1.4429         estimate D2E/DX2                !
 ! R27   R(23,24)                1.4134         estimate D2E/DX2                !
 ! R28   R(23,25)                1.4155         estimate D2E/DX2                !
 ! R29   R(24,26)                1.3957         estimate D2E/DX2                !
 ! R30   R(24,46)                1.0925         estimate D2E/DX2                !
 ! R31   R(25,27)                1.3915         estimate D2E/DX2                !
 ! R32   R(25,30)                1.0923         estimate D2E/DX2                !
 ! R33   R(26,28)                1.405          estimate D2E/DX2                !
 ! R34   R(26,48)                1.6481         estimate D2E/DX2                !
 ! R35   R(27,28)                1.4026         estimate D2E/DX2                !
 ! R36   R(27,29)                1.0935         estimate D2E/DX2                !
 ! R37   R(28,47)                1.0933         estimate D2E/DX2                !
 ! R38   R(31,32)                1.3928         estimate D2E/DX2                !
 ! R39   R(31,33)                1.3999         estimate D2E/DX2                !
 ! R40   R(32,34)                1.397          estimate D2E/DX2                !
 ! R41   R(32,35)                1.0918         estimate D2E/DX2                !
 ! R42   R(33,36)                1.3884         estimate D2E/DX2                !
 ! R43   R(33,37)                1.0917         estimate D2E/DX2                !
 ! R44   R(34,38)                1.4054         estimate D2E/DX2                !
 ! R45   R(34,39)                1.089          estimate D2E/DX2                !
 ! R46   R(36,38)                1.4087         estimate D2E/DX2                !
 ! R47   R(36,40)                1.091          estimate D2E/DX2                !
 ! R48   R(38,41)                1.3465         estimate D2E/DX2                !
 ! R49   R(41,42)                1.414          estimate D2E/DX2                !
 ! R50   R(42,43)                1.0971         estimate D2E/DX2                !
 ! R51   R(42,44)                1.104          estimate D2E/DX2                !
 ! R52   R(42,45)                1.1039         estimate D2E/DX2                !
 ! R53   R(48,49)                1.4123         estimate D2E/DX2                !
 ! R54   R(48,50)                1.4019         estimate D2E/DX2                !
 ! R55   R(48,51)                1.4016         estimate D2E/DX2                !
 ! A1    A(2,1,6)              121.0361         estimate D2E/DX2                !
 ! A2    A(2,1,15)             119.145          estimate D2E/DX2                !
 ! A3    A(6,1,15)             119.8109         estimate D2E/DX2                !
 ! A4    A(1,2,3)              119.978          estimate D2E/DX2                !
 ! A5    A(1,2,16)             120.261          estimate D2E/DX2                !
 ! A6    A(3,2,16)             119.7607         estimate D2E/DX2                !
 ! A7    A(2,3,4)              119.874          estimate D2E/DX2                !
 ! A8    A(2,3,22)             120.2865         estimate D2E/DX2                !
 ! A9    A(4,3,22)             119.8326         estimate D2E/DX2                !
 ! A10   A(3,4,5)              117.949          estimate D2E/DX2                !
 ! A11   A(3,4,7)              119.9405         estimate D2E/DX2                !
 ! A12   A(5,4,7)              122.0762         estimate D2E/DX2                !
 ! A13   A(4,5,6)              121.2996         estimate D2E/DX2                !
 ! A14   A(4,5,17)             118.7272         estimate D2E/DX2                !
 ! A15   A(6,5,17)             119.9726         estimate D2E/DX2                !
 ! A16   A(1,6,5)              119.7699         estimate D2E/DX2                !
 ! A17   A(1,6,18)             120.2957         estimate D2E/DX2                !
 ! A18   A(5,6,18)             119.933          estimate D2E/DX2                !
 ! A19   A(4,7,8)              118.2673         estimate D2E/DX2                !
 ! A20   A(4,7,23)             120.6413         estimate D2E/DX2                !
 ! A21   A(8,7,23)             121.0887         estimate D2E/DX2                !
 ! A22   A(7,8,9)              120.1271         estimate D2E/DX2                !
 ! A23   A(7,8,14)             121.8329         estimate D2E/DX2                !
 ! A24   A(9,8,14)             117.979          estimate D2E/DX2                !
 ! A25   A(8,9,10)             119.7881         estimate D2E/DX2                !
 ! A26   A(8,9,22)             119.7546         estimate D2E/DX2                !
 ! A27   A(10,9,22)            120.4479         estimate D2E/DX2                !
 ! A28   A(9,10,11)            119.7069         estimate D2E/DX2                !
 ! A29   A(9,10,12)            120.0186         estimate D2E/DX2                !
 ! A30   A(11,10,12)           120.2719         estimate D2E/DX2                !
 ! A31   A(10,12,13)           121.0038         estimate D2E/DX2                !
 ! A32   A(10,12,19)           119.1584         estimate D2E/DX2                !
 ! A33   A(13,12,19)           119.8206         estimate D2E/DX2                !
 ! A34   A(12,13,14)           119.6811         estimate D2E/DX2                !
 ! A35   A(12,13,20)           120.1395         estimate D2E/DX2                !
 ! A36   A(14,13,20)           120.1707         estimate D2E/DX2                !
 ! A37   A(8,14,13)            121.3711         estimate D2E/DX2                !
 ! A38   A(8,14,21)            118.2053         estimate D2E/DX2                !
 ! A39   A(13,14,21)           120.4137         estimate D2E/DX2                !
 ! A40   A(3,22,9)             122.002          estimate D2E/DX2                !
 ! A41   A(3,22,31)            119.0011         estimate D2E/DX2                !
 ! A42   A(9,22,31)            118.9937         estimate D2E/DX2                !
 ! A43   A(7,23,24)            119.8902         estimate D2E/DX2                !
 ! A44   A(7,23,25)            121.0371         estimate D2E/DX2                !
 ! A45   A(24,23,25)           119.0658         estimate D2E/DX2                !
 ! A46   A(23,24,26)           122.278          estimate D2E/DX2                !
 ! A47   A(23,24,46)           119.6898         estimate D2E/DX2                !
 ! A48   A(26,24,46)           118.0167         estimate D2E/DX2                !
 ! A49   A(23,25,27)           119.2871         estimate D2E/DX2                !
 ! A50   A(23,25,30)           120.0448         estimate D2E/DX2                !
 ! A51   A(27,25,30)           120.5412         estimate D2E/DX2                !
 ! A52   A(24,26,28)           117.1384         estimate D2E/DX2                !
 ! A53   A(24,26,48)           119.5846         estimate D2E/DX2                !
 ! A54   A(28,26,48)           123.2606         estimate D2E/DX2                !
 ! A55   A(25,27,28)           120.3118         estimate D2E/DX2                !
 ! A56   A(25,27,29)           119.4386         estimate D2E/DX2                !
 ! A57   A(28,27,29)           120.2297         estimate D2E/DX2                !
 ! A58   A(26,28,27)           121.8795         estimate D2E/DX2                !
 ! A59   A(26,28,47)           118.1486         estimate D2E/DX2                !
 ! A60   A(27,28,47)           119.96           estimate D2E/DX2                !
 ! A61   A(22,31,32)           119.836          estimate D2E/DX2                !
 ! A62   A(22,31,33)           119.8757         estimate D2E/DX2                !
 ! A63   A(32,31,33)           120.2883         estimate D2E/DX2                !
 ! A64   A(31,32,34)           120.2618         estimate D2E/DX2                !
 ! A65   A(31,32,35)           119.6085         estimate D2E/DX2                !
 ! A66   A(34,32,35)           120.1297         estimate D2E/DX2                !
 ! A67   A(31,33,36)           119.824          estimate D2E/DX2                !
 ! A68   A(31,33,37)           119.6707         estimate D2E/DX2                !
 ! A69   A(36,33,37)           120.5053         estimate D2E/DX2                !
 ! A70   A(32,34,38)           119.7536         estimate D2E/DX2                !
 ! A71   A(32,34,39)           119.158          estimate D2E/DX2                !
 ! A72   A(38,34,39)           121.0884         estimate D2E/DX2                !
 ! A73   A(33,36,38)           120.3499         estimate D2E/DX2                !
 ! A74   A(33,36,40)           121.3322         estimate D2E/DX2                !
 ! A75   A(38,36,40)           118.3179         estimate D2E/DX2                !
 ! A76   A(34,38,36)           119.5224         estimate D2E/DX2                !
 ! A77   A(34,38,41)           124.4201         estimate D2E/DX2                !
 ! A78   A(36,38,41)           116.0575         estimate D2E/DX2                !
 ! A79   A(38,41,42)           119.4465         estimate D2E/DX2                !
 ! A80   A(41,42,43)           106.4265         estimate D2E/DX2                !
 ! A81   A(41,42,44)           111.5471         estimate D2E/DX2                !
 ! A82   A(41,42,45)           111.5427         estimate D2E/DX2                !
 ! A83   A(43,42,44)           109.0888         estimate D2E/DX2                !
 ! A84   A(43,42,45)           109.0932         estimate D2E/DX2                !
 ! A85   A(44,42,45)           109.0643         estimate D2E/DX2                !
 ! A86   A(26,48,49)           107.4423         estimate D2E/DX2                !
 ! A87   A(26,48,50)           108.6677         estimate D2E/DX2                !
 ! A88   A(26,48,51)           109.4554         estimate D2E/DX2                !
 ! A89   A(49,48,50)           110.7708         estimate D2E/DX2                !
 ! A90   A(49,48,51)           109.8229         estimate D2E/DX2                !
 ! A91   A(50,48,51)           110.6105         estimate D2E/DX2                !
 ! D1    D(6,1,2,3)              1.1744         estimate D2E/DX2                !
 ! D2    D(6,1,2,16)          -178.641          estimate D2E/DX2                !
 ! D3    D(15,1,2,3)          -179.8564         estimate D2E/DX2                !
 ! D4    D(15,1,2,16)            0.3281         estimate D2E/DX2                !
 ! D5    D(2,1,6,5)             -1.2472         estimate D2E/DX2                !
 ! D6    D(2,1,6,18)           178.3312         estimate D2E/DX2                !
 ! D7    D(15,1,6,5)           179.7904         estimate D2E/DX2                !
 ! D8    D(15,1,6,18)           -0.6312         estimate D2E/DX2                !
 ! D9    D(1,2,3,4)              1.1382         estimate D2E/DX2                !
 ! D10   D(1,2,3,22)          -177.9053         estimate D2E/DX2                !
 ! D11   D(16,2,3,4)          -179.0454         estimate D2E/DX2                !
 ! D12   D(16,2,3,22)            1.9111         estimate D2E/DX2                !
 ! D13   D(2,3,4,5)             -3.2768         estimate D2E/DX2                !
 ! D14   D(2,3,4,7)            178.8092         estimate D2E/DX2                !
 ! D15   D(22,3,4,5)           175.771          estimate D2E/DX2                !
 ! D16   D(22,3,4,7)            -2.1429         estimate D2E/DX2                !
 ! D17   D(2,3,22,9)          -179.4023         estimate D2E/DX2                !
 ! D18   D(2,3,22,31)           -0.0586         estimate D2E/DX2                !
 ! D19   D(4,3,22,9)             1.5539         estimate D2E/DX2                !
 ! D20   D(4,3,22,31)         -179.1025         estimate D2E/DX2                !
 ! D21   D(3,4,5,6)              3.2501         estimate D2E/DX2                !
 ! D22   D(3,4,5,17)          -177.0235         estimate D2E/DX2                !
 ! D23   D(7,4,5,6)           -178.8833         estimate D2E/DX2                !
 ! D24   D(7,4,5,17)             0.8432         estimate D2E/DX2                !
 ! D25   D(3,4,7,8)              0.2843         estimate D2E/DX2                !
 ! D26   D(3,4,7,23)          -179.1214         estimate D2E/DX2                !
 ! D27   D(5,4,7,8)           -177.5409         estimate D2E/DX2                !
 ! D28   D(5,4,7,23)             3.0534         estimate D2E/DX2                !
 ! D29   D(4,5,6,1)             -1.0325         estimate D2E/DX2                !
 ! D30   D(4,5,6,18)           179.3876         estimate D2E/DX2                !
 ! D31   D(17,5,6,1)           179.2444         estimate D2E/DX2                !
 ! D32   D(17,5,6,18)           -0.3355         estimate D2E/DX2                !
 ! D33   D(4,7,8,9)              2.1429         estimate D2E/DX2                !
 ! D34   D(4,7,8,14)          -174.9602         estimate D2E/DX2                !
 ! D35   D(23,7,8,9)          -178.4542         estimate D2E/DX2                !
 ! D36   D(23,7,8,14)            4.4427         estimate D2E/DX2                !
 ! D37   D(4,7,23,24)           51.9706         estimate D2E/DX2                !
 ! D38   D(4,7,23,25)         -127.0601         estimate D2E/DX2                !
 ! D39   D(8,7,23,24)         -127.4182         estimate D2E/DX2                !
 ! D40   D(8,7,23,25)           53.5511         estimate D2E/DX2                !
 ! D41   D(7,8,9,10)           178.3234         estimate D2E/DX2                !
 ! D42   D(7,8,9,22)            -2.7847         estimate D2E/DX2                !
 ! D43   D(14,8,9,10)           -4.4635         estimate D2E/DX2                !
 ! D44   D(14,8,9,22)          174.4285         estimate D2E/DX2                !
 ! D45   D(7,8,14,13)         -178.9335         estimate D2E/DX2                !
 ! D46   D(7,8,14,21)            2.2093         estimate D2E/DX2                !
 ! D47   D(9,8,14,13)            3.9036         estimate D2E/DX2                !
 ! D48   D(9,8,14,21)         -174.9535         estimate D2E/DX2                !
 ! D49   D(8,9,10,11)         -178.6105         estimate D2E/DX2                !
 ! D50   D(8,9,10,12)            1.9739         estimate D2E/DX2                !
 ! D51   D(22,9,10,11)           2.5054         estimate D2E/DX2                !
 ! D52   D(22,9,10,12)        -176.9103         estimate D2E/DX2                !
 ! D53   D(8,9,22,3)             0.9065         estimate D2E/DX2                !
 ! D54   D(8,9,22,31)         -178.4372         estimate D2E/DX2                !
 ! D55   D(10,9,22,3)          179.791          estimate D2E/DX2                !
 ! D56   D(10,9,22,31)           0.4473         estimate D2E/DX2                !
 ! D57   D(9,10,12,13)           1.2593         estimate D2E/DX2                !
 ! D58   D(9,10,12,19)         179.7501         estimate D2E/DX2                !
 ! D59   D(11,10,12,13)       -178.153          estimate D2E/DX2                !
 ! D60   D(11,10,12,19)          0.3378         estimate D2E/DX2                !
 ! D61   D(10,12,13,14)         -1.8823         estimate D2E/DX2                !
 ! D62   D(10,12,13,20)        177.0486         estimate D2E/DX2                !
 ! D63   D(19,12,13,14)        179.6368         estimate D2E/DX2                !
 ! D64   D(19,12,13,20)         -1.4323         estimate D2E/DX2                !
 ! D65   D(12,13,14,8)          -0.7819         estimate D2E/DX2                !
 ! D66   D(12,13,14,21)        178.0503         estimate D2E/DX2                !
 ! D67   D(20,13,14,8)        -179.7124         estimate D2E/DX2                !
 ! D68   D(20,13,14,21)         -0.8803         estimate D2E/DX2                !
 ! D69   D(3,22,31,32)         -90.5564         estimate D2E/DX2                !
 ! D70   D(3,22,31,33)          89.3683         estimate D2E/DX2                !
 ! D71   D(9,22,31,32)          88.8072         estimate D2E/DX2                !
 ! D72   D(9,22,31,33)         -91.268          estimate D2E/DX2                !
 ! D73   D(7,23,24,26)        -178.7772         estimate D2E/DX2                !
 ! D74   D(7,23,24,46)           2.682          estimate D2E/DX2                !
 ! D75   D(25,23,24,26)          0.2725         estimate D2E/DX2                !
 ! D76   D(25,23,24,46)       -178.2682         estimate D2E/DX2                !
 ! D77   D(7,23,25,27)         177.4132         estimate D2E/DX2                !
 ! D78   D(7,23,25,30)           1.4854         estimate D2E/DX2                !
 ! D79   D(24,23,25,27)         -1.6253         estimate D2E/DX2                !
 ! D80   D(24,23,25,30)       -177.5531         estimate D2E/DX2                !
 ! D81   D(23,24,26,28)          1.4587         estimate D2E/DX2                !
 ! D82   D(23,24,26,48)       -179.9668         estimate D2E/DX2                !
 ! D83   D(46,24,26,28)       -179.9772         estimate D2E/DX2                !
 ! D84   D(46,24,26,48)         -1.4027         estimate D2E/DX2                !
 ! D85   D(23,25,27,28)          1.209          estimate D2E/DX2                !
 ! D86   D(23,25,27,29)       -177.1717         estimate D2E/DX2                !
 ! D87   D(30,25,27,28)        177.1161         estimate D2E/DX2                !
 ! D88   D(30,25,27,29)         -1.2646         estimate D2E/DX2                !
 ! D89   D(24,26,28,27)         -1.9026         estimate D2E/DX2                !
 ! D90   D(24,26,28,47)        176.8448         estimate D2E/DX2                !
 ! D91   D(48,26,28,27)        179.58           estimate D2E/DX2                !
 ! D92   D(48,26,28,47)         -1.6727         estimate D2E/DX2                !
 ! D93   D(24,26,48,49)        -31.6748         estimate D2E/DX2                !
 ! D94   D(24,26,48,50)       -151.5766         estimate D2E/DX2                !
 ! D95   D(24,26,48,51)         87.5325         estimate D2E/DX2                !
 ! D96   D(28,26,48,49)        146.8081         estimate D2E/DX2                !
 ! D97   D(28,26,48,50)         26.9063         estimate D2E/DX2                !
 ! D98   D(28,26,48,51)        -93.9846         estimate D2E/DX2                !
 ! D99   D(25,27,28,26)          0.5955         estimate D2E/DX2                !
 ! D100  D(25,27,28,47)       -178.1296         estimate D2E/DX2                !
 ! D101  D(29,27,28,26)        178.9633         estimate D2E/DX2                !
 ! D102  D(29,27,28,47)          0.2381         estimate D2E/DX2                !
 ! D103  D(22,31,32,34)        179.9272         estimate D2E/DX2                !
 ! D104  D(22,31,32,35)          0.0119         estimate D2E/DX2                !
 ! D105  D(33,31,32,34)          0.0028         estimate D2E/DX2                !
 ! D106  D(33,31,32,35)       -179.9126         estimate D2E/DX2                !
 ! D107  D(22,31,33,36)       -179.9579         estimate D2E/DX2                !
 ! D108  D(22,31,33,37)         -0.0059         estimate D2E/DX2                !
 ! D109  D(32,31,33,36)         -0.0335         estimate D2E/DX2                !
 ! D110  D(32,31,33,37)        179.9185         estimate D2E/DX2                !
 ! D111  D(31,32,34,38)          0.0135         estimate D2E/DX2                !
 ! D112  D(31,32,34,39)       -179.9405         estimate D2E/DX2                !
 ! D113  D(35,32,34,38)        179.9284         estimate D2E/DX2                !
 ! D114  D(35,32,34,39)         -0.0257         estimate D2E/DX2                !
 ! D115  D(31,33,36,38)          0.0477         estimate D2E/DX2                !
 ! D116  D(31,33,36,40)        179.9825         estimate D2E/DX2                !
 ! D117  D(37,33,36,38)       -179.9038         estimate D2E/DX2                !
 ! D118  D(37,33,36,40)          0.0309         estimate D2E/DX2                !
 ! D119  D(32,34,38,36)          0.0007         estimate D2E/DX2                !
 ! D120  D(32,34,38,41)       -179.9882         estimate D2E/DX2                !
 ! D121  D(39,34,38,36)        179.9538         estimate D2E/DX2                !
 ! D122  D(39,34,38,41)         -0.0351         estimate D2E/DX2                !
 ! D123  D(33,36,38,34)         -0.0314         estimate D2E/DX2                !
 ! D124  D(33,36,38,41)        179.9584         estimate D2E/DX2                !
 ! D125  D(40,36,38,34)       -179.9682         estimate D2E/DX2                !
 ! D126  D(40,36,38,41)          0.0217         estimate D2E/DX2                !
 ! D127  D(34,38,41,42)          0.1816         estimate D2E/DX2                !
 ! D128  D(36,38,41,42)       -179.8077         estimate D2E/DX2                !
 ! D129  D(38,41,42,43)        179.9058         estimate D2E/DX2                !
 ! D130  D(38,41,42,44)        -61.2142         estimate D2E/DX2                !
 ! D131  D(38,41,42,45)         61.0228         estimate D2E/DX2                !
 --------------------------------------------------------------------------------
 Trust Radius=3.00D-01 FncErr=1.00D-07 GrdErr=1.00D-06
 Number of steps in this run=    287 maximum allowed number of steps=    306.
 GradGradGradGradGradGradGradGradGradGradGradGradGradGradGradGradGradGrad

 Leave Link  103 at Wed Feb 24 00:10:57 2021, MaxMem=  5242880000 cpu:         2.9
 (Enter /opt/nce/packages/global/g09/l202.exe)
 Symmetry turned off by external request.
 Stoichiometry    C26H19BF3NO
 Framework group  C1[X(C26H19BF3NO)]
 Deg. of freedom   147
 Full point group                 C1      NOp   1
                          Input orientation:                          
 ---------------------------------------------------------------------
 Center     Atomic      Atomic             Coordinates (Angstroms)
 Number     Number       Type             X           Y           Z
 ---------------------------------------------------------------------
      1          6           0        0.687089    3.333469    0.920380
      2          6           0        1.493318    2.252387    0.619856
      3          6           0        0.923232    0.966936    0.464615
      4          6           0       -0.492854    0.793804    0.595479
      5          6           0       -1.275966    1.932682    0.952582
      6          6           0       -0.703778    3.175934    1.101384
      7          6           0       -1.073664   -0.500706    0.413608
      8          6           0       -0.205739   -1.595680    0.108576
      9          6           0        1.209141   -1.392528    0.037266
     10          6           0        2.064607   -2.488733   -0.230132
     11          1           0        3.141303   -2.337127   -0.261586
     12          6           0        1.530814   -3.741369   -0.461594
     13          6           0        0.133895   -3.947872   -0.462769
     14          6           0       -0.711128   -2.895203   -0.191647
     15          1           0        1.141323    4.320344    1.034923
     16          1           0        2.566799    2.384414    0.504729
     17          1           0       -2.346002    1.805153    1.103425
     18          1           0       -1.325083    4.033166    1.365114
     19          1           0        2.203554   -4.576292   -0.670549
     20          1           0       -0.274167   -4.933057   -0.694688
     21          1           0       -1.790270   -3.033435   -0.220429
     22          7           0        1.728294   -0.125780    0.206832
     23          6           0       -2.515094   -0.690735    0.524442
     24          6           0       -3.392961    0.128880   -0.220752
     25          6           0       -3.057465   -1.674350    1.385845
     26          6           0       -4.780559    0.007037   -0.133765
     27          6           0       -4.439195   -1.788214    1.504392
     28          6           0       -5.284839   -0.953937    0.758582
     29          1           0       -4.860462   -2.515507    2.203830
     30          1           0       -2.395207   -2.289439    1.999122
     31          6           0        3.154230    0.066039    0.097870
     32          6           0        3.723657    0.340620   -1.143230
     33          6           0        3.959078   -0.023010    1.239791
     34          6           0        5.102979    0.529396   -1.258687
     35          1           0        3.085356    0.409006   -2.026305
     36          6           0        5.330952    0.162622    1.133853
     37          1           0        3.501995   -0.237374    2.207702
     38          6           0        5.917078    0.441080   -0.116446
     39          1           0        5.529025    0.744144   -2.237642
     40          1           0        5.981172    0.098999    2.007559
     41          8           0        7.253448    0.606272   -0.119602
     42          6           0        7.915605    0.892680   -1.335715
     43          1           0        8.981795    0.985133   -1.094148
     44          1           0        7.781223    0.080746   -2.071523
     45          1           0        7.561664    1.840901   -1.776426
     46          1           0       -2.985285    0.872024   -0.909949
     47          1           0       -6.369017   -1.027376    0.878905
     48          5           0       -5.742345    0.997486   -1.033843
     49          9           0       -5.066651    2.229582   -1.175196
     50          9           0       -6.960097    1.172544   -0.361618
     51          9           0       -5.953057    0.423546   -2.295025
 ---------------------------------------------------------------------
 Rotational constants (GHZ):      0.2929752      0.0650026      0.0579583
 Leave Link  202 at Wed Feb 24 00:10:57 2021, MaxMem=  5242880000 cpu:         0.1
 (Enter /opt/nce/packages/global/g09/l301.exe)
 Standard basis: def2TZVP (5D, 7F)
 Ernie: Thresh=  0.10000D-02 Tol=  0.10000D-05 Strict=F.
  1106 basis functions,  1784 primitive gaussians,  1266 cartesian basis functions
   111 alpha electrons      111 beta electrons
       nuclear repulsion energy      2965.7304009032 Hartrees.
 IExCor=20419 DFT=T Ex+Corr=CAM-B3LYP ExCW=0 ScaHFX=  1.000000
 ScaDFX=  1.000000  1.000000  1.000000  0.810000 ScalE2=  1.000000  1.000000
 IRadAn=      5 IRanWt=     -1 IRanGd=            0 ICorTp=0 IEmpDi=141
  HFx wShort=  0.000000 wLong=  0.330000 cFull=  0.190000 cShort=  0.000000 cLong=  0.460000
  DFx wShort=  0.000000 wLong=  0.330000 cFull=  0.190000 cShort=  0.000000 cLong=  0.460000
 NAtoms=   51 NActive=   51 NUniq=   51 SFac= 1.00D+00 NAtFMM=   60 NAOKFM=F Big=F
 Integral buffers will be    131072 words long.
 Raffenetti 2 integral format.
 Two-electron integral symmetry is turned off.
 R6Disp:  Grimme-D3(BJ) Dispersion energy=       -0.0643114263 Hartrees.
 Nuclear repulsion after empirical dispersion term =     2965.6660894769 Hartrees.
 ------------------------------------------------------------------------------
 Polarizable Continuum Model (PCM)
 =================================
 Model                : PCM (using non-symmetric T matrix).
 Atomic radii         : SMD-Coulomb.
 Polarization charges : Total charges.
 Charge compensation  : None.
 Solution method      : On-the-fly selection.
 Cavity type          : VdW (van der Waals Surface) (Alpha=1.000).
 Cavity algorithm     : GePol (No added spheres)
                        Default sphere list used, NSphG=   51.
                        Lebedev-Laikov grids with approx.  5.0 points / Ang**2.
                        Smoothing algorithm: York/Karplus (Gamma=1.0000).
                        Polarization charges: spherical gaussians, with
                                              point-specific exponents (IZeta= 3).
                        Self-potential: point-specific (ISelfS= 7).
                        Self-field    : sphere-specific E.n sum rule (ISelfD= 2).
 1st derivatives      : Analytical E(r).r(x)/FMM algorithm (CHGder, D1EAlg=3).
                        Cavity 1st derivative terms included.
 Solvent              : Acetonitrile, Eps=  35.688000 Eps(inf)=   1.806874
 ------------------------------------------------------------------------------
 GePol: Number of generator spheres                  =      51
 GePol: Total number of spheres                      =      51
 GePol: Number of exposed spheres                    =      51 (100.00%)
 GePol: Number of points                             =    3808
 GePol: Average weight of points                     =       0.12
 GePol: Minimum weight of points                     =   0.37D-09
 GePol: Maximum weight of points                     =    0.21559
 GePol: Number of points with low weight             =     215
 GePol: Fraction of low-weight points (<1% of avg)   =       5.65%
 GePol: Cavity surface area                          =    439.122 Ang**2
 GePol: Cavity volume                                =    430.984 Ang**3
 ------------------------------------------------------------------------------
 Atomic radii for non-electrostatic terms: SMD-CDS.
 ------------------------------------------------------------------------------
 PCM non-electrostatic energy =        -0.0068399174 Hartrees.
 Nuclear repulsion after PCM non-electrostatic terms =     2965.6592495595 Hartrees.
 Leave Link  301 at Wed Feb 24 00:10:58 2021, MaxMem=  5242880000 cpu:         9.6
 (Enter /opt/nce/packages/global/g09/l302.exe)
 NPDir=0 NMtPBC=     1 NCelOv=     1 NCel=       1 NClECP=     1 NCelD=      1
         NCelK=      1 NCelE2=     1 NClLst=     1 CellRange=     0.0.
 One-electron integrals computed using PRISM.
   1 Symmetry operations used in ECPInt.
 ECPInt:  NShTT=   91806 NPrTT=  285396 LenC2=   71439 LenP2D=  151316.
 LDataN:  DoStor=T MaxTD1= 6 Len=  172
 NBasis=  1106 RedAO= T EigKep=  5.29D-06  NBF=  1106
 NBsUse=  1106 1.00D-06 EigRej= -1.00D+00 NBFU=  1106
 Precomputing XC quadrature grid using
 IXCGrd= 4 IRadAn=           5 IRanWt=          -1 IRanGd=           0 AccXCQ= 0.00D+00.
 Generated NRdTot=       0 NPtTot=           0 NUsed=           0 NTot=          32
 NSgBfM=  1159  1159  1159  1163  1163 MxSgAt=    51 MxSgA2=    51.
 Leave Link  302 at Wed Feb 24 00:11:01 2021, MaxMem=  5242880000 cpu:        31.0
 (Enter /opt/nce/packages/global/g09/l303.exe)
 DipDrv:  MaxL=1.
 Leave Link  303 at Wed Feb 24 00:11:01 2021, MaxMem=  5242880000 cpu:         3.5
 (Enter /opt/nce/packages/global/g09/l401.exe)
 ExpMin= 6.06D-02 ExpMax= 3.55D+04 ExpMxC= 1.21D+03 IAcc=3 IRadAn=         5 AccDes= 0.00D+00
 Harris functional with IExCor=20419 and IRadAn=       5 diagonalized for initial guess.
 HarFok:  IExCor=20419 AccDes= 0.00D+00 IRadAn=         5 IDoV= 1 UseB2=F ITyADJ=14
 ICtDFT=  3500011 ScaDFX=  1.000000  1.000000  1.000000  1.000000
 FoFCou: FMM=F IPFlag=           0 FMFlag=      100000 FMFlg1=           0
         NFxFlg=           0 DoJE=T BraDBF=F KetDBF=T FulRan=T
         wScrn=  0.000000 ICntrl=     500 IOpCl=  0 I1Cent=   200000004 NGrid=           0
         NMat0=    1 NMatS0=      1 NMatT0=    0 NMatD0=    1 NMtDS0=    0 NMtDT0=    0
 Symmetry not used in FoFCou.
 Harris En= -1402.41884575743    
 JPrj=0 DoOrth=F DoCkMO=F.
 Leave Link  401 at Wed Feb 24 00:11:12 2021, MaxMem=  5242880000 cpu:       130.1
 (Enter /opt/nce/packages/global/g09/l502.exe)
 Closed shell SCF:
 Using DIIS extrapolation, IDIIS=  1040.
 Two-electron integral symmetry not used.
 IVT=     4849708 IEndB=     4849708 NGot=  5242880000 MDV=  5239650955
 LenX=  5239650955 LenY=  5238046933
 Requested convergence on RMS density matrix=1.00D-08 within 128 cycles.
 Requested convergence on MAX density matrix=1.00D-06.
 Requested convergence on             energy=1.00D-06.
 No special actions if energy rises.
 Fock matrices will be formed incrementally for  20 cycles.

 Cycle   1  Pass 1  IDiag  1:
 FoFJK:  IHMeth= 1 ICntrl=       0 DoSepK=T KAlg= 0 I1Cent=   0 FoldK=F
 IRaf=         1 NMat=   1 IRICut=       1 DoRegI=T DoRafI=F ISym2E= 0.
 FoFCou: FMM=F IPFlag=           0 FMFlag=      100000 FMFlg1=           0
         NFxFlg=           0 DoJE=T BraDBF=F KetDBF=F FulRan=T
         wScrn=  0.000000 ICntrl=     500 IOpCl=  0 I1Cent=           0 NGrid=           0
         NMat0=    1 NMatS0=      1 NMatT0=    0 NMatD0=    1 NMtDS0=    0 NMtDT0=    0
 Symmetry not used in FoFCou.
 Inv3:  Mode=1 IEnd=    43502592.
 Iteration    1 A*A^-1 deviation from unit magnitude is 7.33D-15 for   3808.
 Iteration    1 A*A^-1 deviation from orthogonality  is 2.66D-15 for   3239    419.
 Iteration    1 A^-1*A deviation from unit magnitude is 7.55D-15 for   3808.
 Iteration    1 A^-1*A deviation from orthogonality  is 2.39D-10 for   3221   3150.
 Iteration    2 A*A^-1 deviation from unit magnitude is 2.78D-15 for    417.
 Iteration    2 A*A^-1 deviation from orthogonality  is 2.00D-15 for   2463    624.
 Iteration    2 A^-1*A deviation from unit magnitude is 1.11D-15 for   3782.
 Iteration    2 A^-1*A deviation from orthogonality  is 3.33D-16 for   2550    347.
 E= -1456.21492682529    
 DIIS: error= 5.14D-02 at cycle   1 NSaved=   1.
 NSaved= 1 IEnMin= 1 EnMin= -1456.21492682529     IErMin= 1 ErrMin= 5.14D-02
 ErrMax= 5.14D-02  0.00D+00 EMaxC= 1.00D-01 BMatC= 2.62D+00 BMatP= 2.62D+00
 IDIUse=3 WtCom= 4.86D-01 WtEn= 5.14D-01
 Coeff-Com:  0.100D+01
 Coeff-En:   0.100D+01
 Coeff:      0.100D+01
 Gap=     0.247 Goal=   None    Shift=    0.000
 GapD=    0.247 DampG=1.000 DampE=0.500 DampFc=0.5000 IDamp=-1.
 Damping current iteration by 5.00D-01
 RMSDP=2.72D-03 MaxDP=4.26D-01              OVMax= 2.33D-01

 Cycle   2  Pass 1  IDiag  1:
 RMSU=  1.07D-03    CP:  8.69D-01
 E= -1456.41933059201     Delta-E=       -0.204403766718 Rises=F Damp=T
 DIIS: error= 2.15D-02 at cycle   2 NSaved=   2.
 NSaved= 2 IEnMin= 2 EnMin= -1456.41933059201     IErMin= 2 ErrMin= 2.15D-02
 ErrMax= 2.15D-02  0.00D+00 EMaxC= 1.00D-01 BMatC= 5.08D-01 BMatP= 2.62D+00
 IDIUse=3 WtCom= 7.85D-01 WtEn= 2.15D-01
 Coeff-Com: -0.409D+00 0.141D+01
 Coeff-En:   0.428D-01 0.957D+00
 Coeff:     -0.311D+00 0.131D+01
 Gap=     0.271 Goal=   None    Shift=    0.000
 RMSDP=8.27D-04 MaxDP=8.06D-02 DE=-2.04D-01 OVMax= 3.27D-01

 Cycle   3  Pass 1  IDiag  1:
 RMSU=  7.30D-04    CP:  8.19D-01  1.21D+00
 E= -1456.51401880848     Delta-E=       -0.094688216475 Rises=F Damp=F
 DIIS: error= 1.59D-02 at cycle   3 NSaved=   3.
 NSaved= 3 IEnMin= 3 EnMin= -1456.51401880848     IErMin= 3 ErrMin= 1.59D-02
 ErrMax= 1.59D-02  0.00D+00 EMaxC= 1.00D-01 BMatC= 2.24D-01 BMatP= 5.08D-01
 IDIUse=3 WtCom= 8.41D-01 WtEn= 1.59D-01
 Coeff-Com: -0.327D+00 0.723D+00 0.604D+00
 Coeff-En:   0.000D+00 0.211D+00 0.789D+00
 Coeff:     -0.275D+00 0.642D+00 0.634D+00
 Gap=     0.222 Goal=   None    Shift=    0.000
 RMSDP=6.94D-04 MaxDP=1.36D-01 DE=-9.47D-02 OVMax= 1.43D-01

 Cycle   4  Pass 1  IDiag  1:
 RMSU=  1.86D-04    CP:  7.68D-01  1.68D+00  5.93D-01
 E= -1456.67954443561     Delta-E=       -0.165525627122 Rises=F Damp=F
 DIIS: error= 3.78D-03 at cycle   4 NSaved=   4.
 NSaved= 4 IEnMin= 4 EnMin= -1456.67954443561     IErMin= 4 ErrMin= 3.78D-03
 ErrMax= 3.78D-03  0.00D+00 EMaxC= 1.00D-01 BMatC= 1.71D-02 BMatP= 2.24D-01
 IDIUse=3 WtCom= 9.62D-01 WtEn= 3.78D-02
 Coeff-Com: -0.160D+00 0.350D+00 0.383D+00 0.427D+00
 Coeff-En:   0.000D+00 0.000D+00 0.139D-02 0.999D+00
 Coeff:     -0.154D+00 0.337D+00 0.369D+00 0.449D+00
 Gap=     0.199 Goal=   None    Shift=    0.000
 RMSDP=9.19D-05 MaxDP=1.61D-02 DE=-1.66D-01 OVMax= 3.82D-02

 Cycle   5  Pass 1  IDiag  1:
 RMSU=  6.05D-05    CP:  7.70D-01  1.65D+00  6.66D-01  8.54D-01
 E= -1456.69366218839     Delta-E=       -0.014117752786 Rises=F Damp=F
 DIIS: error= 4.75D-04 at cycle   5 NSaved=   5.
 NSaved= 5 IEnMin= 5 EnMin= -1456.69366218839     IErMin= 5 ErrMin= 4.75D-04
 ErrMax= 4.75D-04  0.00D+00 EMaxC= 1.00D-01 BMatC= 1.25D-04 BMatP= 1.71D-02
 IDIUse=3 WtCom= 9.95D-01 WtEn= 4.75D-03
 Coeff-Com:  0.161D-01-0.355D-01-0.132D-01 0.674D-01 0.965D+00
 Coeff-En:   0.000D+00 0.000D+00 0.000D+00 0.000D+00 0.100D+01
 Coeff:      0.160D-01-0.354D-01-0.131D-01 0.671D-01 0.965D+00
 Gap=     0.202 Goal=   None    Shift=    0.000
 RMSDP=2.76D-05 MaxDP=2.41D-03 DE=-1.41D-02 OVMax= 7.45D-03

 Cycle   6  Pass 1  IDiag  1:
 RMSU=  2.36D-05    CP:  7.70D-01  1.65D+00  6.82D-01  8.93D-01  9.38D-01
 E= -1456.69382198280     Delta-E=       -0.000159794412 Rises=F Damp=F
 DIIS: error= 2.40D-04 at cycle   6 NSaved=   6.
 NSaved= 6 IEnMin= 6 EnMin= -1456.69382198280     IErMin= 6 ErrMin= 2.40D-04
 ErrMax= 2.40D-04  0.00D+00 EMaxC= 1.00D-01 BMatC= 5.24D-05 BMatP= 1.25D-04
 IDIUse=3 WtCom= 9.98D-01 WtEn= 2.40D-03
 Coeff-Com:  0.156D-01-0.343D-01-0.267D-01-0.201D-03 0.481D+00 0.565D+00
 Coeff-En:   0.000D+00 0.000D+00 0.000D+00 0.000D+00 0.000D+00 0.100D+01
 Coeff:      0.155D-01-0.342D-01-0.266D-01-0.201D-03 0.480D+00 0.566D+00
 Gap=     0.202 Goal=   None    Shift=    0.000
 RMSDP=1.49D-05 MaxDP=2.87D-03 DE=-1.60D-04 OVMax= 1.94D-03

 Cycle   7  Pass 1  IDiag  1:
 RMSU=  7.32D-06    CP:  7.69D-01  1.66D+00  6.79D-01  9.29D-01  1.04D+00
                    CP:  8.51D-01
 E= -1456.69387537967     Delta-E=       -0.000053396868 Rises=F Damp=F
 DIIS: error= 9.35D-05 at cycle   7 NSaved=   7.
 NSaved= 7 IEnMin= 7 EnMin= -1456.69387537967     IErMin= 7 ErrMin= 9.35D-05
 ErrMax= 9.35D-05  0.00D+00 EMaxC= 1.00D-01 BMatC= 3.28D-06 BMatP= 5.24D-05
 IDIUse=1 WtCom= 1.00D+00 WtEn= 0.00D+00
 Coeff-Com:  0.101D-02-0.226D-02-0.432D-02-0.145D-01-0.839D-02 0.159D+00
 Coeff-Com:  0.870D+00
 Coeff:      0.101D-02-0.226D-02-0.432D-02-0.145D-01-0.839D-02 0.159D+00
 Coeff:      0.870D+00
 Gap=     0.202 Goal=   None    Shift=    0.000
 RMSDP=4.52D-06 MaxDP=7.11D-04 DE=-5.34D-05 OVMax= 1.60D-03

 Cycle   8  Pass 1  IDiag  1:
 RMSU=  2.84D-06    CP:  7.69D-01  1.66D+00  6.81D-01  9.26D-01  1.04D+00
                    CP:  9.76D-01  1.03D+00
 E= -1456.69388154041     Delta-E=       -0.000006160738 Rises=F Damp=F
 DIIS: error= 3.21D-05 at cycle   8 NSaved=   8.
 NSaved= 8 IEnMin= 8 EnMin= -1456.69388154041     IErMin= 8 ErrMin= 3.21D-05
 ErrMax= 3.21D-05  0.00D+00 EMaxC= 1.00D-01 BMatC= 8.14D-07 BMatP= 3.28D-06
 IDIUse=1 WtCom= 1.00D+00 WtEn= 0.00D+00
 Coeff-Com: -0.155D-02 0.343D-02 0.133D-02-0.903D-02-0.712D-01-0.132D-01
 Coeff-Com:  0.361D+00 0.730D+00
 Coeff:     -0.155D-02 0.343D-02 0.133D-02-0.903D-02-0.712D-01-0.132D-01
 Coeff:      0.361D+00 0.730D+00
 Gap=     0.202 Goal=   None    Shift=    0.000
 RMSDP=1.51D-06 MaxDP=9.44D-05 DE=-6.16D-06 OVMax= 7.21D-04

 Cycle   9  Pass 1  IDiag  1:
 RMSU=  9.05D-07    CP:  7.69D-01  1.66D+00  6.81D-01  9.27D-01  1.05D+00
                    CP:  1.00D+00  1.14D+00  1.16D+00
 E= -1456.69388290109     Delta-E=       -0.000001360679 Rises=F Damp=F
 DIIS: error= 1.72D-05 at cycle   9 NSaved=   9.
 NSaved= 9 IEnMin= 9 EnMin= -1456.69388290109     IErMin= 9 ErrMin= 1.72D-05
 ErrMax= 1.72D-05  0.00D+00 EMaxC= 1.00D-01 BMatC= 1.02D-07 BMatP= 8.14D-07
 IDIUse=1 WtCom= 1.00D+00 WtEn= 0.00D+00
 Coeff-Com: -0.706D-03 0.155D-02 0.132D-02-0.127D-02-0.190D-01-0.324D-01
 Coeff-Com: -0.398D-01 0.180D+00 0.910D+00
 Coeff:     -0.706D-03 0.155D-02 0.132D-02-0.127D-02-0.190D-01-0.324D-01
 Coeff:     -0.398D-01 0.180D+00 0.910D+00
 Gap=     0.202 Goal=   None    Shift=    0.000
 RMSDP=1.12D-06 MaxDP=1.81D-04 DE=-1.36D-06 OVMax= 4.40D-04

 Cycle  10  Pass 1  IDiag  1:
 RMSU=  4.21D-07    CP:  7.69D-01  1.66D+00  6.81D-01  9.25D-01  1.05D+00
                    CP:  1.02D+00  1.18D+00  1.35D+00  1.22D+00
 E= -1456.69388317831     Delta-E=       -0.000000277221 Rises=F Damp=F
 DIIS: error= 8.42D-06 at cycle  10 NSaved=  10.
 NSaved=10 IEnMin=10 EnMin= -1456.69388317831     IErMin=10 ErrMin= 8.42D-06
 ErrMax= 8.42D-06  0.00D+00 EMaxC= 1.00D-01 BMatC= 1.60D-08 BMatP= 1.02D-07
 IDIUse=1 WtCom= 1.00D+00 WtEn= 0.00D+00
 Coeff-Com: -0.621D-04 0.129D-03 0.311D-03 0.446D-03 0.249D-02-0.950D-02
 Coeff-Com: -0.536D-01-0.502D-01 0.311D+00 0.799D+00
 Coeff:     -0.621D-04 0.129D-03 0.311D-03 0.446D-03 0.249D-02-0.950D-02
 Coeff:     -0.536D-01-0.502D-01 0.311D+00 0.799D+00
 Gap=     0.202 Goal=   None    Shift=    0.000
 RMSDP=2.97D-07 MaxDP=1.83D-05 DE=-2.77D-07 OVMax= 1.90D-04

 Cycle  11  Pass 1  IDiag  1:
 RMSU=  1.62D-07    CP:  7.69D-01  1.66D+00  6.81D-01  9.25D-01  1.05D+00
                    CP:  1.02D+00  1.19D+00  1.40D+00  1.38D+00  1.17D+00
 E= -1456.69388321816     Delta-E=       -0.000000039854 Rises=F Damp=F
 DIIS: error= 3.05D-06 at cycle  11 NSaved=  11.
 NSaved=11 IEnMin=11 EnMin= -1456.69388321816     IErMin=11 ErrMin= 3.05D-06
 ErrMax= 3.05D-06  0.00D+00 EMaxC= 1.00D-01 BMatC= 2.84D-09 BMatP= 1.60D-08
 IDIUse=1 WtCom= 1.00D+00 WtEn= 0.00D+00
 Coeff-Com:  0.112D-03-0.249D-03-0.128D-03 0.380D-03 0.506D-02 0.151D-02
 Coeff-Com: -0.155D-01-0.598D-01-0.289D-01 0.313D+00 0.784D+00
 Coeff:      0.112D-03-0.249D-03-0.128D-03 0.380D-03 0.506D-02 0.151D-02
 Coeff:     -0.155D-01-0.598D-01-0.289D-01 0.313D+00 0.784D+00
 Gap=     0.202 Goal=   None    Shift=    0.000
 RMSDP=1.59D-07 MaxDP=1.44D-05 DE=-3.99D-08 OVMax= 9.04D-05

 Cycle  12  Pass 1  IDiag  1:
 RMSU=  7.55D-08    CP:  7.69D-01  1.66D+00  6.81D-01  9.25D-01  1.05D+00
                    CP:  1.02D+00  1.20D+00  1.42D+00  1.44D+00  1.33D+00
                    CP:  1.25D+00
 E= -1456.69388322652     Delta-E=       -0.000000008356 Rises=F Damp=F
 DIIS: error= 1.62D-06 at cycle  12 NSaved=  12.
 NSaved=12 IEnMin=12 EnMin= -1456.69388322652     IErMin=12 ErrMin= 1.62D-06
 ErrMax= 1.62D-06  0.00D+00 EMaxC= 1.00D-01 BMatC= 3.40D-10 BMatP= 2.84D-09
 IDIUse=1 WtCom= 1.00D+00 WtEn= 0.00D+00
 Coeff-Com:  0.318D-04-0.688D-04-0.775D-04-0.172D-04 0.846D-03 0.164D-02
 Coeff-Com:  0.695D-02-0.409D-02-0.565D-01-0.704D-01 0.194D+00 0.927D+00
 Coeff:      0.318D-04-0.688D-04-0.775D-04-0.172D-04 0.846D-03 0.164D-02
 Coeff:      0.695D-02-0.409D-02-0.565D-01-0.704D-01 0.194D+00 0.927D+00
 Gap=     0.202 Goal=   None    Shift=    0.000
 RMSDP=6.96D-08 MaxDP=5.91D-06 DE=-8.36D-09 OVMax= 4.22D-05

 Cycle  13  Pass 1  IDiag  1:
 RMSU=  3.22D-08    CP:  7.69D-01  1.66D+00  6.81D-01  9.25D-01  1.05D+00
                    CP:  1.02D+00  1.20D+00  1.43D+00  1.46D+00  1.39D+00
                    CP:  1.49D+00  1.24D+00
 E= -1456.69388322801     Delta-E=       -0.000000001486 Rises=F Damp=F
 DIIS: error= 3.72D-07 at cycle  13 NSaved=  13.
 NSaved=13 IEnMin=13 EnMin= -1456.69388322801     IErMin=13 ErrMin= 3.72D-07
 ErrMax= 3.72D-07  0.00D+00 EMaxC= 1.00D-01 BMatC= 9.97D-11 BMatP= 3.40D-10
 IDIUse=1 WtCom= 1.00D+00 WtEn= 0.00D+00
 Coeff-Com: -0.151D-06 0.101D-05-0.174D-04-0.733D-04-0.333D-03 0.295D-03
 Coeff-Com:  0.471D-02 0.683D-02-0.185D-01-0.776D-01-0.582D-01 0.378D+00
 Coeff-Com:  0.765D+00
 Coeff:     -0.151D-06 0.101D-05-0.174D-04-0.733D-04-0.333D-03 0.295D-03
 Coeff:      0.471D-02 0.683D-02-0.185D-01-0.776D-01-0.582D-01 0.378D+00
 Coeff:      0.765D+00
 Gap=     0.202 Goal=   None    Shift=    0.000
 RMSDP=2.90D-08 MaxDP=1.57D-06 DE=-1.49D-09 OVMax= 1.60D-05

 Cycle  14  Pass 1  IDiag  1:
 RMSU=  1.20D-08    CP:  7.69D-01  1.66D+00  6.81D-01  9.25D-01  1.05D+00
                    CP:  1.02D+00  1.20D+00  1.43D+00  1.46D+00  1.42D+00
                    CP:  1.57D+00  1.42D+00  1.15D+00
 E= -1456.69388322826     Delta-E=       -0.000000000252 Rises=F Damp=F
 DIIS: error= 1.35D-07 at cycle  14 NSaved=  14.
 NSaved=14 IEnMin=14 EnMin= -1456.69388322826     IErMin=14 ErrMin= 1.35D-07
 ErrMax= 1.35D-07  0.00D+00 EMaxC= 1.00D-01 BMatC= 1.21D-11 BMatP= 9.97D-11
 IDIUse=1 WtCom= 1.00D+00 WtEn= 0.00D+00
 Coeff-Com: -0.445D-05 0.979D-05 0.654D-05-0.293D-04-0.238D-03-0.218D-03
 Coeff-Com:  0.375D-03 0.305D-02 0.330D-02-0.144D-01-0.532D-01-0.232D-01
 Coeff-Com:  0.227D+00 0.858D+00
 Coeff:     -0.445D-05 0.979D-05 0.654D-05-0.293D-04-0.238D-03-0.218D-03
 Coeff:      0.375D-03 0.305D-02 0.330D-02-0.144D-01-0.532D-01-0.232D-01
 Coeff:      0.227D+00 0.858D+00
 Gap=     0.202 Goal=   None    Shift=    0.000
 RMSDP=1.09D-08 MaxDP=6.45D-07 DE=-2.52D-10 OVMax= 6.00D-06

 Cycle  15  Pass 1  IDiag  1:
 RMSU=  4.24D-09    CP:  7.69D-01  1.66D+00  6.81D-01  9.25D-01  1.05D+00
                    CP:  1.02D+00  1.20D+00  1.43D+00  1.46D+00  1.42D+00
                    CP:  1.59D+00  1.49D+00  1.28D+00  1.15D+00
 E= -1456.69388322832     Delta-E=       -0.000000000061 Rises=F Damp=F
 DIIS: error= 4.09D-08 at cycle  15 NSaved=  15.
 NSaved=15 IEnMin=15 EnMin= -1456.69388322832     IErMin=15 ErrMin= 4.09D-08
 ErrMax= 4.09D-08  0.00D+00 EMaxC= 1.00D-01 BMatC= 1.55D-12 BMatP= 1.21D-11
 IDIUse=1 WtCom= 1.00D+00 WtEn= 0.00D+00
 Coeff-Com: -0.146D-05 0.315D-05 0.453D-05-0.331D-05-0.429D-04-0.122D-03
 Coeff-Com: -0.439D-03 0.312D-03 0.361D-02 0.478D-02-0.107D-01-0.574D-01
 Coeff-Com: -0.240D-01 0.299D+00 0.785D+00
 Coeff:     -0.146D-05 0.315D-05 0.453D-05-0.331D-05-0.429D-04-0.122D-03
 Coeff:     -0.439D-03 0.312D-03 0.361D-02 0.478D-02-0.107D-01-0.574D-01
 Coeff:     -0.240D-01 0.299D+00 0.785D+00
 Gap=     0.202 Goal=   None    Shift=    0.000
 RMSDP=3.17D-09 MaxDP=2.74D-07 DE=-6.09D-11 OVMax= 1.16D-06

 Error on total polarization charges =  0.06275
 SCF Done:  E(RCAM-B3LYP) =  -1456.69388323     A.U. after   15 cycles
            NFock= 15  Conv=0.32D-08     -V/T= 2.0049
 KE= 1.449582712844D+03 PE=-9.333001061868D+03 EE= 3.461065216236D+03
 SMD-CDS (non-electrostatic) energy       (kcal/mol) =      -4.29
 (included in total energy above)
 Leave Link  502 at Wed Feb 24 00:50:55 2021, MaxMem=  5242880000 cpu:     28528.1
 (Enter /opt/nce/packages/global/g09/l601.exe)
 Copying SCF densities to generalized density rwf, IOpCl= 0 IROHF=0.

 **********************************************************************

            Population analysis using the SCF density.

 **********************************************************************

 Alpha  occ. eigenvalues --  -24.69692 -24.69688 -24.69455 -19.23583 -14.48666
 Alpha  occ. eigenvalues --  -10.33555 -10.33552 -10.32335 -10.32205 -10.29712
 Alpha  occ. eigenvalues --  -10.29283 -10.29254 -10.29051 -10.27510 -10.27481
 Alpha  occ. eigenvalues --  -10.27122 -10.27052 -10.26827 -10.26715 -10.26679
 Alpha  occ. eigenvalues --  -10.26662 -10.26618 -10.26248 -10.26180 -10.25716
 Alpha  occ. eigenvalues --  -10.25615 -10.25566 -10.24815 -10.24776 -10.24483
 Alpha  occ. eigenvalues --  -10.21752  -6.86533  -1.25196  -1.21086  -1.20837
 Alpha  occ. eigenvalues --   -1.16012  -1.10744  -0.97992  -0.96646  -0.94801
 Alpha  occ. eigenvalues --   -0.93599  -0.90697  -0.86780  -0.85699  -0.85106
 Alpha  occ. eigenvalues --   -0.84359  -0.83099  -0.82241  -0.82058  -0.78076
 Alpha  occ. eigenvalues --   -0.75937  -0.73745  -0.72508  -0.70316  -0.69153
 Alpha  occ. eigenvalues --   -0.68014  -0.67762  -0.65778  -0.64194  -0.63836
 Alpha  occ. eigenvalues --   -0.62462  -0.61160  -0.60209  -0.58781  -0.58015
 Alpha  occ. eigenvalues --   -0.56743  -0.55593  -0.55215  -0.54985  -0.54833
 Alpha  occ. eigenvalues --   -0.54687  -0.54309  -0.52957  -0.52673  -0.52252
 Alpha  occ. eigenvalues --   -0.52144  -0.51553  -0.51301  -0.50541  -0.50485
 Alpha  occ. eigenvalues --   -0.50083  -0.48490  -0.48142  -0.47355  -0.46772
 Alpha  occ. eigenvalues --   -0.46569  -0.46105  -0.45808  -0.45754  -0.44766
 Alpha  occ. eigenvalues --   -0.44157  -0.43944  -0.43633  -0.43526  -0.42923
 Alpha  occ. eigenvalues --   -0.42460  -0.42287  -0.42010  -0.41563  -0.39814
 Alpha  occ. eigenvalues --   -0.39607  -0.39585  -0.38528  -0.34130  -0.33967
 Alpha  occ. eigenvalues --   -0.32354  -0.32241  -0.31108  -0.30415  -0.29008
 Alpha  occ. eigenvalues --   -0.28275
 Alpha virt. eigenvalues --   -0.08097  -0.00655   0.01073   0.01489   0.02647
 Alpha virt. eigenvalues --    0.02998   0.03906   0.04827   0.08239   0.08323
 Alpha virt. eigenvalues --    0.08878   0.09206   0.10152   0.10433   0.11124
 Alpha virt. eigenvalues --    0.11564   0.11777   0.12169   0.12920   0.13023
 Alpha virt. eigenvalues --    0.13405   0.13898   0.14090   0.14569   0.15290
 Alpha virt. eigenvalues --    0.15447   0.15961   0.16089   0.16576   0.16895
 Alpha virt. eigenvalues --    0.17146   0.17636   0.17791   0.18361   0.18809
 Alpha virt. eigenvalues --    0.18983   0.19460   0.20107   0.20717   0.21040
 Alpha virt. eigenvalues --    0.21900   0.22316   0.22619   0.23346   0.23597
 Alpha virt. eigenvalues --    0.23890   0.24280   0.24659   0.25316   0.25519
 Alpha virt. eigenvalues --    0.25557   0.25668   0.26302   0.26773   0.27071
 Alpha virt. eigenvalues --    0.27175   0.27550   0.27734   0.28066   0.28417
 Alpha virt. eigenvalues --    0.28546   0.28895   0.29024   0.29709   0.30248
 Alpha virt. eigenvalues --    0.30637   0.30975   0.31084   0.31540   0.32472
 Alpha virt. eigenvalues --    0.32564   0.32724   0.33159   0.33464   0.33681
 Alpha virt. eigenvalues --    0.33758   0.34020   0.34309   0.34912   0.35088
 Alpha virt. eigenvalues --    0.35598   0.35856   0.36919   0.37181   0.37311
 Alpha virt. eigenvalues --    0.37760   0.37944   0.38502   0.38843   0.39239
 Alpha virt. eigenvalues --    0.39459   0.39568   0.40441   0.40651   0.41065
 Alpha virt. eigenvalues --    0.41139   0.41401   0.41613   0.41724   0.42235
 Alpha virt. eigenvalues --    0.42496   0.42650   0.42966   0.43393   0.43651
 Alpha virt. eigenvalues --    0.44035   0.44746   0.45121   0.45657   0.45834
 Alpha virt. eigenvalues --    0.46021   0.46237   0.46767   0.46861   0.47314
 Alpha virt. eigenvalues --    0.47502   0.47859   0.48244   0.48378   0.48751
 Alpha virt. eigenvalues --    0.48950   0.49128   0.49427   0.49722   0.49793
 Alpha virt. eigenvalues --    0.50170   0.50680   0.50757   0.51164   0.51552
 Alpha virt. eigenvalues --    0.51863   0.52183   0.52501   0.52857   0.53336
 Alpha virt. eigenvalues --    0.53509   0.53959   0.54096   0.54249   0.54510
 Alpha virt. eigenvalues --    0.55041   0.55227   0.55404   0.56054   0.56080
 Alpha virt. eigenvalues --    0.57478   0.58117   0.58686   0.59203   0.59546
 Alpha virt. eigenvalues --    0.59934   0.61101   0.61535   0.62175   0.62412
 Alpha virt. eigenvalues --    0.63451   0.63847   0.64160   0.64706   0.65133
 Alpha virt. eigenvalues --    0.65316   0.65732   0.66341   0.66884   0.66955
 Alpha virt. eigenvalues --    0.67471   0.67739   0.68174   0.69147   0.69324
 Alpha virt. eigenvalues --    0.69482   0.70248   0.70587   0.70839   0.71046
 Alpha virt. eigenvalues --    0.71246   0.71311   0.72048   0.72144   0.72356
 Alpha virt. eigenvalues --    0.72909   0.73181   0.73607   0.73873   0.74206
 Alpha virt. eigenvalues --    0.74492   0.74890   0.75074   0.75612   0.75932
 Alpha virt. eigenvalues --    0.76236   0.76493   0.76755   0.77310   0.77911
 Alpha virt. eigenvalues --    0.77984   0.78582   0.78800   0.78897   0.79292
 Alpha virt. eigenvalues --    0.79636   0.80071   0.80453   0.80618   0.81067
 Alpha virt. eigenvalues --    0.81373   0.81994   0.82454   0.82805   0.83051
 Alpha virt. eigenvalues --    0.83394   0.84202   0.84267   0.84549   0.85679
 Alpha virt. eigenvalues --    0.85890   0.86483   0.86536   0.86985   0.87723
 Alpha virt. eigenvalues --    0.88163   0.88781   0.88930   0.89542   0.90277
 Alpha virt. eigenvalues --    0.90732   0.90876   0.91279   0.91816   0.91915
 Alpha virt. eigenvalues --    0.92616   0.92955   0.93339   0.93785   0.94374
 Alpha virt. eigenvalues --    0.95049   0.95264   0.96580   0.97088   0.97424
 Alpha virt. eigenvalues --    0.98113   0.98515   0.99134   0.99520   1.00354
 Alpha virt. eigenvalues --    1.00872   1.01217   1.01702   1.02455   1.02831
 Alpha virt. eigenvalues --    1.03601   1.04571   1.04912   1.05486   1.06202
 Alpha virt. eigenvalues --    1.06683   1.07722   1.08501   1.09215   1.09552
 Alpha virt. eigenvalues --    1.09934   1.10580   1.10914   1.11892   1.12700
 Alpha virt. eigenvalues --    1.13156   1.13365   1.13941   1.14361   1.15035
 Alpha virt. eigenvalues --    1.15380   1.15680   1.16480   1.16962   1.17854
 Alpha virt. eigenvalues --    1.18273   1.19204   1.19459   1.20032   1.21877
 Alpha virt. eigenvalues --    1.21994   1.22642   1.23014   1.24211   1.24617
 Alpha virt. eigenvalues --    1.25105   1.25657   1.26344   1.27274   1.27447
 Alpha virt. eigenvalues --    1.27999   1.28522   1.29286   1.29511   1.29789
 Alpha virt. eigenvalues --    1.30362   1.30688   1.31305   1.31700   1.32324
 Alpha virt. eigenvalues --    1.32606   1.33715   1.34099   1.34332   1.35010
 Alpha virt. eigenvalues --    1.35830   1.36108   1.36311   1.36617   1.36747
 Alpha virt. eigenvalues --    1.37415   1.38362   1.39036   1.39293   1.39999
 Alpha virt. eigenvalues --    1.40400   1.41856   1.42760   1.43078   1.43393
 Alpha virt. eigenvalues --    1.44707   1.45171   1.47062   1.47310   1.47908
 Alpha virt. eigenvalues --    1.48169   1.48547   1.49029   1.49436   1.49899
 Alpha virt. eigenvalues --    1.50297   1.51097   1.52567   1.52877   1.53555
 Alpha virt. eigenvalues --    1.54027   1.54573   1.54629   1.54950   1.55893
 Alpha virt. eigenvalues --    1.56562   1.56727   1.57338   1.57990   1.58590
 Alpha virt. eigenvalues --    1.58874   1.59622   1.59844   1.59975   1.60429
 Alpha virt. eigenvalues --    1.60712   1.61045   1.61910   1.62212   1.62763
 Alpha virt. eigenvalues --    1.63130   1.63894   1.64506   1.64603   1.65225
 Alpha virt. eigenvalues --    1.65457   1.65877   1.67023   1.67572   1.67947
 Alpha virt. eigenvalues --    1.68622   1.69077   1.70003   1.70512   1.71010
 Alpha virt. eigenvalues --    1.71404   1.72040   1.72753   1.73297   1.73556
 Alpha virt. eigenvalues --    1.74030   1.74738   1.74852   1.75334   1.75554
 Alpha virt. eigenvalues --    1.75768   1.76718   1.77320   1.77913   1.78464
 Alpha virt. eigenvalues --    1.79236   1.79828   1.80825   1.81262   1.81551
 Alpha virt. eigenvalues --    1.81879   1.82188   1.82847   1.83567   1.84011
 Alpha virt. eigenvalues --    1.84454   1.84725   1.85643   1.86540   1.87850
 Alpha virt. eigenvalues --    1.89597   1.89736   1.90563   1.90664   1.90970
 Alpha virt. eigenvalues --    1.91599   1.92191   1.92773   1.93642   1.94345
 Alpha virt. eigenvalues --    1.94841   1.95335   1.95644   1.95773   1.96601
 Alpha virt. eigenvalues --    1.97866   1.98453   1.98980   2.00166   2.00848
 Alpha virt. eigenvalues --    2.01515   2.01840   2.02136   2.02701   2.04101
 Alpha virt. eigenvalues --    2.04183   2.05753   2.06113   2.06568   2.06993
 Alpha virt. eigenvalues --    2.07907   2.08633   2.09230   2.10517   2.11124
 Alpha virt. eigenvalues --    2.12237   2.12530   2.12964   2.13709   2.14074
 Alpha virt. eigenvalues --    2.14393   2.14570   2.15654   2.16988   2.17082
 Alpha virt. eigenvalues --    2.17480   2.18193   2.18908   2.19412   2.20137
 Alpha virt. eigenvalues --    2.21068   2.22156   2.22404   2.22779   2.23145
 Alpha virt. eigenvalues --    2.23690   2.23988   2.24260   2.24446   2.25852
 Alpha virt. eigenvalues --    2.26831   2.27999   2.28381   2.28837   2.28870
 Alpha virt. eigenvalues --    2.29614   2.29824   2.31194   2.31653   2.32369
 Alpha virt. eigenvalues --    2.32699   2.33629   2.34424   2.34643   2.34986
 Alpha virt. eigenvalues --    2.35962   2.37193   2.37381   2.38117   2.38831
 Alpha virt. eigenvalues --    2.39732   2.40960   2.41115   2.41336   2.43594
 Alpha virt. eigenvalues --    2.44868   2.45065   2.45778   2.46539   2.46887
 Alpha virt. eigenvalues --    2.47419   2.48573   2.49500   2.50105   2.51771
 Alpha virt. eigenvalues --    2.52344   2.53687   2.54401   2.54582   2.55771
 Alpha virt. eigenvalues --    2.56145   2.57467   2.57821   2.58303   2.60018
 Alpha virt. eigenvalues --    2.60114   2.60567   2.61106   2.61160   2.61384
 Alpha virt. eigenvalues --    2.62485   2.62761   2.62921   2.64318   2.65157
 Alpha virt. eigenvalues --    2.65820   2.66182   2.66780   2.67022   2.67428
 Alpha virt. eigenvalues --    2.68064   2.68632   2.68854   2.69461   2.69994
 Alpha virt. eigenvalues --    2.70133   2.70850   2.71100   2.71867   2.72849
 Alpha virt. eigenvalues --    2.73195   2.73248   2.73797   2.74218   2.74438
 Alpha virt. eigenvalues --    2.74692   2.75313   2.75928   2.76223   2.76524
 Alpha virt. eigenvalues --    2.77021   2.77124   2.77345   2.78152   2.78243
 Alpha virt. eigenvalues --    2.78957   2.79474   2.79659   2.79732   2.80750
 Alpha virt. eigenvalues --    2.81302   2.81828   2.82194   2.82793   2.83391
 Alpha virt. eigenvalues --    2.83505   2.83936   2.84504   2.84962   2.85179
 Alpha virt. eigenvalues --    2.85832   2.86227   2.86711   2.87130   2.87898
 Alpha virt. eigenvalues --    2.88318   2.88624   2.89177   2.89400   2.89624
 Alpha virt. eigenvalues --    2.89962   2.90510   2.90915   2.91705   2.92196
 Alpha virt. eigenvalues --    2.92315   2.92988   2.93649   2.94029   2.94705
 Alpha virt. eigenvalues --    2.94905   2.95501   2.95999   2.96167   2.96702
 Alpha virt. eigenvalues --    2.97429   2.97709   2.98194   2.98474   2.98636
 Alpha virt. eigenvalues --    2.99685   3.00048   3.00605   3.01636   3.01926
 Alpha virt. eigenvalues --    3.02653   3.03207   3.03738   3.04236   3.05242
 Alpha virt. eigenvalues --    3.05516   3.06046   3.06596   3.06875   3.07868
 Alpha virt. eigenvalues --    3.07941   3.09262   3.09596   3.09789   3.09880
 Alpha virt. eigenvalues --    3.10320   3.11141   3.11469   3.12563   3.13150
 Alpha virt. eigenvalues --    3.13222   3.13427   3.14049   3.15220   3.16372
 Alpha virt. eigenvalues --    3.16801   3.17235   3.17644   3.18311   3.18517
 Alpha virt. eigenvalues --    3.18981   3.19959   3.20405   3.20954   3.21122
 Alpha virt. eigenvalues --    3.21669   3.21790   3.22506   3.22695   3.22855
 Alpha virt. eigenvalues --    3.23465   3.23897   3.24890   3.25210   3.25340
 Alpha virt. eigenvalues --    3.25969   3.26787   3.27247   3.27583   3.27839
 Alpha virt. eigenvalues --    3.28146   3.28828   3.29215   3.29730   3.30311
 Alpha virt. eigenvalues --    3.31173   3.31596   3.31963   3.32745   3.33498
 Alpha virt. eigenvalues --    3.33804   3.34893   3.35385   3.35581   3.36059
 Alpha virt. eigenvalues --    3.36500   3.36686   3.36899   3.37601   3.38340
 Alpha virt. eigenvalues --    3.38575   3.38926   3.39171   3.39535   3.40435
 Alpha virt. eigenvalues --    3.41082   3.41281   3.41722   3.41952   3.42446
 Alpha virt. eigenvalues --    3.42967   3.43087   3.43698   3.44273   3.45062
 Alpha virt. eigenvalues --    3.45187   3.45281   3.45590   3.47149   3.47322
 Alpha virt. eigenvalues --    3.47647   3.47899   3.48421   3.49202   3.49494
 Alpha virt. eigenvalues --    3.50074   3.50520   3.50832   3.51521   3.52168
 Alpha virt. eigenvalues --    3.52291   3.52478   3.53166   3.53612   3.53959
 Alpha virt. eigenvalues --    3.54409   3.55118   3.55407   3.55902   3.56188
 Alpha virt. eigenvalues --    3.56677   3.57409   3.57676   3.58065   3.58653
 Alpha virt. eigenvalues --    3.59097   3.59327   3.59811   3.60032   3.60679
 Alpha virt. eigenvalues --    3.60914   3.61390   3.61655   3.61939   3.62265
 Alpha virt. eigenvalues --    3.63367   3.63890   3.64562   3.65275   3.65543
 Alpha virt. eigenvalues --    3.65872   3.66363   3.66780   3.66954   3.67665
 Alpha virt. eigenvalues --    3.67935   3.69278   3.69980   3.71285   3.72085
 Alpha virt. eigenvalues --    3.72505   3.73066   3.73541   3.74169   3.76435
 Alpha virt. eigenvalues --    3.76896   3.77855   3.77976   3.78769   3.80168
 Alpha virt. eigenvalues --    3.80939   3.81418   3.82582   3.82821   3.84013
 Alpha virt. eigenvalues --    3.84913   3.85911   3.87075   3.87727   3.89446
 Alpha virt. eigenvalues --    3.89659   3.90842   3.91921   3.92073   3.93569
 Alpha virt. eigenvalues --    3.94945   3.95181   3.96725   3.97119   3.97994
 Alpha virt. eigenvalues --    3.98475   4.01072   4.01527   4.02748   4.02798
 Alpha virt. eigenvalues --    4.03880   4.05365   4.05541   4.06127   4.06811
 Alpha virt. eigenvalues --    4.07428   4.07606   4.10144   4.10292   4.11673
 Alpha virt. eigenvalues --    4.11922   4.12704   4.13412   4.13719   4.14764
 Alpha virt. eigenvalues --    4.15100   4.15425   4.17177   4.17893   4.18916
 Alpha virt. eigenvalues --    4.19543   4.20339   4.20571   4.21147   4.21766
 Alpha virt. eigenvalues --    4.22051   4.22917   4.23494   4.24350   4.24675
 Alpha virt. eigenvalues --    4.26104   4.26391   4.27655   4.28091   4.28188
 Alpha virt. eigenvalues --    4.29080   4.29461   4.29727   4.29939   4.30314
 Alpha virt. eigenvalues --    4.30619   4.31044   4.32157   4.33030   4.33223
 Alpha virt. eigenvalues --    4.34041   4.35022   4.35294   4.36661   4.37828
 Alpha virt. eigenvalues --    4.38684   4.40042   4.40145   4.40641   4.41936
 Alpha virt. eigenvalues --    4.42704   4.43571   4.43870   4.46461   4.47404
 Alpha virt. eigenvalues --    4.48770   4.49659   4.50048   4.50330   4.53273
 Alpha virt. eigenvalues --    4.53637   4.54729   4.56436   4.57795   4.58552
 Alpha virt. eigenvalues --    4.59764   4.61792   4.63332   4.64247   4.64593
 Alpha virt. eigenvalues --    4.66021   4.67777   4.68468   4.69215   4.70320
 Alpha virt. eigenvalues --    4.71929   4.72247   4.73523   4.74098   4.78894
 Alpha virt. eigenvalues --    4.79137   4.80758   4.82212   4.84249   4.84705
 Alpha virt. eigenvalues --    4.87015   4.89554   4.90369   4.90709   4.92505
 Alpha virt. eigenvalues --    4.92891   4.93684   4.94385   4.98234   5.01128
 Alpha virt. eigenvalues --    5.01454   5.02818   5.03583   5.05645   5.08262
 Alpha virt. eigenvalues --    5.09132   5.11063   5.12264   5.13461   5.16884
 Alpha virt. eigenvalues --    5.17913   5.19193   5.21353   5.23572   5.25347
 Alpha virt. eigenvalues --    5.26143   5.29578   5.31195   5.32038   5.32569
 Alpha virt. eigenvalues --    5.33981   5.34309   5.39752   5.41647   5.42285
 Alpha virt. eigenvalues --    5.42361   5.46408   5.48096   5.53490   5.54899
 Alpha virt. eigenvalues --    5.55418   5.57086   5.60238   5.61079   5.62092
 Alpha virt. eigenvalues --    5.65147   5.70451   5.75497   5.77809   5.83017
 Alpha virt. eigenvalues --    5.84275   5.84962   5.87200   5.89457   5.99993
 Alpha virt. eigenvalues --    6.07715   6.08611   6.16297   6.29905   6.43254
 Alpha virt. eigenvalues --    6.48865   6.61935   6.70315   6.84984   6.93241
 Alpha virt. eigenvalues --    6.95008   6.97990   6.98190   6.98411   6.98752
 Alpha virt. eigenvalues --    6.98839   6.99193   6.99601   7.00197   7.09005
 Alpha virt. eigenvalues --    7.13027   7.14040   7.15800   7.16912   7.17422
 Alpha virt. eigenvalues --    7.24022   7.33054   7.34736   7.35148   7.37582
 Alpha virt. eigenvalues --    7.47562   7.47845   7.48579   8.42034   8.45556
 Alpha virt. eigenvalues --    8.45927   8.58605   8.59302   8.64013   8.89665
 Alpha virt. eigenvalues --    8.90850   8.92430   8.93085   8.97214   8.97645
 Alpha virt. eigenvalues --    8.98219   9.02849   9.05127  15.71672  22.25836
 Alpha virt. eigenvalues --   22.37724  22.39957  22.47229  22.50486  22.65105
 Alpha virt. eigenvalues --   22.66714  22.68103  22.68524  22.70426  22.72492
 Alpha virt. eigenvalues --   22.74892  22.77095  22.81120  22.83546  22.86946
 Alpha virt. eigenvalues --   22.93813  22.97230  22.99743  23.05791  23.11972
 Alpha virt. eigenvalues --   23.18405  23.31642  23.36154  23.41491  23.73125
 Alpha virt. eigenvalues --   33.35554  44.25824  57.08254  57.14815  57.21022
          Condensed to atoms (all electrons):
 Mulliken charges:
               1
     1  C   -0.132612
     2  C   -0.189931
     3  C    0.113151
     4  C    0.084115
     5  C   -0.230827
     6  C   -0.163162
     7  C    0.265908
     8  C    0.074695
     9  C    0.114599
    10  C   -0.193042
    11  H    0.202909
    12  C   -0.129125
    13  C   -0.164540
    14  C   -0.226016
    15  H    0.184153
    16  H    0.203114
    17  H    0.221831
    18  H    0.178606
    19  H    0.184512
    20  H    0.178719
    21  H    0.215608
    22  N    0.140218
    23  C    0.055834
    24  C   -0.384121
    25  C   -0.291606
    26  C   -0.023167
    27  C   -0.155754
    28  C   -0.224671
    29  H    0.162630
    30  H    0.188577
    31  C   -0.058378
    32  C   -0.207072
    33  C   -0.185692
    34  C   -0.227423
    35  H    0.177685
    36  C   -0.190631
    37  H    0.173323
    38  C    0.315991
    39  H    0.184363
    40  H    0.163125
    41  O   -0.269356
    42  C   -0.254653
    43  H    0.164961
    44  H    0.152475
    45  H    0.152635
[...]
 Alpha virt. eigenvalues --    0.60345   0.61299   0.61647   0.62308   0.63354
 Alpha virt. eigenvalues --    0.63404   0.64312   0.64687   0.64992   0.65658
 Alpha virt. eigenvalues --    0.65755   0.66291   0.66627   0.66914   0.68009
 Alpha virt. eigenvalues --    0.68166   0.68513   0.68967   0.69510   0.69922
 Alpha virt. eigenvalues --    0.70185   0.70457   0.70899   0.71184   0.71615
 Alpha virt. eigenvalues --    0.71677   0.71974   0.72326   0.72579   0.72821
 Alpha virt. eigenvalues --    0.73383   0.74102   0.74353   0.74515   0.74991
 Alpha virt. eigenvalues --    0.75114   0.75327   0.75582   0.76123   0.76284
 Alpha virt. eigenvalues --    0.76698   0.76946   0.77627   0.77994   0.78707
 Alpha virt. eigenvalues --    0.78758   0.79017   0.79303   0.79579   0.80134
 Alpha virt. eigenvalues --    0.80564   0.80775   0.80922   0.81075   0.81397
 Alpha virt. eigenvalues --    0.81659   0.82358   0.83076   0.83203   0.83378
 Alpha virt. eigenvalues --    0.83862   0.84708   0.84936   0.85657   0.85974
 Alpha virt. eigenvalues --    0.86649   0.86914   0.87259   0.88213   0.88568
 Alpha virt. eigenvalues --    0.88703   0.88733   0.89473   0.90257   0.90533
 Alpha virt. eigenvalues --    0.90743   0.90956   0.91423   0.92152   0.92630
 Alpha virt. eigenvalues --    0.93176   0.93546   0.93893   0.94189   0.94649
 Alpha virt. eigenvalues --    0.94828   0.95272   0.96401   0.97013   0.98417
 Alpha virt. eigenvalues --    0.98680   0.98898   0.99370   1.00234   1.00447
 Alpha virt. eigenvalues --    1.01252   1.01531   1.01876   1.02426   1.03296
 Alpha virt. eigenvalues --    1.04010   1.04754   1.05302   1.06097   1.06674
 Alpha virt. eigenvalues --    1.07244   1.08398   1.09032   1.09674   1.10153
 Alpha virt. eigenvalues --    1.10522   1.11099   1.11346   1.12734   1.13503
 Alpha virt. eigenvalues --    1.13644   1.14138   1.14540   1.14573   1.15125
 Alpha virt. eigenvalues --    1.15975   1.16312   1.16774   1.17127   1.18348
 Alpha virt. eigenvalues --    1.19424   1.19732   1.21006   1.22006   1.22279
 Alpha virt. eigenvalues --    1.22581   1.23092   1.23374   1.24189   1.24743
 Alpha virt. eigenvalues --    1.25660   1.25993   1.27044   1.28138   1.28451
 Alpha virt. eigenvalues --    1.28754   1.28883   1.30029   1.30091   1.30588
 Alpha virt. eigenvalues --    1.31098   1.31560   1.31957   1.32618   1.33022
 Alpha virt. eigenvalues --    1.33430   1.34041   1.34604   1.35252   1.36229
 Alpha virt. eigenvalues --    1.36403   1.36821   1.36986   1.37791   1.38169
 Alpha virt. eigenvalues --    1.38513   1.39488   1.40135   1.40867   1.41833
 Alpha virt. eigenvalues --    1.42254   1.42849   1.43556   1.43852   1.45006
 Alpha virt. eigenvalues --    1.45338   1.46252   1.46825   1.47712   1.48848
 Alpha virt. eigenvalues --    1.48975   1.49119   1.49742   1.50127   1.50223
 Alpha virt. eigenvalues --    1.50975   1.51510   1.52989   1.53865   1.54688
 Alpha virt. eigenvalues --    1.55039   1.55518   1.55965   1.56218   1.56822
 Alpha virt. eigenvalues --    1.57388   1.57909   1.58544   1.58722   1.59493
 Alpha virt. eigenvalues --    1.59905   1.60034   1.60561   1.60807   1.61269
 Alpha virt. eigenvalues --    1.61632   1.62180   1.63135   1.63389   1.63870
 Alpha virt. eigenvalues --    1.63971   1.64505   1.64963   1.65180   1.65511
 Alpha virt. eigenvalues --    1.65818   1.67007   1.67354   1.67995   1.69166
 Alpha virt. eigenvalues --    1.69383   1.69773   1.70607   1.70999   1.71189
 Alpha virt. eigenvalues --    1.72044   1.72530   1.73410   1.73767   1.73852
 Alpha virt. eigenvalues --    1.74474   1.75220   1.75669   1.76189   1.76431
 Alpha virt. eigenvalues --    1.76702   1.77534   1.77595   1.78489   1.79464
 Alpha virt. eigenvalues --    1.79777   1.80510   1.81631   1.81782   1.82096
 Alpha virt. eigenvalues --    1.82644   1.82723   1.83490   1.83985   1.85069
 Alpha virt. eigenvalues --    1.85305   1.85521   1.86041   1.87305   1.87814
 Alpha virt. eigenvalues --    1.88838   1.90015   1.90515   1.91820   1.92033
 Alpha virt. eigenvalues --    1.92244   1.93066   1.94145   1.94627   1.94961
 Alpha virt. eigenvalues --    1.95802   1.96185   1.96590   1.96843   1.96940
 Alpha virt. eigenvalues --    1.97639   1.99824   2.00008   2.01154   2.01523
 Alpha virt. eigenvalues --    2.01960   2.02295   2.03245   2.03836   2.04767
 Alpha virt. eigenvalues --    2.05655   2.06365   2.06835   2.07776   2.08266
 Alpha virt. eigenvalues --    2.09445   2.09927   2.10779   2.11639   2.12273
 Alpha virt. eigenvalues --    2.12596   2.12786   2.13200   2.13945   2.14877
 Alpha virt. eigenvalues --    2.15392   2.16384   2.16645   2.17192   2.18060
 Alpha virt. eigenvalues --    2.18601   2.19270   2.19964   2.20267   2.20415
 Alpha virt. eigenvalues --    2.21944   2.22637   2.22978   2.23150   2.23480
 Alpha virt. eigenvalues --    2.24508   2.25140   2.25753   2.26058   2.27635
 Alpha virt. eigenvalues --    2.28946   2.29347   2.29642   2.29910   2.30802
 Alpha virt. eigenvalues --    2.31205   2.31898   2.32497   2.32933   2.33399
 Alpha virt. eigenvalues --    2.34459   2.35133   2.35596   2.36088   2.36840
 Alpha virt. eigenvalues --    2.37566   2.37852   2.38497   2.39262   2.39790
 Alpha virt. eigenvalues --    2.40917   2.41454   2.42614   2.43215   2.45105
 Alpha virt. eigenvalues --    2.45863   2.46157   2.46672   2.47684   2.47921
 Alpha virt. eigenvalues --    2.48652   2.50191   2.50623   2.51067   2.52076
 Alpha virt. eigenvalues --    2.53170   2.54756   2.55553   2.55886   2.56650
 Alpha virt. eigenvalues --    2.57544   2.58323   2.58865   2.59497   2.60659
 Alpha virt. eigenvalues --    2.60950   2.61229   2.62196   2.62332   2.63162
 Alpha virt. eigenvalues --    2.63674   2.64016   2.64315   2.65084   2.65959
 Alpha virt. eigenvalues --    2.66526   2.67677   2.68186   2.68680   2.68774
 Alpha virt. eigenvalues --    2.69229   2.69599   2.69859   2.70352   2.70607
 Alpha virt. eigenvalues --    2.71686   2.72293   2.72511   2.72813   2.73510
 Alpha virt. eigenvalues --    2.74006   2.74235   2.74438   2.75034   2.75975
 Alpha virt. eigenvalues --    2.76734   2.76851   2.77480   2.77676   2.77953
 Alpha virt. eigenvalues --    2.78231   2.78615   2.79161   2.79328   2.79698
 Alpha virt. eigenvalues --    2.80012   2.80295   2.80667   2.81500   2.81914
 Alpha virt. eigenvalues --    2.82032   2.82772   2.83339   2.83538   2.83976
 Alpha virt. eigenvalues --    2.84688   2.84881   2.85409   2.85728   2.85938
 Alpha virt. eigenvalues --    2.86645   2.87267   2.87783   2.88082   2.88816
 Alpha virt. eigenvalues --    2.88897   2.89564   2.90201   2.90604   2.90978
 Alpha virt. eigenvalues --    2.91449   2.91773   2.92067   2.92754   2.93167
 Alpha virt. eigenvalues --    2.93572   2.93670   2.94481   2.94996   2.95700
 Alpha virt. eigenvalues --    2.95928   2.96321   2.96980   2.97434   2.98322
 Alpha virt. eigenvalues --    2.98486   2.98916   2.99210   3.00080   3.00369
 Alpha virt. eigenvalues --    3.01030   3.01251   3.01765   3.02163   3.02490
 Alpha virt. eigenvalues --    3.03386   3.04025   3.04439   3.05026   3.05436
 Alpha virt. eigenvalues --    3.05909   3.06547   3.07063   3.07879   3.08545
 Alpha virt. eigenvalues --    3.09350   3.09666   3.10528   3.10905   3.11418
 Alpha virt. eigenvalues --    3.11842   3.11922   3.12551   3.13413   3.13795
 Alpha virt. eigenvalues --    3.14057   3.15045   3.15876   3.16719   3.17260
 Alpha virt. eigenvalues --    3.17638   3.18363   3.18598   3.18802   3.19587
 Alpha virt. eigenvalues --    3.19665   3.20276   3.20589   3.20995   3.21791
 Alpha virt. eigenvalues --    3.22159   3.22945   3.23128   3.23298   3.23883
 Alpha virt. eigenvalues --    3.24387   3.25353   3.26212   3.26476   3.26666
 Alpha virt. eigenvalues --    3.26927   3.27607   3.27983   3.29059   3.29279
 Alpha virt. eigenvalues --    3.29513   3.30044   3.30952   3.31436   3.31656
 Alpha virt. eigenvalues --    3.31979   3.32790   3.32872   3.33963   3.34631
 Alpha virt. eigenvalues --    3.34852   3.35167   3.36094   3.36827   3.37221
 Alpha virt. eigenvalues --    3.37368   3.37792   3.38250   3.38824   3.39226
 Alpha virt. eigenvalues --    3.39760   3.40061   3.40918   3.41172   3.41602
 Alpha virt. eigenvalues --    3.41868   3.42409   3.43220   3.43711   3.43985
 Alpha virt. eigenvalues --    3.44468   3.44984   3.45276   3.45543   3.45976
 Alpha virt. eigenvalues --    3.46722   3.46963   3.47102   3.47727   3.48481
 Alpha virt. eigenvalues --    3.48960   3.49139   3.49844   3.50210   3.50920
 Alpha virt. eigenvalues --    3.51431   3.52101   3.52320   3.53079   3.53324
 Alpha virt. eigenvalues --    3.53488   3.53903   3.54405   3.54502   3.54960
 Alpha virt. eigenvalues --    3.55325   3.56065   3.56619   3.56856   3.57545
 Alpha virt. eigenvalues --    3.57966   3.58344   3.59192   3.59606   3.60234
 Alpha virt. eigenvalues --    3.60455   3.60681   3.60813   3.61160   3.61546
 Alpha virt. eigenvalues --    3.61995   3.62338   3.62812   3.63435   3.63591
 Alpha virt. eigenvalues --    3.64607   3.64924   3.65798   3.66296   3.66847
 Alpha virt. eigenvalues --    3.67306   3.67518   3.67980   3.68974   3.69787
 Alpha virt. eigenvalues --    3.70101   3.70708   3.72334   3.73159   3.73696
 Alpha virt. eigenvalues --    3.74148   3.74308   3.75324   3.75816   3.77211
 Alpha virt. eigenvalues --    3.77679   3.79144   3.79686   3.80580   3.81587
 Alpha virt. eigenvalues --    3.82505   3.82718   3.83428   3.85245   3.85553
 Alpha virt. eigenvalues --    3.87731   3.88110   3.88481   3.89424   3.90760
 Alpha virt. eigenvalues --    3.91461   3.92285   3.93403   3.95199   3.96490
 Alpha virt. eigenvalues --    3.96835   3.97542   3.98023   3.99597   4.00780
 Alpha virt. eigenvalues --    4.01256   4.03205   4.03262   4.04520   4.05031
 Alpha virt. eigenvalues --    4.05612   4.07611   4.08241   4.08864   4.09415
 Alpha virt. eigenvalues --    4.09912   4.10421   4.10825   4.11773   4.12619
 Alpha virt. eigenvalues --    4.13793   4.14888   4.15794   4.16172   4.17241
 Alpha virt. eigenvalues --    4.17669   4.18046   4.18943   4.19782   4.20424
 Alpha virt. eigenvalues --    4.22720   4.23086   4.23240   4.23801   4.24209
 Alpha virt. eigenvalues --    4.24599   4.25148   4.26424   4.27231   4.27784
 Alpha virt. eigenvalues --    4.28616   4.29941   4.30413   4.30705   4.31444
 Alpha virt. eigenvalues --    4.31647   4.31875   4.32588   4.33028   4.33136
 Alpha virt. eigenvalues --    4.34044   4.34513   4.34668   4.35287   4.36192
 Alpha virt. eigenvalues --    4.37004   4.37908   4.38734   4.39310   4.39957
 Alpha virt. eigenvalues --    4.40877   4.42530   4.42629   4.43166   4.44238
 Alpha virt. eigenvalues --    4.46430   4.46906   4.47632   4.49276   4.50080
 Alpha virt. eigenvalues --    4.52542   4.53078   4.53297   4.54319   4.55650
 Alpha virt. eigenvalues --    4.56352   4.57169   4.59036   4.61387   4.62441
 Alpha virt. eigenvalues --    4.63739   4.64964   4.65704   4.67791   4.68429
 Alpha virt. eigenvalues --    4.69889   4.70721   4.71492   4.72199   4.72281
 Alpha virt. eigenvalues --    4.74745   4.75687   4.76618   4.76996   4.80641
 Alpha virt. eigenvalues --    4.81994   4.83127   4.86410   4.88062   4.88503
 Alpha virt. eigenvalues --    4.88855   4.91778   4.92500   4.92957   4.95375
 Alpha virt. eigenvalues --    4.96304   4.97084   4.97592   5.00172   5.02474
 Alpha virt. eigenvalues --    5.03555   5.04790   5.05348   5.07912   5.10614
 Alpha virt. eigenvalues --    5.11276   5.14254   5.14625   5.15263   5.23085
 Alpha virt. eigenvalues --    5.23466   5.23817   5.25512   5.27621   5.28455
 Alpha virt. eigenvalues --    5.29506   5.32219   5.34787   5.36361   5.37683
 Alpha virt. eigenvalues --    5.39338   5.39440   5.41984   5.42567   5.42804
 Alpha virt. eigenvalues --    5.46380   5.49570   5.51620   5.53065   5.54977
 Alpha virt. eigenvalues --    5.58331   5.60833   5.61873   5.62834   5.66029
 Alpha virt. eigenvalues --    5.68629   5.73964   5.79077   5.81524   5.83327
 Alpha virt. eigenvalues --    5.86820   5.88325   5.90193   5.94864   5.99420
 Alpha virt. eigenvalues --    6.08364   6.13718   6.18558   6.33750   6.44347
 Alpha virt. eigenvalues --    6.55730   6.63159   6.71008   6.85948   6.93025
 Alpha virt. eigenvalues --    6.95588   6.98410   6.98795   6.98853   6.99074
 Alpha virt. eigenvalues --    6.99118   6.99539   6.99688   7.00546   7.09612
 Alpha virt. eigenvalues --    7.11000   7.12335   7.16400   7.17913   7.18292
 Alpha virt. eigenvalues --    7.24582   7.30876   7.34726   7.35311   7.38373
 Alpha virt. eigenvalues --    7.47360   7.48668   7.49464   8.43479   8.45224
 Alpha virt. eigenvalues --    8.45587   8.59127   8.59912   8.65775   8.85665
 Alpha virt. eigenvalues --    8.87427   8.89216   8.93077   8.96048   8.97785
 Alpha virt. eigenvalues --    8.99063   9.05175   9.06993  15.65715  22.31869
 Alpha virt. eigenvalues --   22.37547  22.43255  22.50092  22.56597  22.71299
 Alpha virt. eigenvalues --   22.71649  22.73724  22.75544  22.79690  22.81648
 Alpha virt. eigenvalues --   22.81862  22.84698  22.87290  22.91407  22.91824
 Alpha virt. eigenvalues --   23.02477  23.04445  23.08853  23.12396  23.20753
 Alpha virt. eigenvalues --   23.29997  23.41332  23.44518  23.51479  23.84772
 Alpha virt. eigenvalues --   33.38910  44.25872  57.05723  57.14291  57.19635
          Condensed to atoms (all electrons):
 Mulliken charges:
               1
     1  C   -0.123786
     2  C   -0.189844
     3  C    0.112998
     4  C    0.103139
     5  C   -0.204924
     6  C   -0.161306
     7  C    0.250466
     8  C    0.106439
     9  C    0.110354
    10  C   -0.189721
    11  H    0.199838
    12  C   -0.123568
    13  C   -0.160142
    14  C   -0.211592
    15  H    0.182374
    16  H    0.199977
    17  H    0.203395
    18  H    0.176774
    19  H    0.182380
    20  H    0.176815
    21  H    0.203437
    22  N    0.157684
    23  C   -0.080814
    24  C   -0.304841
    25  C   -0.216787
    26  C   -0.005391
    27  C   -0.166962
    28  C   -0.214235
    29  H    0.159664
    30  H    0.167374
    31  C   -0.047754
    32  C   -0.211540
    33  C   -0.189880
    34  C   -0.222145
    35  H    0.175595
    36  C   -0.188862
    37  H    0.171313
    38  C    0.325672
    39  H    0.182489
    40  H    0.161095
    41  O   -0.274325
    42  C   -0.251938
    43  H    0.164069
    44  H    0.153484
    45  H    0.153237
    46  H    0.155515
    47  H    0.151559
    48  B    0.541727
    49  F   -0.431230
    50  F   -0.428478
    51  F   -0.428799
 Sum of Mulliken charges =  -0.00000
 Mulliken charges with hydrogens summed into heavy atoms:
               1
     1  C    0.058588
     2  C    0.010133
     3  C    0.112998
     4  C    0.103139
     5  C   -0.001529
     6  C    0.015468
     7  C    0.250466
     8  C    0.106439
     9  C    0.110354
    10  C    0.010117
    12  C    0.058812
    13  C    0.016674
    14  C   -0.008155
    22  N    0.157684
    23  C   -0.080814
    24  C   -0.149326
    25  C   -0.049413
    26  C   -0.005391
    27  C   -0.007297
    28  C   -0.062676
    31  C   -0.047754
    32  C   -0.035945
    33  C   -0.018567
    34  C   -0.039656
    36  C   -0.027767
    38  C    0.325672
    41  O   -0.274325
    42  C    0.218852
    48  B    0.541727
    49  F   -0.431230
    50  F   -0.428478
    51  F   -0.428799
 Electronic spatial extent (au):  <R**2>=          17310.4601
 Charge=              0.0000 electrons
 Dipole moment (field-independent basis, Debye):
    X=             32.4126    Y=              3.6837    Z=             -6.7484  Tot=             33.3120
 Quadrupole moment (field-independent basis, Debye-Ang):
   XX=           -287.8094   YY=           -156.8580   ZZ=           -185.7600
   XY=            -23.1975   XZ=             60.4460   YZ=              5.0527
 Traceless Quadrupole moment (field-independent basis, Debye-Ang):
   XX=            -77.6669   YY=             53.2844   ZZ=             24.3825
   XY=            -23.1975   XZ=             60.4460   YZ=              5.0527
 Octapole moment (field-independent basis, Debye-Ang**2):
  XXX=           1204.8982  YYY=             11.7964  ZZZ=             -0.1731  XYY=             40.0309
  XXY=             95.8801  XXZ=           -135.9524  XZZ=            112.5426  YZZ=              1.8523
  YYZ=            -12.6218  XYZ=            -23.6952
 Hexadecapole moment (field-independent basis, Debye-Ang**3):
 XXXX=         -21613.9521 YYYY=          -2692.4300 ZZZZ=          -1450.1562 XXXY=           -930.5923
 XXXZ=           2352.6230 YYYX=             29.6030 YYYZ=            142.3630 ZZZX=            132.0789
 ZZZY=            -63.4161 XXYY=          -3665.3185 XXZZ=          -3290.4999 YYZZ=           -834.3093
 XXYZ=             -2.5091 YYXZ=             60.4200 ZZXY=            -58.2756
 N-N= 2.980357244061D+03 E-N=-9.362996951903D+03  KE= 1.450753575145D+03
 Leave Link  601 at Wed Feb 24 21:47:46 2021, MaxMem=  5242880000 cpu:        36.8
 (Enter /opt/nce/packages/global/g09/l9999.exe)
 1\1\GINC-CN013\SP\RCAM-B3LYP TD-FC\Gen\C26H19B1F3N1O1\PNG4RJV\24-Feb-2
 021\0\\#p cam-b3lyp chkbasis geom=allcheck Guess=Read int=ultrafine sc
 rf=(SMD,solvent=Acetonitrile) td=(NStates=30) EmpiricalDispersion=GD3B
 J\\Title\\0,1\C,0,0.7870126536,3.2950208793,1.1772434025\C,0,1.5606558
 278,2.2376576639,0.8055783948\C,0,0.9641949352,0.9833980741,0.56463711
 39\C,0,-0.4407334893,0.8373753553,0.6992220767\C,0,-1.201859496,1.9665
 951018,1.1063771149\C,0,-0.6070194274,3.1636318047,1.3373553625\C,0,-1
 .0337218654,-0.4081337839,0.4519346547\C,0,-0.2270347033,-1.4914942038
 ,0.0778024483\C,0,1.1766243909,-1.3154894007,-0.0297798343\C,0,1.99001
 73938,-2.4086356888,-0.3914326908\H,0,3.058049451,-2.2843824525,-0.465
 6217031\C,0,1.4220754491,-3.6189983488,-0.6502825778\C,0,0.0273560371,
 -3.8061810864,-0.5736226335\C,0,-0.7729459764,-2.7694502421,-0.2204005
 896\H,0,1.2563639676,4.2527089431,1.3592846201\H,0,2.6261422554,2.3580
 022921,0.6967745624\H,0,-2.2673529287,1.8532768579,1.2328545562\H,0,-1
 .1952386626,4.0161789783,1.646904563\H,0,2.0565462093,-4.4502463087,-0
 .9277362095\H,0,-0.3986257924,-4.7734260939,-0.8008819526\H,0,-1.84259
 32282,-2.8998349678,-0.1670060213\N,0,1.724451975,-0.0911934587,0.2116
 682757\C,0,-2.4975463219,-0.5779912602,0.5861453225\C,0,-3.3566829282,
 0.0142774988,-0.3316197831\C,0,-3.0185725066,-1.3274624427,1.634329463
 1\C,0,-4.7387260724,-0.128093369,-0.2390189609\C,0,-4.3894955154,-1.46
 6524614,1.7545866119\C,0,-5.2340157103,-0.8763083326,0.8263778234\H,0,
 -4.7991110167,-2.0395017541,2.5769038225\H,0,-2.3538016674,-1.78874566
 99,2.3531561117\C,0,3.1550311077,0.0716003217,0.0929275842\C,0,3.70117
 08521,0.4192701753,-1.1225671953\C,0,3.9576624329,-0.1250309939,1.2040
 04616\C,0,5.0722760023,0.575163274,-1.2457452705\H,0,3.058458945,0.569
 4193367,-1.9799411328\C,0,5.3210500789,0.0280725128,1.0895791324\H,0,3
 .5120204796,-0.3969236813,2.1517364804\C,0,5.8871247025,0.3782592112,-
 0.1361609038\H,0,5.4897289195,0.8473548105,-2.2026967864\H,0,5.9688266
 217,-0.1205910309,1.9427568436\O,0,7.2279867183,0.5038802787,-0.153811
 8265\C,0,7.8591869913,0.8546399809,-1.3773144514\H,0,8.9237944238,0.89
 6335209,-1.1637103844\H,0,7.6723688777,0.1028457361,-2.1464506617\H,0,
 7.5211806079,1.8311806329,-1.7292317483\H,0,-2.9314065897,0.5989798926
 ,-1.1390834423\H,0,-6.3047861127,-0.9979671304,0.9371980076\B,0,-5.709
 6257807,0.5346273753,-1.3432994914\F,0,-5.2554054928,1.8225894828,-1.7
 274977134\F,0,-7.0346316593,0.6681191182,-0.8619237523\F,0,-5.76468436
 31,-0.2585524831,-2.5231052477\\Version=ES64L-G09RevE.01\State=1-A\HF=
 -1456.7052762\RMSD=5.711e-09\PG=C01 [X(C26H19B1F3N1O1)]\\@


 ROSE IS A RED
 TY COBB IS BLUE
 'CAUSE PETE JUST HIT
 NO. 4592.
 Job cpu time:       2 days 17 hours 47 minutes 14.8 seconds.
 File lengths (MBytes):  RWF=   6132 Int=      0 D2E=      0 Chk=   1099 Scr=      1
 Normal termination of Gaussian 09 at Wed Feb 24 21:47:49 2021.
