 Entering Gaussian System, Link 0=g09
 Input=/home/png4rjv/fotokatalizis/benchmark/OPCs/BF3-Acr_m_M062X_def2TZVP.gjf
 Output=/home/png4rjv/fotokatalizis/benchmark/OPCs/BF3-Acr_m_M062X_def2TZVP.log
 Initial command:
 /opt/nce/packages/global/g09/l1.exe "/home/png4rjv/fotokatalizis/benchmark/OPCs/BF3-Acr_m_M062X_def2TZVP/Gau-20424.inp" -scrdir="/home/png4rjv/fotokatalizis/benchmark/OPCs/BF3-Acr_m_M062X_def2TZVP/"
 Default is to use a total of  12 processors:
                               12 via shared-memory
                                1 via Linda
 Entering Link 1 = /opt/nce/packages/global/g09/l1.exe PID=     20425.
  
 Copyright (c) 1988,1990,1992,1993,1995,1998,2003,2009,2015,
            Gaussian, Inc.  All Rights Reserved.
  
 This is part of the Gaussian(R) 09 program.  It is based on
 the Gaussian(R) 03 system (copyright 2003, Gaussian, Inc.),
 the Gaussian(R) 98 system (copyright 1998, Gaussian, Inc.),
 the Gaussian(R) 94 system (copyright 1995, Gaussian, Inc.),
 the Gaussian 92(TM) system (copyright 1992, Gaussian, Inc.),
 the Gaussian 90(TM) system (copyright 1990, Gaussian, Inc.),
 the Gaussian 88(TM) system (copyright 1988, Gaussian, Inc.),
 the Gaussian 86(TM) system (copyright 1986, Carnegie Mellon
 University), and the Gaussian 82(TM) system (copyright 1983,
 Carnegie Mellon University). Gaussian is a federally registered
 trademark of Gaussian, Inc.
  
 This software contains proprietary and confidential information,
 including trade secrets, belonging to Gaussian, Inc.
  
 This software is provided under written license and may be
 used, copied, transmitted, or stored only in accord with that
 written license.
  
 The following legend is applicable only to US Government
 contracts under FAR:
  
                    RESTRICTED RIGHTS LEGEND
  
 Use, reproduction and disclosure by the US Government is
 subject to restrictions as set forth in subparagraphs (a)
 and (c) of the Commercial Computer Software - Restricted
 Rights clause in FAR 52.227-19.
  
 Gaussian, Inc.
 340 Quinnipiac St., Bldg. 40, Wallingford CT 06492
  
  
 ---------------------------------------------------------------
 Warning -- This program may not be used in any manner that
 competes with the business of Gaussian, Inc. or will provide
 assistance to any competitor of Gaussian, Inc.  The licensee
 of this program is prohibited from giving any competitor of
 Gaussian, Inc. access to this program.  By using this program,
 the user acknowledges that Gaussian, Inc. is engaged in the
 business of creating and licensing software in the field of
 computational chemistry and represents and warrants to the
 licensee that it is not a competitor of Gaussian, Inc. and that
 it will not use this program in any manner prohibited above.
 ---------------------------------------------------------------
  

 Cite this work as:
 Gaussian 09, Revision E.01,
 M. J. Frisch, G. W. Trucks, H. B. Schlegel, G. E. Scuseria, 
 M. A. Robb, J. R. Cheeseman, G. Scalmani, V. Barone, B. Mennucci, 
 G. A. Petersson, H. Nakatsuji, M. Caricato, X. Li, H. P. Hratchian, 
 A. F. Izmaylov, J. Bloino, G. Zheng, J. L. Sonnenberg, M. Hada, 
 M. Ehara, K. Toyota, R. Fukuda, J. Hasegawa, M. Ishida, T. Nakajima, 
 Y. Honda, O. Kitao, H. Nakai, T. Vreven, J. A. Montgomery, Jr., 
 J. E. Peralta, F. Ogliaro, M. Bearpark, J. J. Heyd, E. Brothers, 
 K. N. Kudin, V. N. Staroverov, T. Keith, R. Kobayashi, J. Normand, 
 K. Raghavachari, A. Rendell, J. C. Burant, S. S. Iyengar, J. Tomasi, 
 M. Cossi, N. Rega, J. M. Millam, M. Klene, J. E. Knox, J. B. Cross, 
 V. Bakken, C. Adamo, J. Jaramillo, R. Gomperts, R. E. Stratmann, 
 O. Yazyev, A. J. Austin, R. Cammi, C. Pomelli, J. W. Ochterski, 
 R. L. Martin, K. Morokuma, V. G. Zakrzewski, G. A. Voth, 
 P. Salvador, J. J. Dannenberg, S. Dapprich, A. D. Daniels, 
 O. Farkas, J. B. Foresman, J. V. Ortiz, J. Cioslowski, 
 and D. J. Fox, Gaussian, Inc., Wallingford CT, 2013.
 
 ******************************************
 Gaussian 09:  ES64L-G09RevE.01 30-Nov-2015
                22-Feb-2021 
 ******************************************
 %chk=cp.chk
 Default route:  MaxDisk=500GB
 ----------------------------------------------------------------------
 #p m062x/def2TZVP opt freq=noraman nosymm int=ultrafine scrf=(SMD,solv
 ent=Acetonitrile)
 ----------------------------------------------------------------------
 1/14=-1,18=20,19=15,26=4,38=1/1,3;
 2/9=110,12=2,15=1,17=6,18=5,40=1/2;
 3/5=44,7=101,11=2,16=1,25=1,30=1,70=32201,71=1,72=2,74=-55,75=-5/1,2,3;
 4//1;
 5/5=2,38=5,53=2/2;
 6/7=2,8=2,9=2,10=2,28=1/1;
 7/30=1/1,2,3,16;
 1/14=-1,18=20,19=15,26=4/3(2);
 2/9=110,15=1/2;
 99//99;
 2/9=110,15=1/2;
 3/5=44,7=101,11=2,16=1,25=1,30=1,70=32205,71=1,72=2,74=-55,75=-5/1,2,3;
 4/5=5,16=3,69=1/1;
 5/5=2,38=5,53=2/2;
 7/30=1/1,2,3,16;
 1/14=-1,18=20,19=15,26=4/3(-5);
 2/9=110,15=1/2;
 6/7=2,8=2,9=2,10=2,19=2,28=1/1;
 99/9=1/99;
 Leave Link    1 at Mon Feb 22 10:07:21 2021, MaxMem=           0 cpu:         1.6
 (Enter /opt/nce/packages/global/g09/l101.exe)
 -----
 Title
 -----
 Symbolic Z-matrix:
 Charge =  0 Multiplicity = 1
 C                     0.68709   3.33347   0.92038 
 C                     1.49332   2.25239   0.61986 
 C                     0.92323   0.96694   0.46462 
 C                    -0.49285   0.7938    0.59548 
 C                    -1.27597   1.93268   0.95258 
 C                    -0.70378   3.17593   1.10138 
 C                    -1.07366  -0.50071   0.41361 
 C                    -0.20574  -1.59568   0.10858 
 C                     1.20914  -1.39253   0.03727 
 C                     2.06461  -2.48873  -0.23013 
 H                     3.1413   -2.33713  -0.26159 
 C                     1.53081  -3.74137  -0.46159 
 C                     0.1339   -3.94787  -0.46277 
 C                    -0.71113  -2.8952   -0.19165 
 H                     1.14132   4.32034   1.03492 
 H                     2.5668    2.38441   0.50473 
 H                    -2.346     1.80515   1.10343 
 H                    -1.32508   4.03317   1.36511 
 H                     2.20355  -4.57629  -0.67055 
 H                    -0.27417  -4.93306  -0.69469 
 H                    -1.79027  -3.03343  -0.22043 
 N                     1.72829  -0.12578   0.20683 
 C                    -2.51509  -0.69074   0.52444 
 C                    -3.39296   0.12888  -0.22075 
 C                    -3.05747  -1.67435   1.38585 
 C                    -4.78056   0.00704  -0.13377 
 C                    -4.43919  -1.78821   1.50439 
 C                    -5.28484  -0.95394   0.75858 
 H                    -4.86046  -2.51551   2.20383 
 H                    -2.39521  -2.28944   1.99912 
 C                     3.15423   0.06604   0.09787 
 C                     3.72366   0.34062  -1.14323 
 C                     3.95908  -0.02301   1.23979 
 C                     5.10298   0.5294   -1.25869 
 H                     3.08536   0.40901  -2.0263 
 C                     5.33095   0.16262   1.13385 
 H                     3.502    -0.23737   2.2077 
 C                     5.91708   0.44108  -0.11645 
 H                     5.52903   0.74414  -2.23764 
 H                     5.98117   0.099     2.00756 
 O                     7.25345   0.60627  -0.1196 
 C                     7.91561   0.89268  -1.33572 
 H                     8.98179   0.98513  -1.09415 
 H                     7.78122   0.08075  -2.07152 
 H                     7.56166   1.8409   -1.77643 
 H                    -2.98529   0.87202  -0.90995 
 H                    -6.36902  -1.02738   0.87891 
 B                    -5.74235   0.99749  -1.03384 
 F                    -5.06665   2.22958  -1.1752 
 F                    -6.9601    1.17254  -0.36162 
 F                    -5.95306   0.42355  -2.29503 
 
 NAtoms=     51 NQM=       51 NQMF=       0 NMMI=      0 NMMIF=      0
                NMic=       0 NMicF=      0.
                    Isotopes and Nuclear Properties:
 (Nuclear quadrupole moments (NQMom) in fm**2, nuclear magnetic moments (NMagM)
  in nuclear magnetons)

  Atom         1           2           3           4           5           6           7           8           9          10
 IAtWgt=          12          12          12          12          12          12          12          12          12          12
 AtmWgt=  12.0000000  12.0000000  12.0000000  12.0000000  12.0000000  12.0000000  12.0000000  12.0000000  12.0000000  12.0000000
 NucSpn=           0           0           0           0           0           0           0           0           0           0
 AtZEff=   0.0000000   0.0000000   0.0000000   0.0000000   0.0000000   0.0000000   0.0000000   0.0000000   0.0000000   0.0000000
 NQMom=    0.0000000   0.0000000   0.0000000   0.0000000   0.0000000   0.0000000   0.0000000   0.0000000   0.0000000   0.0000000
 NMagM=    0.0000000   0.0000000   0.0000000   0.0000000   0.0000000   0.0000000   0.0000000   0.0000000   0.0000000   0.0000000
 AtZNuc=   6.0000000   6.0000000   6.0000000   6.0000000   6.0000000   6.0000000   6.0000000   6.0000000   6.0000000   6.0000000

  Atom        11          12          13          14          15          16          17          18          19          20
 IAtWgt=           1          12          12          12           1           1           1           1           1           1
 AtmWgt=   1.0078250  12.0000000  12.0000000  12.0000000   1.0078250   1.0078250   1.0078250   1.0078250   1.0078250   1.0078250
 NucSpn=           1           0           0           0           1           1           1           1           1           1
 AtZEff=   0.0000000   0.0000000   0.0000000   0.0000000   0.0000000   0.0000000   0.0000000   0.0000000   0.0000000   0.0000000
 NQMom=    0.0000000   0.0000000   0.0000000   0.0000000   0.0000000   0.0000000   0.0000000   0.0000000   0.0000000   0.0000000
 NMagM=    2.7928460   0.0000000   0.0000000   0.0000000   2.7928460   2.7928460   2.7928460   2.7928460   2.7928460   2.7928460
 AtZNuc=   1.0000000   6.0000000   6.0000000   6.0000000   1.0000000   1.0000000   1.0000000   1.0000000   1.0000000   1.0000000

  Atom        21          22          23          24          25          26          27          28          29          30
 IAtWgt=           1          14          12          12          12          12          12          12           1           1
 AtmWgt=   1.0078250  14.0030740  12.0000000  12.0000000  12.0000000  12.0000000  12.0000000  12.0000000   1.0078250   1.0078250
 NucSpn=           1           2           0           0           0           0           0           0           1           1
 AtZEff=   0.0000000   0.0000000   0.0000000   0.0000000   0.0000000   0.0000000   0.0000000   0.0000000   0.0000000   0.0000000
 NQMom=    0.0000000   2.0440000   0.0000000   0.0000000   0.0000000   0.0000000   0.0000000   0.0000000   0.0000000   0.0000000
 NMagM=    2.7928460   0.4037610   0.0000000   0.0000000   0.0000000   0.0000000   0.0000000   0.0000000   2.7928460   2.7928460
 AtZNuc=   1.0000000   7.0000000   6.0000000   6.0000000   6.0000000   6.0000000   6.0000000   6.0000000   1.0000000   1.0000000

  Atom        31          32          33          34          35          36          37          38          39          40
 IAtWgt=          12          12          12          12           1          12           1          12           1           1
 AtmWgt=  12.0000000  12.0000000  12.0000000  12.0000000   1.0078250  12.0000000   1.0078250  12.0000000   1.0078250   1.0078250
 NucSpn=           0           0           0           0           1           0           1           0           1           1
 AtZEff=   0.0000000   0.0000000   0.0000000   0.0000000   0.0000000   0.0000000   0.0000000   0.0000000   0.0000000   0.0000000
 NQMom=    0.0000000   0.0000000   0.0000000   0.0000000   0.0000000   0.0000000   0.0000000   0.0000000   0.0000000   0.0000000
 NMagM=    0.0000000   0.0000000   0.0000000   0.0000000   2.7928460   0.0000000   2.7928460   0.0000000   2.7928460   2.7928460
 AtZNuc=   6.0000000   6.0000000   6.0000000   6.0000000   1.0000000   6.0000000   1.0000000   6.0000000   1.0000000   1.0000000

  Atom        41          42          43          44          45          46          47          48          49          50
 IAtWgt=          16          12           1           1           1           1           1          11          19          19
 AtmWgt=  15.9949146  12.0000000   1.0078250   1.0078250   1.0078250   1.0078250   1.0078250  11.0093053  18.9984033  18.9984033
 NucSpn=           0           0           1           1           1           1           1           3           1           1
 AtZEff=   0.0000000   0.0000000   0.0000000   0.0000000   0.0000000   0.0000000   0.0000000   0.0000000   0.0000000   0.0000000
 NQMom=    0.0000000   0.0000000   0.0000000   0.0000000   0.0000000   0.0000000   0.0000000   4.0590000   0.0000000   0.0000000
 NMagM=    0.0000000   0.0000000   2.7928460   2.7928460   2.7928460   2.7928460   2.7928460   2.6886370   2.6288670   2.6288670
 AtZNuc=   8.0000000   6.0000000   1.0000000   1.0000000   1.0000000   1.0000000   1.0000000   5.0000000   9.0000000   9.0000000

  Atom        51
 IAtWgt=          19
 AtmWgt=  18.9984033
 NucSpn=           1
 AtZEff=   0.0000000
 NQMom=    0.0000000
 NMagM=    2.6288670
 AtZNuc=   9.0000000
 Leave Link  101 at Mon Feb 22 10:07:22 2021, MaxMem=  5242880000 cpu:         5.9
 (Enter /opt/nce/packages/global/g09/l103.exe)

 GradGradGradGradGradGradGradGradGradGradGradGradGradGradGradGradGradGrad
 Berny optimization.
 Initialization pass.
                           ----------------------------
                           !    Initial Parameters    !
                           ! (Angstroms and Degrees)  !
 --------------------------                            --------------------------
 ! Name  Definition              Value          Derivative Info.                !
 --------------------------------------------------------------------------------
 ! R1    R(1,2)                  1.3817         estimate D2E/DX2                !
 ! R2    R(1,6)                  1.4114         estimate D2E/DX2                !
 ! R3    R(1,15)                 1.0924         estimate D2E/DX2                !
 ! R4    R(2,3)                  1.4147         estimate D2E/DX2                !
 ! R5    R(2,16)                 1.0877         estimate D2E/DX2                !
 ! R6    R(3,4)                  1.4326         estimate D2E/DX2                !
 ! R7    R(3,22)                 1.3815         estimate D2E/DX2                !
 ! R8    R(4,5)                  1.4275         estimate D2E/DX2                !
 ! R9    R(4,7)                  1.4304         estimate D2E/DX2                !
 ! R10   R(5,6)                  1.3767         estimate D2E/DX2                !
 ! R11   R(5,17)                 1.0881         estimate D2E/DX2                !
 ! R12   R(6,18)                 1.0911         estimate D2E/DX2                !
 ! R13   R(7,8)                  1.4301         estimate D2E/DX2                !
 ! R14   R(7,23)                 1.4581         estimate D2E/DX2                !
 ! R15   R(8,9)                  1.4312         estimate D2E/DX2                !
 ! R16   R(8,14)                 1.4263         estimate D2E/DX2                !
 ! R17   R(9,10)                 1.416          estimate D2E/DX2                !
 ! R18   R(9,22)                 1.3795         estimate D2E/DX2                !
 ! R19   R(10,11)                1.0878         estimate D2E/DX2                !
 ! R20   R(10,12)                1.3812         estimate D2E/DX2                !
 ! R21   R(12,13)                1.4121         estimate D2E/DX2                !
 ! R22   R(12,19)                1.0924         estimate D2E/DX2                !
 ! R23   R(13,14)                1.3768         estimate D2E/DX2                !
 ! R24   R(13,20)                1.0913         estimate D2E/DX2                !
 ! R25   R(14,21)                1.0883         estimate D2E/DX2                !
 ! R26   R(22,31)                1.4429         estimate D2E/DX2                !
 ! R27   R(23,24)                1.4134         estimate D2E/DX2                !
 ! R28   R(23,25)                1.4155         estimate D2E/DX2                !
 ! R29   R(24,26)                1.3957         estimate D2E/DX2                !
 ! R30   R(24,46)                1.0925         estimate D2E/DX2                !
 ! R31   R(25,27)                1.3915         estimate D2E/DX2                !
 ! R32   R(25,30)                1.0923         estimate D2E/DX2                !
 ! R33   R(26,28)                1.405          estimate D2E/DX2                !
 ! R34   R(26,48)                1.6481         estimate D2E/DX2                !
 ! R35   R(27,28)                1.4026         estimate D2E/DX2                !
 ! R36   R(27,29)                1.0935         estimate D2E/DX2                !
 ! R37   R(28,47)                1.0933         estimate D2E/DX2                !
 ! R38   R(31,32)                1.3928         estimate D2E/DX2                !
 ! R39   R(31,33)                1.3999         estimate D2E/DX2                !
 ! R40   R(32,34)                1.397          estimate D2E/DX2                !
 ! R41   R(32,35)                1.0918         estimate D2E/DX2                !
 ! R42   R(33,36)                1.3884         estimate D2E/DX2                !
 ! R43   R(33,37)                1.0917         estimate D2E/DX2                !
 ! R44   R(34,38)                1.4054         estimate D2E/DX2                !
 ! R45   R(34,39)                1.089          estimate D2E/DX2                !
 ! R46   R(36,38)                1.4087         estimate D2E/DX2                !
 ! R47   R(36,40)                1.091          estimate D2E/DX2                !
 ! R48   R(38,41)                1.3465         estimate D2E/DX2                !
 ! R49   R(41,42)                1.414          estimate D2E/DX2                !
 ! R50   R(42,43)                1.0971         estimate D2E/DX2                !
 ! R51   R(42,44)                1.104          estimate D2E/DX2                !
 ! R52   R(42,45)                1.1039         estimate D2E/DX2                !
 ! R53   R(48,49)                1.4123         estimate D2E/DX2                !
 ! R54   R(48,50)                1.4019         estimate D2E/DX2                !
 ! R55   R(48,51)                1.4016         estimate D2E/DX2                !
 ! A1    A(2,1,6)              121.0361         estimate D2E/DX2                !
 ! A2    A(2,1,15)             119.145          estimate D2E/DX2                !
 ! A3    A(6,1,15)             119.8109         estimate D2E/DX2                !
 ! A4    A(1,2,3)              119.978          estimate D2E/DX2                !
 ! A5    A(1,2,16)             120.261          estimate D2E/DX2                !
 ! A6    A(3,2,16)             119.7607         estimate D2E/DX2                !
 ! A7    A(2,3,4)              119.874          estimate D2E/DX2                !
 ! A8    A(2,3,22)             120.2865         estimate D2E/DX2                !
 ! A9    A(4,3,22)             119.8326         estimate D2E/DX2                !
 ! A10   A(3,4,5)              117.949          estimate D2E/DX2                !
 ! A11   A(3,4,7)              119.9405         estimate D2E/DX2                !
 ! A12   A(5,4,7)              122.0762         estimate D2E/DX2                !
 ! A13   A(4,5,6)              121.2996         estimate D2E/DX2                !
 ! A14   A(4,5,17)             118.7272         estimate D2E/DX2                !
 ! A15   A(6,5,17)             119.9726         estimate D2E/DX2                !
 ! A16   A(1,6,5)              119.7699         estimate D2E/DX2                !
 ! A17   A(1,6,18)             120.2957         estimate D2E/DX2                !
 ! A18   A(5,6,18)             119.933          estimate D2E/DX2                !
 ! A19   A(4,7,8)              118.2673         estimate D2E/DX2                !
 ! A20   A(4,7,23)             120.6413         estimate D2E/DX2                !
 ! A21   A(8,7,23)             121.0887         estimate D2E/DX2                !
 ! A22   A(7,8,9)              120.1271         estimate D2E/DX2                !
 ! A23   A(7,8,14)             121.8329         estimate D2E/DX2                !
 ! A24   A(9,8,14)             117.979          estimate D2E/DX2                !
 ! A25   A(8,9,10)             119.7881         estimate D2E/DX2                !
 ! A26   A(8,9,22)             119.7546         estimate D2E/DX2                !
 ! A27   A(10,9,22)            120.4479         estimate D2E/DX2                !
 ! A28   A(9,10,11)            119.7069         estimate D2E/DX2                !
 ! A29   A(9,10,12)            120.0186         estimate D2E/DX2                !
 ! A30   A(11,10,12)           120.2719         estimate D2E/DX2                !
 ! A31   A(10,12,13)           121.0038         estimate D2E/DX2                !
 ! A32   A(10,12,19)           119.1584         estimate D2E/DX2                !
 ! A33   A(13,12,19)           119.8206         estimate D2E/DX2                !
 ! A34   A(12,13,14)           119.6811         estimate D2E/DX2                !
 ! A35   A(12,13,20)           120.1395         estimate D2E/DX2                !
 ! A36   A(14,13,20)           120.1707         estimate D2E/DX2                !
 ! A37   A(8,14,13)            121.3711         estimate D2E/DX2                !
 ! A38   A(8,14,21)            118.2053         estimate D2E/DX2                !
 ! A39   A(13,14,21)           120.4137         estimate D2E/DX2                !
 ! A40   A(3,22,9)             122.002          estimate D2E/DX2                !
 ! A41   A(3,22,31)            119.0011         estimate D2E/DX2                !
 ! A42   A(9,22,31)            118.9937         estimate D2E/DX2                !
 ! A43   A(7,23,24)            119.8902         estimate D2E/DX2                !
 ! A44   A(7,23,25)            121.0371         estimate D2E/DX2                !
 ! A45   A(24,23,25)           119.0658         estimate D2E/DX2                !
 ! A46   A(23,24,26)           122.278          estimate D2E/DX2                !
 ! A47   A(23,24,46)           119.6898         estimate D2E/DX2                !
 ! A48   A(26,24,46)           118.0167         estimate D2E/DX2                !
 ! A49   A(23,25,27)           119.2871         estimate D2E/DX2                !
 ! A50   A(23,25,30)           120.0448         estimate D2E/DX2                !
 ! A51   A(27,25,30)           120.5412         estimate D2E/DX2                !
 ! A52   A(24,26,28)           117.1384         estimate D2E/DX2                !
 ! A53   A(24,26,48)           119.5846         estimate D2E/DX2                !
 ! A54   A(28,26,48)           123.2606         estimate D2E/DX2                !
 ! A55   A(25,27,28)           120.3118         estimate D2E/DX2                !
 ! A56   A(25,27,29)           119.4386         estimate D2E/DX2                !
 ! A57   A(28,27,29)           120.2297         estimate D2E/DX2                !
 ! A58   A(26,28,27)           121.8795         estimate D2E/DX2                !
 ! A59   A(26,28,47)           118.1486         estimate D2E/DX2                !
 ! A60   A(27,28,47)           119.96           estimate D2E/DX2                !
 ! A61   A(22,31,32)           119.836          estimate D2E/DX2                !
 ! A62   A(22,31,33)           119.8757         estimate D2E/DX2                !
 ! A63   A(32,31,33)           120.2883         estimate D2E/DX2                !
 ! A64   A(31,32,34)           120.2618         estimate D2E/DX2                !
 ! A65   A(31,32,35)           119.6085         estimate D2E/DX2                !
 ! A66   A(34,32,35)           120.1297         estimate D2E/DX2                !
 ! A67   A(31,33,36)           119.824          estimate D2E/DX2                !
 ! A68   A(31,33,37)           119.6707         estimate D2E/DX2                !
 ! A69   A(36,33,37)           120.5053         estimate D2E/DX2                !
 ! A70   A(32,34,38)           119.7536         estimate D2E/DX2                !
 ! A71   A(32,34,39)           119.158          estimate D2E/DX2                !
 ! A72   A(38,34,39)           121.0884         estimate D2E/DX2                !
 ! A73   A(33,36,38)           120.3499         estimate D2E/DX2                !
 ! A74   A(33,36,40)           121.3322         estimate D2E/DX2                !
 ! A75   A(38,36,40)           118.3179         estimate D2E/DX2                !
 ! A76   A(34,38,36)           119.5224         estimate D2E/DX2                !
 ! A77   A(34,38,41)           124.4201         estimate D2E/DX2                !
 ! A78   A(36,38,41)           116.0575         estimate D2E/DX2                !
 ! A79   A(38,41,42)           119.4465         estimate D2E/DX2                !
 ! A80   A(41,42,43)           106.4265         estimate D2E/DX2                !
 ! A81   A(41,42,44)           111.5471         estimate D2E/DX2                !
 ! A82   A(41,42,45)           111.5427         estimate D2E/DX2                !
 ! A83   A(43,42,44)           109.0888         estimate D2E/DX2                !
 ! A84   A(43,42,45)           109.0932         estimate D2E/DX2                !
 ! A85   A(44,42,45)           109.0643         estimate D2E/DX2                !
 ! A86   A(26,48,49)           107.4423         estimate D2E/DX2                !
 ! A87   A(26,48,50)           108.6677         estimate D2E/DX2                !
 ! A88   A(26,48,51)           109.4554         estimate D2E/DX2                !
 ! A89   A(49,48,50)           110.7708         estimate D2E/DX2                !
 ! A90   A(49,48,51)           109.8229         estimate D2E/DX2                !
 ! A91   A(50,48,51)           110.6105         estimate D2E/DX2                !
 ! D1    D(6,1,2,3)              1.1744         estimate D2E/DX2                !
 ! D2    D(6,1,2,16)          -178.641          estimate D2E/DX2                !
 ! D3    D(15,1,2,3)          -179.8564         estimate D2E/DX2                !
 ! D4    D(15,1,2,16)            0.3281         estimate D2E/DX2                !
 ! D5    D(2,1,6,5)             -1.2472         estimate D2E/DX2                !
 ! D6    D(2,1,6,18)           178.3312         estimate D2E/DX2                !
 ! D7    D(15,1,6,5)           179.7904         estimate D2E/DX2                !
 ! D8    D(15,1,6,18)           -0.6312         estimate D2E/DX2                !
 ! D9    D(1,2,3,4)              1.1382         estimate D2E/DX2                !
 ! D10   D(1,2,3,22)          -177.9053         estimate D2E/DX2                !
 ! D11   D(16,2,3,4)          -179.0454         estimate D2E/DX2                !
 ! D12   D(16,2,3,22)            1.9111         estimate D2E/DX2                !
 ! D13   D(2,3,4,5)             -3.2768         estimate D2E/DX2                !
 ! D14   D(2,3,4,7)            178.8092         estimate D2E/DX2                !
 ! D15   D(22,3,4,5)           175.771          estimate D2E/DX2                !
 ! D16   D(22,3,4,7)            -2.1429         estimate D2E/DX2                !
 ! D17   D(2,3,22,9)          -179.4023         estimate D2E/DX2                !
 ! D18   D(2,3,22,31)           -0.0586         estimate D2E/DX2                !
 ! D19   D(4,3,22,9)             1.5539         estimate D2E/DX2                !
 ! D20   D(4,3,22,31)         -179.1025         estimate D2E/DX2                !
 ! D21   D(3,4,5,6)              3.2501         estimate D2E/DX2                !
 ! D22   D(3,4,5,17)          -177.0235         estimate D2E/DX2                !
 ! D23   D(7,4,5,6)           -178.8833         estimate D2E/DX2                !
 ! D24   D(7,4,5,17)             0.8432         estimate D2E/DX2                !
 ! D25   D(3,4,7,8)              0.2843         estimate D2E/DX2                !
 ! D26   D(3,4,7,23)          -179.1214         estimate D2E/DX2                !
 ! D27   D(5,4,7,8)           -177.5409         estimate D2E/DX2                !
 ! D28   D(5,4,7,23)             3.0534         estimate D2E/DX2                !
 ! D29   D(4,5,6,1)             -1.0325         estimate D2E/DX2                !
 ! D30   D(4,5,6,18)           179.3876         estimate D2E/DX2                !
 ! D31   D(17,5,6,1)           179.2444         estimate D2E/DX2                !
 ! D32   D(17,5,6,18)           -0.3355         estimate D2E/DX2                !
 ! D33   D(4,7,8,9)              2.1429         estimate D2E/DX2                !
 ! D34   D(4,7,8,14)          -174.9602         estimate D2E/DX2                !
 ! D35   D(23,7,8,9)          -178.4542         estimate D2E/DX2                !
 ! D36   D(23,7,8,14)            4.4427         estimate D2E/DX2                !
 ! D37   D(4,7,23,24)           51.9706         estimate D2E/DX2                !
 ! D38   D(4,7,23,25)         -127.0601         estimate D2E/DX2                !
 ! D39   D(8,7,23,24)         -127.4182         estimate D2E/DX2                !
 ! D40   D(8,7,23,25)           53.5511         estimate D2E/DX2                !
 ! D41   D(7,8,9,10)           178.3234         estimate D2E/DX2                !
 ! D42   D(7,8,9,22)            -2.7847         estimate D2E/DX2                !
 ! D43   D(14,8,9,10)           -4.4635         estimate D2E/DX2                !
 ! D44   D(14,8,9,22)          174.4285         estimate D2E/DX2                !
 ! D45   D(7,8,14,13)         -178.9335         estimate D2E/DX2                !
 ! D46   D(7,8,14,21)            2.2093         estimate D2E/DX2                !
 ! D47   D(9,8,14,13)            3.9036         estimate D2E/DX2                !
 ! D48   D(9,8,14,21)         -174.9535         estimate D2E/DX2                !
 ! D49   D(8,9,10,11)         -178.6105         estimate D2E/DX2                !
 ! D50   D(8,9,10,12)            1.9739         estimate D2E/DX2                !
 ! D51   D(22,9,10,11)           2.5054         estimate D2E/DX2                !
 ! D52   D(22,9,10,12)        -176.9103         estimate D2E/DX2                !
 ! D53   D(8,9,22,3)             0.9065         estimate D2E/DX2                !
 ! D54   D(8,9,22,31)         -178.4372         estimate D2E/DX2                !
 ! D55   D(10,9,22,3)          179.791          estimate D2E/DX2                !
 ! D56   D(10,9,22,31)           0.4473         estimate D2E/DX2                !
 ! D57   D(9,10,12,13)           1.2593         estimate D2E/DX2                !
 ! D58   D(9,10,12,19)         179.7501         estimate D2E/DX2                !
 ! D59   D(11,10,12,13)       -178.153          estimate D2E/DX2                !
 ! D60   D(11,10,12,19)          0.3378         estimate D2E/DX2                !
 ! D61   D(10,12,13,14)         -1.8823         estimate D2E/DX2                !
 ! D62   D(10,12,13,20)        177.0486         estimate D2E/DX2                !
 ! D63   D(19,12,13,14)        179.6368         estimate D2E/DX2                !
 ! D64   D(19,12,13,20)         -1.4323         estimate D2E/DX2                !
 ! D65   D(12,13,14,8)          -0.7819         estimate D2E/DX2                !
 ! D66   D(12,13,14,21)        178.0503         estimate D2E/DX2                !
 ! D67   D(20,13,14,8)        -179.7124         estimate D2E/DX2                !
 ! D68   D(20,13,14,21)         -0.8803         estimate D2E/DX2                !
 ! D69   D(3,22,31,32)         -90.5564         estimate D2E/DX2                !
 ! D70   D(3,22,31,33)          89.3683         estimate D2E/DX2                !
 ! D71   D(9,22,31,32)          88.8072         estimate D2E/DX2                !
 ! D72   D(9,22,31,33)         -91.268          estimate D2E/DX2                !
 ! D73   D(7,23,24,26)        -178.7772         estimate D2E/DX2                !
 ! D74   D(7,23,24,46)           2.682          estimate D2E/DX2                !
 ! D75   D(25,23,24,26)          0.2725         estimate D2E/DX2                !
 ! D76   D(25,23,24,46)       -178.2682         estimate D2E/DX2                !
 ! D77   D(7,23,25,27)         177.4132         estimate D2E/DX2                !
 ! D78   D(7,23,25,30)           1.4854         estimate D2E/DX2                !
 ! D79   D(24,23,25,27)         -1.6253         estimate D2E/DX2                !
 ! D80   D(24,23,25,30)       -177.5531         estimate D2E/DX2                !
 ! D81   D(23,24,26,28)          1.4587         estimate D2E/DX2                !
 ! D82   D(23,24,26,48)       -179.9668         estimate D2E/DX2                !
 ! D83   D(46,24,26,28)       -179.9772         estimate D2E/DX2                !
 ! D84   D(46,24,26,48)         -1.4027         estimate D2E/DX2                !
 ! D85   D(23,25,27,28)          1.209          estimate D2E/DX2                !
 ! D86   D(23,25,27,29)       -177.1717         estimate D2E/DX2                !
 ! D87   D(30,25,27,28)        177.1161         estimate D2E/DX2                !
 ! D88   D(30,25,27,29)         -1.2646         estimate D2E/DX2                !
 ! D89   D(24,26,28,27)         -1.9026         estimate D2E/DX2                !
 ! D90   D(24,26,28,47)        176.8448         estimate D2E/DX2                !
 ! D91   D(48,26,28,27)        179.58           estimate D2E/DX2                !
 ! D92   D(48,26,28,47)         -1.6727         estimate D2E/DX2                !
 ! D93   D(24,26,48,49)        -31.6748         estimate D2E/DX2                !
 ! D94   D(24,26,48,50)       -151.5766         estimate D2E/DX2                !
 ! D95   D(24,26,48,51)         87.5325         estimate D2E/DX2                !
 ! D96   D(28,26,48,49)        146.8081         estimate D2E/DX2                !
 ! D97   D(28,26,48,50)         26.9063         estimate D2E/DX2                !
 ! D98   D(28,26,48,51)        -93.9846         estimate D2E/DX2                !
 ! D99   D(25,27,28,26)          0.5955         estimate D2E/DX2                !
 ! D100  D(25,27,28,47)       -178.1296         estimate D2E/DX2                !
 ! D101  D(29,27,28,26)        178.9633         estimate D2E/DX2                !
 ! D102  D(29,27,28,47)          0.2381         estimate D2E/DX2                !
 ! D103  D(22,31,32,34)        179.9272         estimate D2E/DX2                !
 ! D104  D(22,31,32,35)          0.0119         estimate D2E/DX2                !
 ! D105  D(33,31,32,34)          0.0028         estimate D2E/DX2                !
 ! D106  D(33,31,32,35)       -179.9126         estimate D2E/DX2                !
 ! D107  D(22,31,33,36)       -179.9579         estimate D2E/DX2                !
 ! D108  D(22,31,33,37)         -0.0059         estimate D2E/DX2                !
 ! D109  D(32,31,33,36)         -0.0335         estimate D2E/DX2                !
 ! D110  D(32,31,33,37)        179.9185         estimate D2E/DX2                !
 ! D111  D(31,32,34,38)          0.0135         estimate D2E/DX2                !
 ! D112  D(31,32,34,39)       -179.9405         estimate D2E/DX2                !
 ! D113  D(35,32,34,38)        179.9284         estimate D2E/DX2                !
 ! D114  D(35,32,34,39)         -0.0257         estimate D2E/DX2                !
 ! D115  D(31,33,36,38)          0.0477         estimate D2E/DX2                !
 ! D116  D(31,33,36,40)        179.9825         estimate D2E/DX2                !
 ! D117  D(37,33,36,38)       -179.9038         estimate D2E/DX2                !
 ! D118  D(37,33,36,40)          0.0309         estimate D2E/DX2                !
 ! D119  D(32,34,38,36)          0.0007         estimate D2E/DX2                !
 ! D120  D(32,34,38,41)       -179.9882         estimate D2E/DX2                !
 ! D121  D(39,34,38,36)        179.9538         estimate D2E/DX2                !
 ! D122  D(39,34,38,41)         -0.0351         estimate D2E/DX2                !
 ! D123  D(33,36,38,34)         -0.0314         estimate D2E/DX2                !
 ! D124  D(33,36,38,41)        179.9584         estimate D2E/DX2                !
 ! D125  D(40,36,38,34)       -179.9682         estimate D2E/DX2                !
 ! D126  D(40,36,38,41)          0.0217         estimate D2E/DX2                !
 ! D127  D(34,38,41,42)          0.1816         estimate D2E/DX2                !
 ! D128  D(36,38,41,42)       -179.8077         estimate D2E/DX2                !
 ! D129  D(38,41,42,43)        179.9058         estimate D2E/DX2                !
 ! D130  D(38,41,42,44)        -61.2142         estimate D2E/DX2                !
 ! D131  D(38,41,42,45)         61.0228         estimate D2E/DX2                !
 --------------------------------------------------------------------------------
 Trust Radius=3.00D-01 FncErr=1.00D-07 GrdErr=1.00D-06
 Number of steps in this run=    287 maximum allowed number of steps=    306.
 GradGradGradGradGradGradGradGradGradGradGradGradGradGradGradGradGradGrad

 Leave Link  103 at Mon Feb 22 10:07:23 2021, MaxMem=  5242880000 cpu:         1.0
 (Enter /opt/nce/packages/global/g09/l202.exe)
 Symmetry turned off by external request.
 Stoichiometry    C26H19BF3NO
 Framework group  C1[X(C26H19BF3NO)]
 Deg. of freedom   147
 Full point group                 C1      NOp   1
                          Input orientation:                          
 ---------------------------------------------------------------------
 Center     Atomic      Atomic             Coordinates (Angstroms)
 Number     Number       Type             X           Y           Z
 ---------------------------------------------------------------------
      1          6           0        0.687089    3.333469    0.920380
      2          6           0        1.493318    2.252387    0.619856
      3          6           0        0.923232    0.966936    0.464615
      4          6           0       -0.492854    0.793804    0.595479
      5          6           0       -1.275966    1.932682    0.952582
      6          6           0       -0.703778    3.175934    1.101384
      7          6           0       -1.073664   -0.500706    0.413608
      8          6           0       -0.205739   -1.595680    0.108576
      9          6           0        1.209141   -1.392528    0.037266
     10          6           0        2.064607   -2.488733   -0.230132
     11          1           0        3.141303   -2.337127   -0.261586
     12          6           0        1.530814   -3.741369   -0.461594
     13          6           0        0.133895   -3.947872   -0.462769
     14          6           0       -0.711128   -2.895203   -0.191647
     15          1           0        1.141323    4.320344    1.034923
     16          1           0        2.566799    2.384414    0.504729
     17          1           0       -2.346002    1.805153    1.103425
     18          1           0       -1.325083    4.033166    1.365114
     19          1           0        2.203554   -4.576292   -0.670549
     20          1           0       -0.274167   -4.933057   -0.694688
     21          1           0       -1.790270   -3.033435   -0.220429
     22          7           0        1.728294   -0.125780    0.206832
     23          6           0       -2.515094   -0.690735    0.524442
     24          6           0       -3.392961    0.128880   -0.220752
     25          6           0       -3.057465   -1.674350    1.385845
     26          6           0       -4.780559    0.007037   -0.133765
     27          6           0       -4.439195   -1.788214    1.504392
     28          6           0       -5.284839   -0.953937    0.758582
     29          1           0       -4.860462   -2.515507    2.203830
     30          1           0       -2.395207   -2.289439    1.999122
     31          6           0        3.154230    0.066039    0.097870
     32          6           0        3.723657    0.340620   -1.143230
     33          6           0        3.959078   -0.023010    1.239791
     34          6           0        5.102979    0.529396   -1.258687
     35          1           0        3.085356    0.409006   -2.026305
     36          6           0        5.330952    0.162622    1.133853
     37          1           0        3.501995   -0.237374    2.207702
     38          6           0        5.917078    0.441080   -0.116446
     39          1           0        5.529025    0.744144   -2.237642
     40          1           0        5.981172    0.098999    2.007559
     41          8           0        7.253448    0.606272   -0.119602
     42          6           0        7.915605    0.892680   -1.335715
     43          1           0        8.981795    0.985133   -1.094148
     44          1           0        7.781223    0.080746   -2.071523
     45          1           0        7.561664    1.840901   -1.776426
     46          1           0       -2.985285    0.872024   -0.909949
     47          1           0       -6.369017   -1.027376    0.878905
     48          5           0       -5.742345    0.997486   -1.033843
     49          9           0       -5.066651    2.229582   -1.175196
     50          9           0       -6.960097    1.172544   -0.361618
     51          9           0       -5.953057    0.423546   -2.295025
 ---------------------------------------------------------------------
 Rotational constants (GHZ):      0.2929752      0.0650026      0.0579583
 Leave Link  202 at Mon Feb 22 10:07:23 2021, MaxMem=  5242880000 cpu:         0.3
 (Enter /opt/nce/packages/global/g09/l301.exe)
 Standard basis: def2TZVP (5D, 7F)
 Ernie: Thresh=  0.10000D-02 Tol=  0.10000D-05 Strict=F.
  1106 basis functions,  1784 primitive gaussians,  1266 cartesian basis functions
   111 alpha electrons      111 beta electrons
       nuclear repulsion energy      2965.7304009032 Hartrees.
 IExCor= 4336 DFT=T Ex+Corr=M062X ExCW=0 ScaHFX=  0.540000
 ScaDFX=  1.000000  1.000000  1.000000  1.000000 ScalE2=  1.000000  1.000000
 IRadAn=      5 IRanWt=     -1 IRanGd=            0 ICorTp=0 IEmpDi=  4
 NAtoms=   51 NActive=   51 NUniq=   51 SFac= 1.00D+00 NAtFMM=   60 NAOKFM=F Big=F
 Integral buffers will be    131072 words long.
 Raffenetti 2 integral format.
 Two-electron integral symmetry is turned off.
 ------------------------------------------------------------------------------
 Polarizable Continuum Model (PCM)
 =================================
 Model                : PCM (using non-symmetric T matrix).
 Atomic radii         : SMD-Coulomb.
 Polarization charges : Total charges.
 Charge compensation  : None.
 Solution method      : On-the-fly selection.
 Cavity type          : VdW (van der Waals Surface) (Alpha=1.000).
 Cavity algorithm     : GePol (No added spheres)
                        Default sphere list used, NSphG=   51.
                        Lebedev-Laikov grids with approx.  5.0 points / Ang**2.
                        Smoothing algorithm: York/Karplus (Gamma=1.0000).
                        Polarization charges: spherical gaussians, with
                                              point-specific exponents (IZeta= 3).
                        Self-potential: point-specific (ISelfS= 7).
                        Self-field    : sphere-specific E.n sum rule (ISelfD= 2).
 1st derivatives      : Analytical E(r).r(x)/FMM algorithm (CHGder, D1EAlg=3).
                        Cavity 1st derivative terms included.
 Solvent              : Acetonitrile, Eps=  35.688000 Eps(inf)=   1.806874
 ------------------------------------------------------------------------------
 GePol: Number of generator spheres                  =      51
 GePol: Total number of spheres                      =      51
 GePol: Number of exposed spheres                    =      51 (100.00%)
 GePol: Number of points                             =    3808
 GePol: Average weight of points                     =       0.12
 GePol: Minimum weight of points                     =   0.37D-09
 GePol: Maximum weight of points                     =    0.21559
 GePol: Number of points with low weight             =     215
 GePol: Fraction of low-weight points (<1% of avg)   =       5.65%
 GePol: Cavity surface area                          =    439.122 Ang**2
 GePol: Cavity volume                                =    430.984 Ang**3
 ------------------------------------------------------------------------------
 Atomic radii for non-electrostatic terms: SMD-CDS.
 ------------------------------------------------------------------------------
 PCM non-electrostatic energy =        -0.0068399174 Hartrees.
 Nuclear repulsion after PCM non-electrostatic terms =     2965.7235609858 Hartrees.
 Leave Link  301 at Mon Feb 22 10:07:24 2021, MaxMem=  5242880000 cpu:         9.8
 (Enter /opt/nce/packages/global/g09/l302.exe)
 NPDir=0 NMtPBC=     1 NCelOv=     1 NCel=       1 NClECP=     1 NCelD=      1
         NCelK=      1 NCelE2=     1 NClLst=     1 CellRange=     0.0.
 One-electron integrals computed using PRISM.
   1 Symmetry operations used in ECPInt.
 ECPInt:  NShTT=   91806 NPrTT=  285396 LenC2=   71439 LenP2D=  151316.
 LDataN:  DoStor=T MaxTD1= 6 Len=  172
 NBasis=  1106 RedAO= T EigKep=  5.29D-06  NBF=  1106
 NBsUse=  1106 1.00D-06 EigRej= -1.00D+00 NBFU=  1106
 Precomputing XC quadrature grid using
 IXCGrd= 4 IRadAn=           5 IRanWt=          -1 IRanGd=           0 AccXCQ= 0.00D+00.
 Generated NRdTot=       0 NPtTot=           0 NUsed=           0 NTot=          32
 NSgBfM=  1159  1159  1159  1163  1163 MxSgAt=    51 MxSgA2=    51.
 Leave Link  302 at Mon Feb 22 10:07:28 2021, MaxMem=  5242880000 cpu:        41.1
 (Enter /opt/nce/packages/global/g09/l303.exe)
 DipDrv:  MaxL=1.
 Leave Link  303 at Mon Feb 22 10:07:29 2021, MaxMem=  5242880000 cpu:         4.0
 (Enter /opt/nce/packages/global/g09/l401.exe)
 ExpMin= 6.06D-02 ExpMax= 3.55D+04 ExpMxC= 1.21D+03 IAcc=3 IRadAn=         5 AccDes= 0.00D+00
 Harris functional with IExCor= 1009 and IRadAn=       5 diagonalized for initial guess.
 HarFok:  IExCor= 1009 AccDes= 0.00D+00 IRadAn=         5 IDoV= 1 UseB2=F ITyADJ=14
 ICtDFT=  3500011 ScaDFX=  1.000000  1.000000  1.000000  1.000000
 FoFCou: FMM=F IPFlag=           0 FMFlag=      100000 FMFlg1=           0
         NFxFlg=           0 DoJE=T BraDBF=F KetDBF=T FulRan=T
         wScrn=  0.000000 ICntrl=     500 IOpCl=  0 I1Cent=   200000004 NGrid=           0
         NMat0=    1 NMatS0=      1 NMatT0=    0 NMatD0=    1 NMtDS0=    0 NMtDT0=    0
 Symmetry not used in FoFCou.
 Harris En= -1455.96002641613    
 JPrj=0 DoOrth=F DoCkMO=F.
 Leave Link  401 at Mon Feb 22 10:08:01 2021, MaxMem=  5242880000 cpu:       217.0
 (Enter /opt/nce/packages/global/g09/l502.exe)
 Closed shell SCF:
 Using DIIS extrapolation, IDIIS=  1040.
 Two-electron integral symmetry not used.
 IVT=     4849708 IEndB=     4849708 NGot=  5242880000 MDV=  5239650955
 LenX=  5239650955 LenY=  5238046933
 Requested convergence on RMS density matrix=1.00D-08 within 128 cycles.
 Requested convergence on MAX density matrix=1.00D-06.
 Requested convergence on             energy=1.00D-06.
 No special actions if energy rises.
 Fock matrices will be formed incrementally for  20 cycles.

 Cycle   1  Pass 1  IDiag  1:
 FoFJK:  IHMeth= 1 ICntrl=       0 DoSepK=F KAlg= 0 I1Cent=   0 FoldK=F
 IRaf= 660000000 NMat=   1 IRICut=       1 DoRegI=T DoRafI=F ISym2E= 0.
 FoFCou: FMM=F IPFlag=           0 FMFlag=      100000 FMFlg1=           0
         NFxFlg=           0 DoJE=F BraDBF=F KetDBF=F FulRan=T
         wScrn=  0.000000 ICntrl=       0 IOpCl=  0 I1Cent=           0 NGrid=           0
         NMat0=    1 NMatS0=      1 NMatT0=    0 NMatD0=    1 NMtDS0=    0 NMtDT0=    0
 Symmetry not used in FoFCou.
 Inv3:  Mode=1 IEnd=    43502592.
 Iteration    1 A*A^-1 deviation from unit magnitude is 6.88D-15 for   3808.
 Iteration    1 A*A^-1 deviation from orthogonality  is 2.66D-15 for   3239    419.
 Iteration    1 A^-1*A deviation from unit magnitude is 7.33D-15 for   3808.
 Iteration    1 A^-1*A deviation from orthogonality  is 2.34D-10 for   3221   3150.
 Iteration    2 A*A^-1 deviation from unit magnitude is 2.78D-15 for    417.
 Iteration    2 A*A^-1 deviation from orthogonality  is 2.22D-15 for   3003    315.
 Iteration    2 A^-1*A deviation from unit magnitude is 1.11D-15 for   3782.
 Iteration    2 A^-1*A deviation from orthogonality  is 3.81D-16 for   3757   2926.
 E= -1456.12085251979    
 DIIS: error= 2.97D-02 at cycle   1 NSaved=   1.
 NSaved= 1 IEnMin= 1 EnMin= -1456.12085251979     IErMin= 1 ErrMin= 2.97D-02
 ErrMax= 2.97D-02  0.00D+00 EMaxC= 1.00D-01 BMatC= 8.47D-01 BMatP= 8.47D-01
 IDIUse=3 WtCom= 7.03D-01 WtEn= 2.97D-01
 Coeff-Com:  0.100D+01
 Coeff-En:   0.100D+01
 Coeff:      0.100D+01
 Gap=     0.188 Goal=   None    Shift=    0.000
 GapD=    0.188 DampG=1.000 DampE=0.500 DampFc=0.5000 IDamp=-1.
 Damping current iteration by 5.00D-01
 RMSDP=2.01D-03 MaxDP=1.27D-01              OVMax= 2.08D-01

 Cycle   2  Pass 1  IDiag  1:
 RMSU=  9.95D-04    CP:  9.76D-01
 E= -1456.44351069674     Delta-E=       -0.322658176951 Rises=F Damp=T
 DIIS: error= 6.00D-03 at cycle   2 NSaved=   2.
 NSaved= 2 IEnMin= 2 EnMin= -1456.44351069674     IErMin= 2 ErrMin= 6.00D-03
 ErrMax= 6.00D-03  0.00D+00 EMaxC= 1.00D-01 BMatC= 8.93D-02 BMatP= 8.47D-01
 IDIUse=3 WtCom= 9.40D-01 WtEn= 6.00D-02
 Coeff-Com: -0.127D+00 0.113D+01
 Coeff-En:   0.000D+00 0.100D+01
 Coeff:     -0.119D+00 0.112D+01
 Gap=     0.233 Goal=   None    Shift=    0.000
 RMSDP=9.49D-04 MaxDP=6.42D-02 DE=-3.23D-01 OVMax= 2.11D-01

 Cycle   3  Pass 1  IDiag  1:
 RMSU=  8.72D-04    CP:  9.30D-01  1.29D+00
 E= -1456.73020529435     Delta-E=       -0.286694597615 Rises=F Damp=F
 DIIS: error= 6.19D-03 at cycle   3 NSaved=   3.
 NSaved= 3 IEnMin= 3 EnMin= -1456.73020529435     IErMin= 2 ErrMin= 6.00D-03
 ErrMax= 6.19D-03  0.00D+00 EMaxC= 1.00D-01 BMatC= 4.40D-02 BMatP= 8.93D-02
 IDIUse=3 WtCom= 9.38D-01 WtEn= 6.19D-02
 Coeff-Com: -0.136D+00 0.505D+00 0.631D+00
 Coeff-En:   0.000D+00 0.000D+00 0.100D+01
 Coeff:     -0.127D+00 0.473D+00 0.654D+00
 Gap=     0.193 Goal=   None    Shift=    0.000
 RMSDP=2.28D-04 MaxDP=3.26D-02 DE=-2.87D-01 OVMax= 8.50D-02

 Cycle   4  Pass 1  IDiag  1:
 RMSU=  2.19D-04    CP:  9.32D-01  1.33D+00  9.49D-01
 E= -1456.76476578596     Delta-E=       -0.034560491602 Rises=F Damp=F
 DIIS: error= 2.53D-03 at cycle   4 NSaved=   4.
 NSaved= 4 IEnMin= 4 EnMin= -1456.76476578596     IErMin= 4 ErrMin= 2.53D-03
 ErrMax= 2.53D-03  0.00D+00 EMaxC= 1.00D-01 BMatC= 7.91D-03 BMatP= 4.40D-02
 IDIUse=3 WtCom= 9.75D-01 WtEn= 2.53D-02
 Coeff-Com: -0.495D-01 0.130D+00 0.348D+00 0.571D+00
 Coeff-En:   0.000D+00 0.000D+00 0.124D+00 0.876D+00
 Coeff:     -0.482D-01 0.127D+00 0.342D+00 0.579D+00
 Gap=     0.185 Goal=   None    Shift=    0.000
 RMSDP=8.02D-05 MaxDP=1.13D-02 DE=-3.46D-02 OVMax= 2.84D-02

 Cycle   5  Pass 1  IDiag  1:
 RMSU=  5.85D-05    CP:  9.32D-01  1.33D+00  9.47D-01  7.50D-01
 E= -1456.77162155991     Delta-E=       -0.006855773959 Rises=F Damp=F
 DIIS: error= 5.51D-04 at cycle   5 NSaved=   5.
 NSaved= 5 IEnMin= 5 EnMin= -1456.77162155991     IErMin= 5 ErrMin= 5.51D-04
 ErrMax= 5.51D-04  0.00D+00 EMaxC= 1.00D-01 BMatC= 3.38D-04 BMatP= 7.91D-03
 IDIUse=3 WtCom= 9.94D-01 WtEn= 5.51D-03
 Coeff-Com: -0.125D-01 0.235D-01 0.115D+00 0.257D+00 0.617D+00
 Coeff-En:   0.000D+00 0.000D+00 0.000D+00 0.000D+00 0.100D+01
 Coeff:     -0.124D-01 0.234D-01 0.114D+00 0.255D+00 0.620D+00
 Gap=     0.187 Goal=   None    Shift=    0.000
 RMSDP=2.89D-05 MaxDP=3.17D-03 DE=-6.86D-03 OVMax= 6.44D-03

 Cycle   6  Pass 1  IDiag  1:
 RMSU=  2.74D-05    CP:  9.32D-01  1.33D+00  9.44D-01  7.36D-01  8.84D-01
 E= -1456.77191862461     Delta-E=       -0.000297064694 Rises=F Damp=F
 DIIS: error= 2.16D-04 at cycle   6 NSaved=   6.
 NSaved= 6 IEnMin= 6 EnMin= -1456.77191862461     IErMin= 6 ErrMin= 2.16D-04
 ErrMax= 2.16D-04  0.00D+00 EMaxC= 1.00D-01 BMatC= 3.29D-05 BMatP= 3.38D-04
 IDIUse=3 WtCom= 9.98D-01 WtEn= 2.16D-03
 Coeff-Com: -0.104D-02-0.270D-03 0.175D-01 0.445D-01 0.268D+00 0.672D+00
 Coeff-En:   0.000D+00 0.000D+00 0.000D+00 0.000D+00 0.000D+00 0.100D+01
 Coeff:     -0.103D-02-0.269D-03 0.175D-01 0.444D-01 0.267D+00 0.672D+00
 Gap=     0.187 Goal=   None    Shift=    0.000
 RMSDP=9.93D-06 MaxDP=8.90D-04 DE=-2.97D-04 OVMax= 1.92D-03

 Cycle   7  Pass 1  IDiag  1:
 RMSU=  7.55D-06    CP:  9.32D-01  1.33D+00  9.43D-01  7.43D-01  9.72D-01
                    CP:  8.85D-01
 E= -1456.77195328964     Delta-E=       -0.000034665036 Rises=F Damp=F
 DIIS: error= 6.40D-05 at cycle   7 NSaved=   7.
 NSaved= 7 IEnMin= 7 EnMin= -1456.77195328964     IErMin= 7 ErrMin= 6.40D-05
 ErrMax= 6.40D-05  0.00D+00 EMaxC= 1.00D-01 BMatC= 3.62D-06 BMatP= 3.29D-05
 IDIUse=1 WtCom= 1.00D+00 WtEn= 0.00D+00
 Coeff-Com:  0.133D-02-0.337D-02-0.856D-02-0.209D-01 0.353D-01 0.271D+00
 Coeff-Com:  0.726D+00
 Coeff:      0.133D-02-0.337D-02-0.856D-02-0.209D-01 0.353D-01 0.271D+00
 Coeff:      0.726D+00
 Gap=     0.187 Goal=   None    Shift=    0.000
 RMSDP=3.71D-06 MaxDP=3.43D-04 DE=-3.47D-05 OVMax= 9.68D-04

 Cycle   8  Pass 1  IDiag  1:
 RMSU=  2.55D-06    CP:  9.32D-01  1.33D+00  9.42D-01  7.43D-01  9.89D-01
                    CP:  9.59D-01  1.15D+00
 E= -1456.77195746166     Delta-E=       -0.000004172016 Rises=F Damp=F
 DIIS: error= 2.28D-05 at cycle   8 NSaved=   8.
 NSaved= 8 IEnMin= 8 EnMin= -1456.77195746166     IErMin= 8 ErrMin= 2.28D-05
 ErrMax= 2.28D-05  0.00D+00 EMaxC= 1.00D-01 BMatC= 4.84D-07 BMatP= 3.62D-06
 IDIUse=1 WtCom= 1.00D+00 WtEn= 0.00D+00
 Coeff-Com:  0.704D-03-0.144D-02-0.560D-02-0.155D-01-0.187D-01 0.984D-02
 Coeff-Com:  0.281D+00 0.749D+00
 Coeff:      0.704D-03-0.144D-02-0.560D-02-0.155D-01-0.187D-01 0.984D-02
 Coeff:      0.281D+00 0.749D+00
 Gap=     0.187 Goal=   None    Shift=    0.000
 RMSDP=1.61D-06 MaxDP=1.44D-04 DE=-4.17D-06 OVMax= 3.13D-04

 Cycle   9  Pass 1  IDiag  1:
 RMSU=  1.01D-06    CP:  9.32D-01  1.33D+00  9.42D-01  7.43D-01  1.00D+00
                    CP:  9.77D-01  1.26D+00  1.08D+00
 E= -1456.77195813506     Delta-E=       -0.000000673397 Rises=F Damp=F
 DIIS: error= 1.01D-05 at cycle   9 NSaved=   9.
 NSaved= 9 IEnMin= 9 EnMin= -1456.77195813506     IErMin= 9 ErrMin= 1.01D-05
 ErrMax= 1.01D-05  0.00D+00 EMaxC= 1.00D-01 BMatC= 3.89D-08 BMatP= 4.84D-07
 IDIUse=1 WtCom= 1.00D+00 WtEn= 0.00D+00
 Coeff-Com:  0.471D-04-0.323D-04-0.355D-03-0.203D-02-0.595D-02-0.257D-01
 Coeff-Com: -0.288D-02 0.163D+00 0.874D+00
 Coeff:      0.471D-04-0.323D-04-0.355D-03-0.203D-02-0.595D-02-0.257D-01
 Coeff:     -0.288D-02 0.163D+00 0.874D+00
 Gap=     0.187 Goal=   None    Shift=    0.000
 RMSDP=5.05D-07 MaxDP=4.35D-05 DE=-6.73D-07 OVMax= 2.14D-04

 Cycle  10  Pass 1  IDiag  1:
 RMSU=  3.54D-07    CP:  9.32D-01  1.33D+00  9.42D-01  7.42D-01  1.00D+00
                    CP:  9.78D-01  1.29D+00  1.17D+00  1.15D+00
 E= -1456.77195821434     Delta-E=       -0.000000079282 Rises=F Damp=F
 DIIS: error= 3.94D-06 at cycle  10 NSaved=  10.
 NSaved=10 IEnMin=10 EnMin= -1456.77195821434     IErMin=10 ErrMin= 3.94D-06
 ErrMax= 3.94D-06  0.00D+00 EMaxC= 1.00D-01 BMatC= 1.29D-08 BMatP= 3.89D-08
 IDIUse=1 WtCom= 1.00D+00 WtEn= 0.00D+00
 Coeff-Com: -0.931D-04 0.223D-03 0.815D-03 0.154D-02 0.691D-03-0.153D-01
 Coeff-Com: -0.495D-01-0.640D-01 0.412D+00 0.713D+00
 Coeff:     -0.931D-04 0.223D-03 0.815D-03 0.154D-02 0.691D-03-0.153D-01
 Coeff:     -0.495D-01-0.640D-01 0.412D+00 0.713D+00
 Gap=     0.187 Goal=   None    Shift=    0.000
 RMSDP=2.61D-07 MaxDP=2.31D-05 DE=-7.93D-08 OVMax= 9.51D-05

 Cycle  11  Pass 1  IDiag  1:
 RMSU=  1.45D-07    CP:  9.32D-01  1.33D+00  9.42D-01  7.42D-01  1.00D+00
                    CP:  9.78D-01  1.30D+00  1.21D+00  1.28D+00  1.16D+00
 E= -1456.77195823410     Delta-E=       -0.000000019760 Rises=F Damp=F
 DIIS: error= 1.56D-06 at cycle  11 NSaved=  11.
 NSaved=11 IEnMin=11 EnMin= -1456.77195823410     IErMin=11 ErrMin= 1.56D-06
 ErrMax= 1.56D-06  0.00D+00 EMaxC= 1.00D-01 BMatC= 9.58D-10 BMatP= 1.29D-08
 IDIUse=1 WtCom= 1.00D+00 WtEn= 0.00D+00
 Coeff-Com: -0.303D-04 0.636D-04 0.310D-03 0.669D-03 0.125D-02-0.189D-02
 Coeff-Com: -0.137D-01-0.428D-01 0.290D-01 0.190D+00 0.838D+00
 Coeff:     -0.303D-04 0.636D-04 0.310D-03 0.669D-03 0.125D-02-0.189D-02
 Coeff:     -0.137D-01-0.428D-01 0.290D-01 0.190D+00 0.838D+00
 Gap=     0.187 Goal=   None    Shift=    0.000
 RMSDP=8.64D-08 MaxDP=6.63D-06 DE=-1.98D-08 OVMax= 4.43D-05

 Cycle  12  Pass 1  IDiag  1:
 RMSU=  5.30D-08    CP:  9.32D-01  1.33D+00  9.42D-01  7.42D-01  1.00D+00
                    CP:  9.78D-01  1.30D+00  1.21D+00  1.31D+00  1.29D+00
                    CP:  1.15D+00
 E= -1456.77195823611     Delta-E=       -0.000000002010 Rises=F Damp=F
 DIIS: error= 6.31D-07 at cycle  12 NSaved=  12.
 NSaved=12 IEnMin=12 EnMin= -1456.77195823611     IErMin=12 ErrMin= 6.31D-07
 ErrMax= 6.31D-07  0.00D+00 EMaxC= 1.00D-01 BMatC= 2.06D-10 BMatP= 9.58D-10
 IDIUse=1 WtCom= 1.00D+00 WtEn= 0.00D+00
 Coeff-Com:  0.426D-05-0.120D-04-0.580D-05-0.209D-04 0.406D-03 0.140D-02
 Coeff-Com:  0.289D-02-0.659D-02-0.456D-01-0.511D-01 0.316D+00 0.783D+00
 Coeff:      0.426D-05-0.120D-04-0.580D-05-0.209D-04 0.406D-03 0.140D-02
 Coeff:      0.289D-02-0.659D-02-0.456D-01-0.511D-01 0.316D+00 0.783D+00
 Gap=     0.187 Goal=   None    Shift=    0.000
 RMSDP=3.71D-08 MaxDP=3.30D-06 DE=-2.01D-09 OVMax= 1.79D-05

 Cycle  13  Pass 1  IDiag  1:
 RMSU=  2.15D-08    CP:  9.32D-01  1.33D+00  9.42D-01  7.42D-01  1.00D+00
                    CP:  9.77D-01  1.30D+00  1.21D+00  1.32D+00  1.33D+00
                    CP:  1.28D+00  1.20D+00
 E= -1456.77195823656     Delta-E=       -0.000000000447 Rises=F Damp=F
 DIIS: error= 2.33D-07 at cycle  13 NSaved=  13.
 NSaved=13 IEnMin=13 EnMin= -1456.77195823656     IErMin=13 ErrMin= 2.33D-07
 ErrMax= 2.33D-07  0.00D+00 EMaxC= 1.00D-01 BMatC= 2.30D-11 BMatP= 2.06D-10
 IDIUse=1 WtCom= 1.00D+00 WtEn= 0.00D+00
 Coeff-Com:  0.584D-05-0.128D-04-0.426D-04-0.107D-03-0.359D-04 0.615D-03
 Coeff-Com:  0.283D-02 0.372D-02-0.148D-01-0.458D-01-0.390D-01 0.197D+00
 Coeff-Com:  0.896D+00
 Coeff:      0.584D-05-0.128D-04-0.426D-04-0.107D-03-0.359D-04 0.615D-03
 Coeff:      0.283D-02 0.372D-02-0.148D-01-0.458D-01-0.390D-01 0.197D+00
 Coeff:      0.896D+00
 Gap=     0.187 Goal=   None    Shift=    0.000
 RMSDP=1.83D-08 MaxDP=1.43D-06 DE=-4.47D-10 OVMax= 9.14D-06

 Cycle  14  Pass 1  IDiag  1:
 RMSU=  7.75D-09    CP:  9.32D-01  1.33D+00  9.42D-01  7.42D-01  1.00D+00
                    CP:  9.77D-01  1.30D+00  1.21D+00  1.32D+00  1.35D+00
                    CP:  1.33D+00  1.39D+00  1.24D+00
 E= -1456.77195823668     Delta-E=       -0.000000000126 Rises=F Damp=F
 DIIS: error= 9.55D-08 at cycle  14 NSaved=  14.
 NSaved=14 IEnMin=14 EnMin= -1456.77195823668     IErMin=14 ErrMin= 9.55D-08
 ErrMax= 9.55D-08  0.00D+00 EMaxC= 1.00D-01 BMatC= 3.67D-12 BMatP= 2.30D-11
 IDIUse=1 WtCom= 1.00D+00 WtEn= 0.00D+00
 Coeff-Com:  0.932D-06-0.178D-05-0.933D-05-0.275D-04-0.604D-04-0.722D-04
 Coeff-Com:  0.354D-03 0.179D-02 0.320D-02-0.652D-02-0.588D-01-0.577D-01
 Coeff-Com:  0.296D+00 0.822D+00
 Coeff:      0.932D-06-0.178D-05-0.933D-05-0.275D-04-0.604D-04-0.722D-04
 Coeff:      0.354D-03 0.179D-02 0.320D-02-0.652D-02-0.588D-01-0.577D-01
 Coeff:      0.296D+00 0.822D+00
 Gap=     0.187 Goal=   None    Shift=    0.000
 RMSDP=6.65D-09 MaxDP=5.52D-07 DE=-1.26D-10 OVMax= 3.26D-06

 Error on total polarization charges =  0.05862
 SCF Done:  E(RM062X) =  -1456.77195824     A.U. after   14 cycles
            NFock= 14  Conv=0.67D-08     -V/T= 2.0053
 KE= 1.449061170317D+03 PE=-9.331543630011D+03 EE= 3.459986940472D+03
 SMD-CDS (non-electrostatic) energy       (kcal/mol) =      -4.29
 (included in total energy above)
 Leave Link  502 at Mon Feb 22 10:43:27 2021, MaxMem=  5242880000 cpu:     25429.0
 (Enter /opt/nce/packages/global/g09/l601.exe)
 Copying SCF densities to generalized density rwf, IOpCl= 0 IROHF=0.

 **********************************************************************

            Population analysis using the SCF density.

 **********************************************************************

 Alpha  occ. eigenvalues --  -25.18636 -25.18620 -25.18421 -19.66357 -14.85068
 Alpha  occ. eigenvalues --  -10.63161 -10.63158 -10.61825 -10.61614 -10.59403
 Alpha  occ. eigenvalues --  -10.58829 -10.58797 -10.58323 -10.56957 -10.56928
 Alpha  occ. eigenvalues --  -10.56607 -10.56543 -10.56316 -10.56273 -10.56239
 Alpha  occ. eigenvalues --  -10.56182 -10.56133 -10.55734 -10.55669 -10.55275
 Alpha  occ. eigenvalues --  -10.55165 -10.55110 -10.54327 -10.54268 -10.53963
 Alpha  occ. eigenvalues --  -10.51094  -7.09220  -1.31539  -1.27465  -1.27222
 Alpha  occ. eigenvalues --   -1.20256  -1.13721  -1.00111  -0.98721  -0.96864
 Alpha  occ. eigenvalues --   -0.95573  -0.92481  -0.88423  -0.87373  -0.86660
 Alpha  occ. eigenvalues --   -0.85966  -0.84638  -0.83782  -0.83526  -0.79359
 Alpha  occ. eigenvalues --   -0.77013  -0.74602  -0.73441  -0.71147  -0.69889
 Alpha  occ. eigenvalues --   -0.68798  -0.68526  -0.66434  -0.64597  -0.64377
 Alpha  occ. eigenvalues --   -0.62840  -0.62649  -0.60756  -0.59420  -0.58345
 Alpha  occ. eigenvalues --   -0.57110  -0.56917  -0.56869  -0.55625  -0.55147
 Alpha  occ. eigenvalues --   -0.54848  -0.54819  -0.54024  -0.53329  -0.52328
 Alpha  occ. eigenvalues --   -0.52228  -0.51572  -0.51358  -0.50616  -0.50349
 Alpha  occ. eigenvalues --   -0.50014  -0.49049  -0.48857  -0.48385  -0.48060
 Alpha  occ. eigenvalues --   -0.47041  -0.46535  -0.46116  -0.45717  -0.45664
 Alpha  occ. eigenvalues --   -0.45544  -0.44490  -0.44243  -0.44101  -0.43625
 Alpha  occ. eigenvalues --   -0.42484  -0.42149  -0.41987  -0.41629  -0.39833
 Alpha  occ. eigenvalues --   -0.39563  -0.39267  -0.38465  -0.34016  -0.33862
 Alpha  occ. eigenvalues --   -0.32252  -0.32172  -0.30965  -0.30365  -0.28969
 Alpha  occ. eigenvalues --   -0.28115
 Alpha virt. eigenvalues --   -0.09426  -0.02025  -0.00250   0.00140   0.01410
 Alpha virt. eigenvalues --    0.01736   0.02631   0.03593   0.07052   0.07240
 Alpha virt. eigenvalues --    0.07898   0.07990   0.09294   0.09586   0.09992
 Alpha virt. eigenvalues --    0.10593   0.10831   0.11194   0.11706   0.11816
 Alpha virt. eigenvalues --    0.12296   0.12854   0.12960   0.13348   0.14081
 Alpha virt. eigenvalues --    0.14380   0.14678   0.15146   0.15527   0.15747
 Alpha virt. eigenvalues --    0.16148   0.16480   0.16558   0.17158   0.17626
 Alpha virt. eigenvalues --    0.17882   0.18214   0.18775   0.19381   0.19697
 Alpha virt. eigenvalues --    0.20594   0.20984   0.21238   0.21943   0.22383
 Alpha virt. eigenvalues --    0.22508   0.23039   0.23485   0.23963   0.24155
 Alpha virt. eigenvalues --    0.24295   0.24757   0.25069   0.25370   0.25669
 Alpha virt. eigenvalues --    0.25745   0.26169   0.26519   0.26629   0.27082
 Alpha virt. eigenvalues --    0.27252   0.27507   0.27622   0.28230   0.28746
 Alpha virt. eigenvalues --    0.29221   0.29537   0.29717   0.30155   0.30896
 Alpha virt. eigenvalues --    0.31002   0.31318   0.31719   0.31966   0.32130
 Alpha virt. eigenvalues --    0.32287   0.32539   0.33008   0.33401   0.33701
 Alpha virt. eigenvalues --    0.33938   0.34450   0.35263   0.35631   0.35827
 Alpha virt. eigenvalues --    0.36169   0.36497   0.36924   0.37255   0.37675
 Alpha virt. eigenvalues --    0.37904   0.38061   0.38808   0.39120   0.39300
 Alpha virt. eigenvalues --    0.39531   0.39627   0.39905   0.40145   0.40492
 Alpha virt. eigenvalues --    0.41041   0.41149   0.41589   0.41854   0.42110
 Alpha virt. eigenvalues --    0.42405   0.42771   0.43311   0.43815   0.43998
 Alpha virt. eigenvalues --    0.44229   0.44415   0.44820   0.44921   0.45296
 Alpha virt. eigenvalues --    0.45645   0.45873   0.46530   0.46573   0.47081
 Alpha virt. eigenvalues --    0.47219   0.47269   0.47628   0.48055   0.48227
 Alpha virt. eigenvalues --    0.48617   0.48976   0.49191   0.49450   0.49802
 Alpha virt. eigenvalues --    0.50322   0.50712   0.50978   0.51139   0.51794
 Alpha virt. eigenvalues --    0.51915   0.52318   0.52505   0.52695   0.52739
 Alpha virt. eigenvalues --    0.53273   0.53595   0.53887   0.54249   0.54565
 Alpha virt. eigenvalues --    0.55596   0.56493   0.57069   0.57531   0.57745
 Alpha virt. eigenvalues --    0.58274   0.59241   0.59675   0.60482   0.60590
 Alpha virt. eigenvalues --    0.61473   0.61964   0.62234   0.62851   0.63156
 Alpha virt. eigenvalues --    0.63267   0.63737   0.64762   0.64922   0.65213
 Alpha virt. eigenvalues --    0.65529   0.65963   0.66530   0.67112   0.67420
 Alpha virt. eigenvalues --    0.67564   0.68180   0.68514   0.68631   0.69043
 Alpha virt. eigenvalues --    0.69301   0.69430   0.70150   0.70398   0.70466
 Alpha virt. eigenvalues --    0.70977   0.71814   0.71871   0.72015   0.72634
 Alpha virt. eigenvalues --    0.72835   0.72963   0.73202   0.74001   0.74116
 Alpha virt. eigenvalues --    0.74607   0.74742   0.75020   0.75420   0.75838
 Alpha virt. eigenvalues --    0.76139   0.76445   0.76675   0.76722   0.77192
 Alpha virt. eigenvalues --    0.77561   0.77966   0.78266   0.78562   0.78923
 Alpha virt. eigenvalues --    0.79213   0.79838   0.80396   0.80687   0.81161
 Alpha virt. eigenvalues --    0.81588   0.82092   0.82250   0.82564   0.83637
 Alpha virt. eigenvalues --    0.84002   0.84156   0.84452   0.84925   0.85497
 Alpha virt. eigenvalues --    0.86098   0.86581   0.86782   0.87680   0.88004
 Alpha virt. eigenvalues --    0.88631   0.88923   0.89284   0.89439   0.89723
 Alpha virt. eigenvalues --    0.90406   0.90621   0.91064   0.91595   0.92119
 Alpha virt. eigenvalues --    0.92912   0.92957   0.94453   0.94585   0.95131
 Alpha virt. eigenvalues --    0.95614   0.96135   0.96626   0.96903   0.97669
 Alpha virt. eigenvalues --    0.98679   0.98838   0.99080   1.00079   1.00552
 Alpha virt. eigenvalues --    1.01348   1.02172   1.02313   1.02626   1.03560
 Alpha virt. eigenvalues --    1.03903   1.05102   1.05889   1.06583   1.06943
 Alpha virt. eigenvalues --    1.07378   1.07967   1.08175   1.09340   1.10127
 Alpha virt. eigenvalues --    1.10380   1.10714   1.11553   1.11717   1.12475
 Alpha virt. eigenvalues --    1.12847   1.13054   1.13949   1.14641   1.15241
 Alpha virt. eigenvalues --    1.15582   1.16719   1.16984   1.17495   1.19427
 Alpha virt. eigenvalues --    1.19603   1.19882   1.20875   1.21471   1.21969
 Alpha virt. eigenvalues --    1.22426   1.23107   1.23467   1.24217   1.24595
 Alpha virt. eigenvalues --    1.25218   1.25816   1.26340   1.26683   1.27054
 Alpha virt. eigenvalues --    1.27570   1.28084   1.28647   1.28887   1.29405
 Alpha virt. eigenvalues --    1.29846   1.31002   1.31074   1.31410   1.32056
 Alpha virt. eigenvalues --    1.32984   1.33174   1.33508   1.33672   1.33897
 Alpha virt. eigenvalues --    1.34355   1.35674   1.36054   1.36483   1.37132
 Alpha virt. eigenvalues --    1.37686   1.39018   1.39889   1.40415   1.41029
 Alpha virt. eigenvalues --    1.42037   1.42508   1.44323   1.44610   1.44745
 Alpha virt. eigenvalues --    1.45713   1.46019   1.47278   1.47642   1.48309
 Alpha virt. eigenvalues --    1.48542   1.48955   1.49730   1.50581   1.51129
 Alpha virt. eigenvalues --    1.51478   1.51937   1.52165   1.52535   1.53385
 Alpha virt. eigenvalues --    1.54265   1.54598   1.55074   1.55971   1.56125
 Alpha virt. eigenvalues --    1.56665   1.56893   1.57223   1.57551   1.58391
 Alpha virt. eigenvalues --    1.58451   1.58684   1.59444   1.59995   1.60328
 Alpha virt. eigenvalues --    1.61067   1.61431   1.62109   1.62184   1.62568
 Alpha virt. eigenvalues --    1.62839   1.63453   1.64746   1.65247   1.65376
 Alpha virt. eigenvalues --    1.65884   1.66443   1.67311   1.67765   1.68415
 Alpha virt. eigenvalues --    1.68921   1.69526   1.70123   1.70620   1.71196
 Alpha virt. eigenvalues --    1.71459   1.72212   1.72507   1.72810   1.73285
 Alpha virt. eigenvalues --    1.73683   1.74311   1.74948   1.75197   1.76076
 Alpha virt. eigenvalues --    1.76513   1.77346   1.78098   1.78506   1.78785
 Alpha virt. eigenvalues --    1.79121   1.79314   1.79938   1.80846   1.81093
 Alpha virt. eigenvalues --    1.81619   1.81702   1.83126   1.83521   1.84788
 Alpha virt. eigenvalues --    1.86693   1.86806   1.87425   1.87651   1.88166
 Alpha virt. eigenvalues --    1.88464   1.89305   1.89897   1.90872   1.91217
 Alpha virt. eigenvalues --    1.91610   1.92125   1.92262   1.92515   1.92903
 Alpha virt. eigenvalues --    1.94424   1.94822   1.95962   1.96826   1.97480
 Alpha virt. eigenvalues --    1.97992   1.98300   1.98573   1.99136   2.00511
 Alpha virt. eigenvalues --    2.00901   2.01927   2.02372   2.02768   2.03387
 Alpha virt. eigenvalues --    2.04060   2.04663   2.05251   2.06403   2.07152
 Alpha virt. eigenvalues --    2.08005   2.08851   2.09075   2.10279   2.10673
 Alpha virt. eigenvalues --    2.10788   2.11748   2.12530   2.13131   2.13513
 Alpha virt. eigenvalues --    2.13826   2.14627   2.15377   2.15936   2.16459
 Alpha virt. eigenvalues --    2.17320   2.18463   2.18546   2.19179   2.19474
 Alpha virt. eigenvalues --    2.19982   2.20151   2.20500   2.21140   2.21998
 Alpha virt. eigenvalues --    2.22798   2.24328   2.24623   2.25091   2.25241
 Alpha virt. eigenvalues --    2.25947   2.26187   2.27868   2.28031   2.28425
 Alpha virt. eigenvalues --    2.28756   2.29729   2.30421   2.30783   2.31078
 Alpha virt. eigenvalues --    2.32115   2.33006   2.33921   2.33956   2.34928
 Alpha virt. eigenvalues --    2.35599   2.36505   2.36740   2.36925   2.39347
 Alpha virt. eigenvalues --    2.40517   2.40853   2.41515   2.42021   2.42540
 Alpha virt. eigenvalues --    2.42935   2.44236   2.44876   2.45774   2.46611
 Alpha virt. eigenvalues --    2.46961   2.48634   2.49614   2.49775   2.50639
 Alpha virt. eigenvalues --    2.51032   2.52527   2.52852   2.53620   2.54868
 Alpha virt. eigenvalues --    2.55075   2.55472   2.55879   2.56057   2.56293
 Alpha virt. eigenvalues --    2.57399   2.57485   2.57662   2.59213   2.59936
 Alpha virt. eigenvalues --    2.60499   2.60909   2.61373   2.61820   2.62216
 Alpha virt. eigenvalues --    2.62992   2.63439   2.63758   2.64421   2.65041
 Alpha virt. eigenvalues --    2.65393   2.65819   2.66288   2.67379   2.67722
 Alpha virt. eigenvalues --    2.67879   2.68180   2.68656   2.69066   2.69101
 Alpha virt. eigenvalues --    2.69871   2.70010   2.70495   2.70950   2.71170
 Alpha virt. eigenvalues --    2.71506   2.71641   2.71979   2.72380   2.72771
 Alpha virt. eigenvalues --    2.73175   2.73855   2.74122   2.74200   2.74842
 Alpha virt. eigenvalues --    2.75639   2.76110   2.76616   2.76964   2.77378
 Alpha virt. eigenvalues --    2.77916   2.78240   2.78727   2.79399   2.79626
 Alpha virt. eigenvalues --    2.79878   2.80530   2.80828   2.81414   2.82048
 Alpha virt. eigenvalues --    2.82660   2.83033   2.83550   2.83679   2.84250
 Alpha virt. eigenvalues --    2.84453   2.84717   2.85199   2.86108   2.86434
 Alpha virt. eigenvalues --    2.86556   2.86988   2.88008   2.88338   2.88589
 Alpha virt. eigenvalues --    2.89013   2.89347   2.89707   2.90402   2.91486
 Alpha virt. eigenvalues --    2.91623   2.92379   2.92469   2.93181   2.93277
 Alpha virt. eigenvalues --    2.94064   2.94970   2.95382   2.96276   2.96450
 Alpha virt. eigenvalues --    2.96963   2.97290   2.98257   2.99046   2.99506
 Alpha virt. eigenvalues --    3.00141   3.00362   3.00930   3.01619   3.02105
 Alpha virt. eigenvalues --    3.03132   3.03332   3.03533   3.04146   3.04416
 Alpha virt. eigenvalues --    3.04894   3.05815   3.06027   3.06295   3.06877
 Alpha virt. eigenvalues --    3.06942   3.07666   3.08228   3.08873   3.09637
 Alpha virt. eigenvalues --    3.10379   3.10755   3.11398   3.11773   3.12234
 Alpha virt. eigenvalues --    3.12588   3.13741   3.13990   3.14527   3.14905
 Alpha virt. eigenvalues --    3.15163   3.15388   3.15800   3.16135   3.16565
 Alpha virt. eigenvalues --    3.16811   3.17267   3.18220   3.18374   3.18629
 Alpha virt. eigenvalues --    3.19519   3.19679   3.20539   3.20931   3.21148
 Alpha virt. eigenvalues --    3.21345   3.22006   3.22131   3.22730   3.23308
 Alpha virt. eigenvalues --    3.24228   3.24689   3.25283   3.25832   3.26326
 Alpha virt. eigenvalues --    3.26658   3.27970   3.28118   3.28731   3.29159
 Alpha virt. eigenvalues --    3.29455   3.29564   3.30008   3.30657   3.31326
 Alpha virt. eigenvalues --    3.31525   3.31877   3.32024   3.32590   3.33263
 Alpha virt. eigenvalues --    3.34018   3.34209   3.34557   3.34959   3.35464
 Alpha virt. eigenvalues --    3.35864   3.36361   3.36720   3.37141   3.37673
 Alpha virt. eigenvalues --    3.38117   3.38244   3.38337   3.39703   3.40178
 Alpha virt. eigenvalues --    3.40383   3.40639   3.41085   3.41648   3.42103
 Alpha virt. eigenvalues --    3.42754   3.43212   3.43683   3.44215   3.44760
 Alpha virt. eigenvalues --    3.44879   3.45237   3.45566   3.46066   3.46586
 Alpha virt. eigenvalues --    3.46997   3.47436   3.47816   3.48466   3.48540
 Alpha virt. eigenvalues --    3.49418   3.49995   3.50013   3.51064   3.51215
 Alpha virt. eigenvalues --    3.51510   3.52244   3.52395   3.52516   3.53036
 Alpha virt. eigenvalues --    3.53076   3.53674   3.54205   3.54424   3.55047
 Alpha virt. eigenvalues --    3.55554   3.56299   3.57275   3.57571   3.58106
 Alpha virt. eigenvalues --    3.59050   3.59177   3.59357   3.59842   3.60823
 Alpha virt. eigenvalues --    3.61817   3.63108   3.64241   3.64596   3.65519
 Alpha virt. eigenvalues --    3.65674   3.65901   3.66324   3.66953   3.68265
 Alpha virt. eigenvalues --    3.69048   3.70135   3.70436   3.72631   3.73083
 Alpha virt. eigenvalues --    3.73947   3.74706   3.75642   3.76379   3.77093
 Alpha virt. eigenvalues --    3.78016   3.78591   3.79585   3.80035   3.81284
 Alpha virt. eigenvalues --    3.81918   3.82466   3.83459   3.84839   3.85746
 Alpha virt. eigenvalues --    3.86710   3.87253   3.88392   3.89066   3.89462
 Alpha virt. eigenvalues --    3.91022   3.92613   3.93790   3.94601   3.95067
 Alpha virt. eigenvalues --    3.96182   3.97177   3.97315   3.97908   3.98577
 Alpha virt. eigenvalues --    3.99911   4.00109   4.01779   4.02429   4.03061
 Alpha virt. eigenvalues --    4.03582   4.04634   4.04976   4.05977   4.06414
 Alpha virt. eigenvalues --    4.06863   4.07471   4.08503   4.08970   4.09737
 Alpha virt. eigenvalues --    4.10332   4.10669   4.11446   4.11746   4.12788
 Alpha virt. eigenvalues --    4.13189   4.13310   4.14379   4.14557   4.14757
 Alpha virt. eigenvalues --    4.15970   4.16300   4.16917   4.17744   4.17859
 Alpha virt. eigenvalues --    4.18493   4.18953   4.19264   4.19434   4.19947
 Alpha virt. eigenvalues --    4.20505   4.21315   4.21895   4.22848   4.23497
 Alpha virt. eigenvalues --    4.24125   4.24428   4.25566   4.26278   4.27673
 Alpha virt. eigenvalues --    4.29348   4.30449   4.30645   4.30976   4.32327
 Alpha virt. eigenvalues --    4.32605   4.34795   4.36198   4.36781   4.37041
 Alpha virt. eigenvalues --    4.38797   4.39412   4.39820   4.41047   4.43187
 Alpha virt. eigenvalues --    4.44803   4.45713   4.46242   4.48528   4.49457
 Alpha virt. eigenvalues --    4.50471   4.51572   4.52368   4.53788   4.54277
 Alpha virt. eigenvalues --    4.55367   4.56680   4.56920   4.57643   4.60133
 Alpha virt. eigenvalues --    4.60341   4.60790   4.61830   4.63485   4.66340
 Alpha virt. eigenvalues --    4.66991   4.68814   4.71013   4.73671   4.73969
 Alpha virt. eigenvalues --    4.75020   4.77379   4.77872   4.78436   4.80186
 Alpha virt. eigenvalues --    4.80843   4.81910   4.82118   4.86523   4.88065
 Alpha virt. eigenvalues --    4.89119   4.90050   4.91132   4.93941   4.96133
 Alpha virt. eigenvalues --    4.97255   4.98426   4.99023   4.99733   5.04539
 Alpha virt. eigenvalues --    5.06129   5.06409   5.08304   5.10897   5.12547
 Alpha virt. eigenvalues --    5.14054   5.17292   5.18759   5.19074   5.20198
 Alpha virt. eigenvalues --    5.20695   5.21797   5.26831   5.29682   5.29952
 Alpha virt. eigenvalues --    5.32106   5.34350   5.35675   5.38810   5.40050
 Alpha virt. eigenvalues --    5.40945   5.45983   5.46196   5.47711   5.49590
 Alpha virt. eigenvalues --    5.51990   5.55713   5.61435   5.63663   5.68377
 Alpha virt. eigenvalues --    5.70259   5.71902   5.75042   5.75318   5.91792
 Alpha virt. eigenvalues --    5.93046   5.95781   6.01219   6.13987   6.30901
 Alpha virt. eigenvalues --    6.31087   6.50863   6.62773   6.76509   6.84944
 Alpha virt. eigenvalues --    6.91801   6.95004   6.95308   6.95723   6.95967
 Alpha virt. eigenvalues --    6.96051   6.96378   6.96702   6.97384   7.04940
 Alpha virt. eigenvalues --    7.09243   7.10450   7.11334   7.12603   7.13008
 Alpha virt. eigenvalues --    7.15031   7.28447   7.30078   7.30616   7.32876
 Alpha virt. eigenvalues --    7.37628   7.41760   7.42150   8.37129   8.40488
 Alpha virt. eigenvalues --    8.40848   8.53046   8.53705   8.58241   8.83061
 Alpha virt. eigenvalues --    8.84205   8.85818   8.86424   8.90699   8.91130
 Alpha virt. eigenvalues --    8.91735   8.95782   8.98018  15.74036  22.31913
 Alpha virt. eigenvalues --   22.43667  22.46214  22.52945  22.56195  22.70614
 Alpha virt. eigenvalues --   22.72220  22.73559  22.73876  22.75752  22.77799
 Alpha virt. eigenvalues --   22.80203  22.82304  22.86227  22.88631  22.91897
 Alpha virt. eigenvalues --   22.98730  23.02025  23.04514  23.10552  23.16478
 Alpha virt. eigenvalues --   23.22961  23.35961  23.40277  23.45625  23.76728
 Alpha virt. eigenvalues --   33.41894  44.37529  57.25598  57.32056  57.38184
          Condensed to atoms (all electrons):
 Mulliken charges:
               1
     1  C   -0.139530
     2  C   -0.185024
     3  C    0.107056
     4  C    0.109844
     5  C   -0.266724
     6  C   -0.172725
     7  C    0.197084
     8  C    0.101511
     9  C    0.108933
    10  C   -0.188136
    11  H    0.218740
    12  C   -0.136166
    13  C   -0.176666
    14  C   -0.257745
    15  H    0.198827
    16  H    0.218960
    17  H    0.243519
    18  H    0.195261
    19  H    0.199072
    20  H    0.195439
    21  H    0.235726
    22  N    0.062074
    23  C    0.020965
    24  C   -0.365508
    25  C   -0.300902
    26  C   -0.086187
    27  C   -0.165731
    28  C   -0.234114
    29  H    0.183128
    30  H    0.223294
    31  C   -0.167122
    32  C   -0.169788
    33  C   -0.151870
    34  C   -0.226601
    35  H    0.202202
    36  C   -0.199497
    37  H    0.198368
    38  C    0.304982
    39  H    0.210598
    40  H    0.191210
    41  O   -0.285390
    42  C   -0.320554
    43  H    0.176107
    44  H    0.172101
    45  H    0.172273
    46  H    0.230645
    47  H    0.176208
    48  B    0.606462
    49  F   -0.428016
    50  F   -0.422128
    51  F   -0.414468
 Sum of Mulliken charges =  -0.00000
 Mulliken charges with hydrogens summed into heavy atoms:
               1
     1  C    0.059297
     2  C    0.033936
     3  C    0.107056
     4  C    0.109844
     5  C   -0.023205
     6  C    0.022536
     7  C    0.197084
     8  C    0.101511
     9  C    0.108933
    10  C    0.030605
    12  C    0.062906
    13  C    0.018773
    14  C   -0.022019
    22  N    0.062074
    23  C    0.020965
    24  C   -0.134863
    25  C   -0.077609
    26  C   -0.086187
    27  C    0.017397
    28  C   -0.057905
    31  C   -0.167122
    32  C    0.032414
    33  C    0.046498
    34  C   -0.016003
    36  C   -0.008288
    38  C    0.304982
    41  O   -0.285390
    42  C    0.199928
    48  B    0.606462
    49  F   -0.428016
    50  F   -0.422128
    51  F   -0.414468
 Electronic spatial extent (au):  <R**2>=          17450.0984
 Charge=             -0.0000 electrons
 Dipole moment (field-independent basis, Debye):
    X=             30.6628    Y=             -5.7600    Z=              4.6226  Tot=             31.5397
 Quadrupole moment (field-independent basis, Debye-Ang):
   XX=           -273.3405   YY=           -155.8912   ZZ=           -184.0181
   XY=             34.7430   XZ=            -47.9402   YZ=              5.7911
[...]
 Alpha virt. eigenvalues --    0.61440   0.62152   0.62532   0.63182   0.63544
 Alpha virt. eigenvalues --    0.63840   0.64078   0.64659   0.65222   0.65972
 Alpha virt. eigenvalues --    0.66084   0.66460   0.66752   0.67424   0.67768
 Alpha virt. eigenvalues --    0.68237   0.68270   0.68723   0.68916   0.69216
 Alpha virt. eigenvalues --    0.69644   0.70012   0.70507   0.70680   0.70806
 Alpha virt. eigenvalues --    0.71198   0.72086   0.72475   0.72691   0.72942
 Alpha virt. eigenvalues --    0.73439   0.73659   0.73849   0.74129   0.74462
 Alpha virt. eigenvalues --    0.74705   0.75029   0.75402   0.75896   0.76470
 Alpha virt. eigenvalues --    0.76610   0.76945   0.77000   0.77228   0.77890
 Alpha virt. eigenvalues --    0.78331   0.78370   0.78761   0.79154   0.79234
 Alpha virt. eigenvalues --    0.79513   0.79997   0.80907   0.81041   0.81495
 Alpha virt. eigenvalues --    0.81817   0.82643   0.82738   0.83260   0.83988
 Alpha virt. eigenvalues --    0.84050   0.84845   0.85007   0.85931   0.86198
 Alpha virt. eigenvalues --    0.86318   0.86879   0.87297   0.87946   0.88364
 Alpha virt. eigenvalues --    0.88734   0.89011   0.89625   0.89842   0.90399
 Alpha virt. eigenvalues --    0.90888   0.91094   0.91354   0.91704   0.92275
 Alpha virt. eigenvalues --    0.92907   0.93071   0.94394   0.94829   0.95599
 Alpha virt. eigenvalues --    0.96232   0.96580   0.96976   0.97646   0.97990
 Alpha virt. eigenvalues --    0.98820   0.99234   0.99374   1.00186   1.00542
 Alpha virt. eigenvalues --    1.01408   1.02296   1.02824   1.03145   1.04076
 Alpha virt. eigenvalues --    1.04223   1.05431   1.06347   1.07247   1.07419
 Alpha virt. eigenvalues --    1.07687   1.08225   1.08558   1.09873   1.10415
 Alpha virt. eigenvalues --    1.10902   1.11454   1.11615   1.12082   1.12429
 Alpha virt. eigenvalues --    1.13341   1.13866   1.14083   1.14744   1.15665
 Alpha virt. eigenvalues --    1.16608   1.17251   1.18187   1.19005   1.19135
 Alpha virt. eigenvalues --    1.19927   1.20434   1.21050   1.21313   1.22366
 Alpha virt. eigenvalues --    1.22744   1.23319   1.24130   1.25110   1.25174
 Alpha virt. eigenvalues --    1.25923   1.26219   1.26934   1.27333   1.27521
 Alpha virt. eigenvalues --    1.28189   1.28523   1.29361   1.29458   1.29907
 Alpha virt. eigenvalues --    1.30584   1.30862   1.31538   1.32120   1.32897
 Alpha virt. eigenvalues --    1.33361   1.33857   1.33910   1.34555   1.34831
 Alpha virt. eigenvalues --    1.35360   1.36476   1.37046   1.37193   1.37827
 Alpha virt. eigenvalues --    1.38989   1.40208   1.40407   1.41443   1.41864
 Alpha virt. eigenvalues --    1.42592   1.43209   1.44068   1.44793   1.45794
 Alpha virt. eigenvalues --    1.46379   1.46734   1.47224   1.48306   1.48527
 Alpha virt. eigenvalues --    1.49148   1.49406   1.50358   1.51277   1.51833
 Alpha virt. eigenvalues --    1.52027   1.52114   1.53044   1.54097   1.54392
 Alpha virt. eigenvalues --    1.54645   1.55063   1.55818   1.56440   1.56806
 Alpha virt. eigenvalues --    1.56832   1.57275   1.57888   1.58241   1.58672
 Alpha virt. eigenvalues --    1.58915   1.59433   1.60194   1.60572   1.61198
 Alpha virt. eigenvalues --    1.61585   1.61784   1.62326   1.62544   1.62682
 Alpha virt. eigenvalues --    1.63336   1.63651   1.65055   1.65391   1.65820
 Alpha virt. eigenvalues --    1.66509   1.67381   1.67743   1.68274   1.68686
 Alpha virt. eigenvalues --    1.68987   1.69557   1.70286   1.71002   1.71142
 Alpha virt. eigenvalues --    1.71734   1.72923   1.73233   1.73307   1.73860
 Alpha virt. eigenvalues --    1.74430   1.74938   1.75134   1.75456   1.76895
 Alpha virt. eigenvalues --    1.77308   1.77610   1.78663   1.78903   1.79186
 Alpha virt. eigenvalues --    1.79526   1.79997   1.80581   1.80950   1.82036
 Alpha virt. eigenvalues --    1.82234   1.82611   1.82945   1.84372   1.84622
 Alpha virt. eigenvalues --    1.85693   1.86849   1.87228   1.88435   1.88818
 Alpha virt. eigenvalues --    1.89546   1.89736   1.91100   1.91416   1.91960
 Alpha virt. eigenvalues --    1.92247   1.92453   1.92647   1.93399   1.93628
 Alpha virt. eigenvalues --    1.94572   1.95820   1.96062   1.97519   1.98053
 Alpha virt. eigenvalues --    1.98546   1.98781   1.99457   2.00268   2.01239
 Alpha virt. eigenvalues --    2.01755   2.02794   2.02957   2.03665   2.04363
 Alpha virt. eigenvalues --    2.05080   2.05871   2.06705   2.07650   2.08159
 Alpha virt. eigenvalues --    2.08659   2.08834   2.09180   2.09983   2.11127
 Alpha virt. eigenvalues --    2.11411   2.12487   2.13048   2.13842   2.14700
 Alpha virt. eigenvalues --    2.15135   2.15382   2.16263   2.16488   2.16533
 Alpha virt. eigenvalues --    2.18253   2.18472   2.19112   2.19392   2.19634
 Alpha virt. eigenvalues --    2.20394   2.21174   2.21679   2.22655   2.23396
 Alpha virt. eigenvalues --    2.24396   2.25265   2.25673   2.25890   2.26890
 Alpha virt. eigenvalues --    2.27143   2.27900   2.28512   2.28759   2.29435
 Alpha virt. eigenvalues --    2.30329   2.30784   2.31830   2.31967   2.32693
 Alpha virt. eigenvalues --    2.33815   2.33863   2.34295   2.35188   2.35746
 Alpha virt. eigenvalues --    2.36138   2.37681   2.38241   2.38365   2.40924
 Alpha virt. eigenvalues --    2.41176   2.41524   2.42395   2.42977   2.43369
 Alpha virt. eigenvalues --    2.44052   2.45143   2.45705   2.46152   2.46469
 Alpha virt. eigenvalues --    2.47882   2.49572   2.50473   2.50738   2.51244
 Alpha virt. eigenvalues --    2.51975   2.53239   2.53497   2.54259   2.55289
 Alpha virt. eigenvalues --    2.55650   2.56099   2.56914   2.57247   2.57669
 Alpha virt. eigenvalues --    2.58407   2.58668   2.58717   2.59840   2.60774
 Alpha virt. eigenvalues --    2.61271   2.62052   2.62579   2.62976   2.63315
 Alpha virt. eigenvalues --    2.63913   2.64362   2.64539   2.65368   2.66101
 Alpha virt. eigenvalues --    2.66530   2.67084   2.67666   2.67850   2.68418
 Alpha virt. eigenvalues --    2.68596   2.68823   2.69499   2.70169   2.70574
 Alpha virt. eigenvalues --    2.70744   2.71156   2.71566   2.72181   2.72293
 Alpha virt. eigenvalues --    2.72402   2.72693   2.73146   2.73340   2.73725
 Alpha virt. eigenvalues --    2.74050   2.74532   2.74685   2.75533   2.75870
 Alpha virt. eigenvalues --    2.76406   2.76817   2.77215   2.77474   2.78206
 Alpha virt. eigenvalues --    2.78407   2.78606   2.79464   2.79585   2.80089
 Alpha virt. eigenvalues --    2.80672   2.81129   2.81663   2.82023   2.82643
 Alpha virt. eigenvalues --    2.83049   2.84171   2.84471   2.84619   2.84853
 Alpha virt. eigenvalues --    2.85231   2.85763   2.86435   2.86752   2.87103
 Alpha virt. eigenvalues --    2.87595   2.88049   2.88590   2.89377   2.89531
 Alpha virt. eigenvalues --    2.89877   2.90443   2.91385   2.91816   2.91999
 Alpha virt. eigenvalues --    2.92884   2.93170   2.93295   2.94281   2.94986
 Alpha virt. eigenvalues --    2.95248   2.95687   2.96321   2.96486   2.97467
 Alpha virt. eigenvalues --    2.97648   2.98060   2.99117   2.99157   2.99542
 Alpha virt. eigenvalues --    2.99937   3.00403   3.01284   3.02159   3.02191
 Alpha virt. eigenvalues --    3.03170   3.03590   3.04532   3.04867   3.05182
 Alpha virt. eigenvalues --    3.05894   3.06370   3.06515   3.07446   3.07921
 Alpha virt. eigenvalues --    3.08030   3.08518   3.09226   3.10212   3.10771
 Alpha virt. eigenvalues --    3.11003   3.11747   3.12187   3.12584   3.13063
 Alpha virt. eigenvalues --    3.13228   3.14020   3.14202   3.14693   3.15334
 Alpha virt. eigenvalues --    3.15937   3.15997   3.16548   3.16828   3.16993
 Alpha virt. eigenvalues --    3.17855   3.18390   3.19285   3.19408   3.19675
 Alpha virt. eigenvalues --    3.20223   3.20716   3.21113   3.21667   3.22292
 Alpha virt. eigenvalues --    3.22420   3.23220   3.23695   3.23911   3.24408
 Alpha virt. eigenvalues --    3.25167   3.25331   3.25871   3.26537   3.27347
 Alpha virt. eigenvalues --    3.27657   3.28369   3.29232   3.29390   3.29709
 Alpha virt. eigenvalues --    3.30327   3.30607   3.31371   3.31772   3.31896
 Alpha virt. eigenvalues --    3.32321   3.33001   3.33644   3.34052   3.34303
 Alpha virt. eigenvalues --    3.34770   3.35107   3.35772   3.36163   3.36570
 Alpha virt. eigenvalues --    3.37100   3.37880   3.37921   3.38117   3.38521
 Alpha virt. eigenvalues --    3.39158   3.39253   3.39718   3.40223   3.41033
 Alpha virt. eigenvalues --    3.41530   3.41592   3.42167   3.42276   3.43305
 Alpha virt. eigenvalues --    3.43762   3.44256   3.44836   3.45451   3.45626
 Alpha virt. eigenvalues --    3.45960   3.46292   3.46652   3.46929   3.47204
 Alpha virt. eigenvalues --    3.47665   3.48514   3.48711   3.49486   3.49922
 Alpha virt. eigenvalues --    3.50494   3.50999   3.51310   3.51785   3.52189
 Alpha virt. eigenvalues --    3.52500   3.53022   3.53336   3.53469   3.53780
 Alpha virt. eigenvalues --    3.54053   3.54678   3.54805   3.55380   3.55736
 Alpha virt. eigenvalues --    3.56677   3.57544   3.57844   3.58159   3.58536
 Alpha virt. eigenvalues --    3.59679   3.59972   3.60386   3.61307   3.63309
 Alpha virt. eigenvalues --    3.63380   3.64335   3.65584   3.65682   3.65997
 Alpha virt. eigenvalues --    3.66771   3.66880   3.68272   3.69109   3.69209
 Alpha virt. eigenvalues --    3.70377   3.71666   3.71820   3.72308   3.73326
 Alpha virt. eigenvalues --    3.74993   3.76003   3.76833   3.77629   3.78733
 Alpha virt. eigenvalues --    3.79261   3.79938   3.80301   3.80695   3.82283
 Alpha virt. eigenvalues --    3.83470   3.83571   3.85774   3.87106   3.87597
 Alpha virt. eigenvalues --    3.87775   3.88854   3.89913   3.90662   3.91374
 Alpha virt. eigenvalues --    3.92418   3.94474   3.94671   3.95910   3.96768
 Alpha virt. eigenvalues --    3.97379   3.98812   3.99393   4.00481   4.00609
 Alpha virt. eigenvalues --    4.01853   4.02482   4.03133   4.04395   4.04909
 Alpha virt. eigenvalues --    4.05483   4.06211   4.07003   4.07405   4.07620
 Alpha virt. eigenvalues --    4.08059   4.08903   4.09486   4.10178   4.10621
 Alpha virt. eigenvalues --    4.12269   4.12559   4.13264   4.14131   4.14378
 Alpha virt. eigenvalues --    4.15529   4.15905   4.16068   4.16738   4.17480
 Alpha virt. eigenvalues --    4.18512   4.18763   4.19486   4.19644   4.19781
 Alpha virt. eigenvalues --    4.20424   4.20502   4.20936   4.21779   4.22600
 Alpha virt. eigenvalues --    4.23157   4.23533   4.24052   4.24541   4.25706
 Alpha virt. eigenvalues --    4.26454   4.27396   4.27823   4.28578   4.29916
 Alpha virt. eigenvalues --    4.31250   4.32533   4.32839   4.33043   4.33965
 Alpha virt. eigenvalues --    4.35613   4.37149   4.38100   4.39414   4.39924
 Alpha virt. eigenvalues --    4.41508   4.42251   4.43082   4.43744   4.44834
 Alpha virt. eigenvalues --    4.45009   4.46727   4.47570   4.51587   4.52096
 Alpha virt. eigenvalues --    4.53128   4.53956   4.54375   4.56184   4.57280
 Alpha virt. eigenvalues --    4.58082   4.58951   4.59178   4.59683   4.61435
 Alpha virt. eigenvalues --    4.62448   4.63048   4.63955   4.65355   4.68301
 Alpha virt. eigenvalues --    4.69211   4.69914   4.74044   4.75339   4.76584
 Alpha virt. eigenvalues --    4.77270   4.79269   4.79712   4.80109   4.82141
 Alpha virt. eigenvalues --    4.83225   4.84828   4.85777   4.88026   4.89010
 Alpha virt. eigenvalues --    4.90675   4.91499   4.93075   4.95541   4.97935
 Alpha virt. eigenvalues --    4.99454   4.99986   5.00800   5.01903   5.08828
 Alpha virt. eigenvalues --    5.09406   5.10607   5.11742   5.13889   5.15304
 Alpha virt. eigenvalues --    5.16819   5.18969   5.22217   5.22665   5.23217
 Alpha virt. eigenvalues --    5.24380   5.25304   5.28746   5.30149   5.32643
 Alpha virt. eigenvalues --    5.34697   5.36620   5.36683   5.38473   5.39898
 Alpha virt. eigenvalues --    5.45149   5.46798   5.48617   5.50491   5.51812
 Alpha virt. eigenvalues --    5.54438   5.58659   5.63822   5.66264   5.71593
 Alpha virt. eigenvalues --    5.72504   5.73036   5.75316   5.79034   5.90570
 Alpha virt. eigenvalues --    5.96672   5.97227   6.02320   6.16858   6.31529
 Alpha virt. eigenvalues --    6.35954   6.51039   6.63603   6.77364   6.84519
 Alpha virt. eigenvalues --    6.92289   6.95329   6.95699   6.96147   6.96266
 Alpha virt. eigenvalues --    6.96353   6.96809   6.96845   6.97717   7.05495
 Alpha virt. eigenvalues --    7.07751   7.08994   7.11954   7.13639   7.13920
 Alpha virt. eigenvalues --    7.15510   7.27063   7.30386   7.30998   7.33478
 Alpha virt. eigenvalues --    7.38211   7.41954   7.43088   8.38513   8.40310
 Alpha virt. eigenvalues --    8.40516   8.53698   8.54269   8.59932   8.79867
 Alpha virt. eigenvalues --    8.81389   8.82835   8.86543   8.89995   8.91292
 Alpha virt. eigenvalues --    8.92311   8.98101   8.99913  15.69807  22.36133
 Alpha virt. eigenvalues --   22.43531  22.49345  22.55532  22.61002  22.74759
 Alpha virt. eigenvalues --   22.75320  22.77409  22.79080  22.83028  22.84849
 Alpha virt. eigenvalues --   22.85249  22.87964  22.90736  22.94651  22.95091
 Alpha virt. eigenvalues --   23.05670  23.07216  23.11105  23.15137  23.23259
 Alpha virt. eigenvalues --   23.31635  23.42746  23.46135  23.52878  23.85218
 Alpha virt. eigenvalues --   33.44110  44.37167  57.23680  57.31769  57.36695
          Condensed to atoms (all electrons):
 Mulliken charges:
               1
     1  C   -0.131446
     2  C   -0.189795
     3  C    0.113964
     4  C    0.122324
     5  C   -0.240582
     6  C   -0.174449
     7  C    0.182338
     8  C    0.128590
     9  C    0.111793
    10  C   -0.189703
    11  H    0.216438
    12  C   -0.131351
    13  C   -0.173415
    14  C   -0.248937
    15  H    0.196706
    16  H    0.216583
    17  H    0.225003
    18  H    0.193482
    19  H    0.196733
    20  H    0.193473
    21  H    0.224244
    22  N    0.077524
    23  C   -0.088737
    24  C   -0.302946
    25  C   -0.238302
    26  C   -0.076842
    27  C   -0.170455
    28  C   -0.227321
    29  H    0.180125
    30  H    0.204891
    31  C   -0.156201
    32  C   -0.172280
    33  C   -0.154111
    34  C   -0.225224
    35  H    0.200647
    36  C   -0.198698
    37  H    0.197146
    38  C    0.314507
    39  H    0.208490
    40  H    0.189583
    41  O   -0.290094
    42  C   -0.314349
    43  H    0.174389
    44  H    0.171751
    45  H    0.171511
    46  H    0.204591
    47  H    0.174083
    48  B    0.605792
    49  F   -0.437429
    50  F   -0.433580
    51  F   -0.430458
 Sum of Mulliken charges =  -0.00000
 Mulliken charges with hydrogens summed into heavy atoms:
               1
     1  C    0.065260
     2  C    0.026789
     3  C    0.113964
     4  C    0.122324
     5  C   -0.015578
     6  C    0.019033
     7  C    0.182338
     8  C    0.128590
     9  C    0.111793
    10  C    0.026735
    12  C    0.065382
    13  C    0.020058
    14  C   -0.024693
    22  N    0.077524
    23  C   -0.088737
    24  C   -0.098355
    25  C   -0.033411
    26  C   -0.076842
    27  C    0.009670
    28  C   -0.053238
    31  C   -0.156201
    32  C    0.028367
    33  C    0.043035
    34  C   -0.016734
    36  C   -0.009115
    38  C    0.314507
    41  O   -0.290094
    42  C    0.203303
    48  B    0.605792
    49  F   -0.437429
    50  F   -0.433580
    51  F   -0.430458
 Electronic spatial extent (au):  <R**2>=          17351.7171
 Charge=              0.0000 electrons
 Dipole moment (field-independent basis, Debye):
    X=             32.3605    Y=              4.3185    Z=             -6.3753  Tot=             33.2640
 Quadrupole moment (field-independent basis, Debye-Ang):
   XX=           -284.0033   YY=           -155.0211   ZZ=           -184.5892
   XY=            -26.8465   XZ=             58.3345   YZ=              5.6673
 Traceless Quadrupole moment (field-independent basis, Debye-Ang):
   XX=            -76.1321   YY=             52.8501   ZZ=             23.2820
   XY=            -26.8465   XZ=             58.3345   YZ=              5.6673
 Octapole moment (field-independent basis, Debye-Ang**2):
  XXX=           1201.7278  YYY=             16.5044  ZZZ=              2.7255  XYY=             41.2890
  XXY=            112.9871  XXZ=           -124.6248  XZZ=            108.9356  YZZ=              0.6160
  YYZ=            -14.0833  XYZ=            -25.4169
 Hexadecapole moment (field-independent basis, Debye-Ang**3):
 XXXX=         -21408.9378 YYYY=          -2718.7704 ZZZZ=          -1390.9230 XXXY=          -1073.3225
 XXXZ=           2272.9424 YYYX=             31.1700 YYYZ=            158.2274 ZZZX=            115.9229
 ZZZY=            -66.6352 XXYY=          -3666.9664 XXZZ=          -3242.9766 YYZZ=           -817.8038
 XXYZ=             -9.8480 YYXZ=             73.4478 ZZXY=            -62.6692
 N-N= 2.976171157687D+03 E-N=-9.352853822629D+03  KE= 1.449964799707D+03
 Leave Link  601 at Tue Feb 23 07:11:39 2021, MaxMem=  5242880000 cpu:         8.4
 (Enter /opt/nce/packages/global/g09/l9999.exe)
 1\1\GINC-CN031\SP\RM062X TD-FC\Gen\C26H19B1F3N1O1\PNG4RJV\23-Feb-2021\
 0\\#p m062x chkbasis geom=allcheck Guess=Read int=ultrafine scrf=(SMD,
 solvent=Acetonitrile) td=(NStates=30)\\Title\\0,1\C,0,0.7734501061,3.3
 079929134,1.1302236486\C,0,1.5542227963,2.2485177681,0.768736327\C,0,0
 .9597064307,0.9843379813,0.5469106053\C,0,-0.4487510373,0.83271976,0.6
 825584341\C,0,-1.215289021,1.9648972838,1.0848306169\C,0,-0.6229017618
 ,3.1696550454,1.3011608373\C,0,-1.0366959941,-0.4225426266,0.446487265
 5\C,0,-0.22007163,-1.5102885541,0.0895933675\C,0,1.1874537267,-1.32731
 59152,-0.0112554771\C,0,2.0150897813,-2.4236362787,-0.3494990358\H,0,3
 .0848308602,-2.2951125624,-0.4140225299\C,0,1.4538708208,-3.6426571205
 ,-0.5976705598\C,0,0.054908194,-3.8355749886,-0.5366980573\C,0,-0.7575
 680564,-2.797231604,-0.2036753944\H,0,1.2380216542,4.2712541362,1.2982
 953503\H,0,2.6202343907,2.3737081781,0.6548923861\H,0,-2.2802236595,1.
 8478442604,1.2241925975\H,0,-1.2133345274,4.0221780036,1.6082886323\H,
 0,2.0955930914,-4.4751756046,-0.8563825193\H,0,-0.3635595437,-4.807380
 9417,-0.7608548573\H,0,-1.8286274142,-2.9333988223,-0.1670469141\N,0,1
 .7260350203,-0.0938063362,0.2122912091\C,0,-2.5022197754,-0.5970053617
 ,0.5725534625\C,0,-3.3644060056,0.0591328304,-0.3052554767\C,0,-3.0246
 857586,-1.4165214847,1.5720746348\C,0,-4.7494433263,-0.0887248533,-0.2
 19674609\C,0,-4.3992738037,-1.5599418859,1.6869114368\C,0,-5.245721377
 1,-0.9061885314,0.7979831243\H,0,-4.8081867417,-2.1845398416,2.4717534
 279\H,0,-2.3570665947,-1.9258867228,2.256877179\C,0,3.1588210763,0.075
 648904,0.094485436\C,0,3.7055804547,0.3969581422,-1.1312372466\C,0,3.9
 573394894,-0.0891813032,1.2177094741\C,0,5.0801647656,0.5581768957,-1.
 2533529087\H,0,3.062062362,0.5211921101,-1.9935814349\C,0,5.3234274415
 ,0.0696478967,1.1032081246\H,0,3.5062506167,-0.3399697647,2.169962328\
 C,0,5.8928120183,0.3928334125,-0.1326865401\H,0,5.4998823469,0.8092021
 525,-2.2163580687\H,0,5.9709502062,-0.0533321922,1.9615218505\O,0,7.23
 3871055,0.5250744648,-0.1481703039\C,0,7.8560926106,0.8471540867,-1.38
 36960159\H,0,8.9218417385,0.9016411751,-1.1778988331\H,0,7.6670909689,
 0.0726925573,-2.1301890521\H,0,7.5066160779,1.8118186836,-1.7580630223
 \H,0,-2.9381295334,0.6964364982,-1.0740430076\H,0,-6.3177806155,-1.032
 7603067,0.9023506052\B,0,-5.7242617333,0.6436231348,-1.2852628606\F,0,
 -5.2440099002,1.9329112484,-1.6158655193\F,0,-7.0347797308,0.779246120
 5,-0.7751490733\F,0,-5.8074915597,-0.0990200408,-2.4908670428\\Version
 =ES64L-G09RevE.01\State=1-A\HF=-1456.7802475\RMSD=4.724e-09\PG=C01 [X(
 C26H19B1F3N1O1)]\\@


 "TIGER, TIGER BURNING BRIGHT
 IN THE FOREST OF THE NIGHT.
 WHAT IMMORTAL HAND OR EYE
 CAN FRAME THY FEARFUL SYMMETRYE?"
                     - WILLIAM BLAKE
 Job cpu time:       3 days  3 hours 44 minutes 40.2 seconds.
 File lengths (MBytes):  RWF=   6126 Int=      0 D2E=      0 Chk=   1099 Scr=      1
 Normal termination of Gaussian 09 at Tue Feb 23 07:11:43 2021.
