 Entering Gaussian System, Link 0=g09
 Input=/home/png4rjv/fotokatalizis/benchmark/OPCs/BF3-Acr_m_TPSS_def2TZVP.gjf
 Output=/home/png4rjv/fotokatalizis/benchmark/OPCs/BF3-Acr_m_TPSS_def2TZVP.log
 Initial command:
 /opt/nce/packages/global/g09/l1.exe "/home/png4rjv/fotokatalizis/benchmark/OPCs/BF3-Acr_m_TPSS_def2TZVP/Gau-38868.inp" -scrdir="/home/png4rjv/fotokatalizis/benchmark/OPCs/BF3-Acr_m_TPSS_def2TZVP/"
 Default is to use a total of  12 processors:
                               12 via shared-memory
                                1 via Linda
 Entering Link 1 = /opt/nce/packages/global/g09/l1.exe PID=     38869.
  
 Copyright (c) 1988,1990,1992,1993,1995,1998,2003,2009,2015,
            Gaussian, Inc.  All Rights Reserved.
  
 This is part of the Gaussian(R) 09 program.  It is based on
 the Gaussian(R) 03 system (copyright 2003, Gaussian, Inc.),
 the Gaussian(R) 98 system (copyright 1998, Gaussian, Inc.),
 the Gaussian(R) 94 system (copyright 1995, Gaussian, Inc.),
 the Gaussian 92(TM) system (copyright 1992, Gaussian, Inc.),
 the Gaussian 90(TM) system (copyright 1990, Gaussian, Inc.),
 the Gaussian 88(TM) system (copyright 1988, Gaussian, Inc.),
 the Gaussian 86(TM) system (copyright 1986, Carnegie Mellon
 University), and the Gaussian 82(TM) system (copyright 1983,
 Carnegie Mellon University). Gaussian is a federally registered
 trademark of Gaussian, Inc.
  
 This software contains proprietary and confidential information,
 including trade secrets, belonging to Gaussian, Inc.
  
 This software is provided under written license and may be
 used, copied, transmitted, or stored only in accord with that
 written license.
  
 The following legend is applicable only to US Government
 contracts under FAR:
  
                    RESTRICTED RIGHTS LEGEND
  
 Use, reproduction and disclosure by the US Government is
 subject to restrictions as set forth in subparagraphs (a)
 and (c) of the Commercial Computer Software - Restricted
 Rights clause in FAR 52.227-19.
  
 Gaussian, Inc.
 340 Quinnipiac St., Bldg. 40, Wallingford CT 06492
  
  
 ---------------------------------------------------------------
 Warning -- This program may not be used in any manner that
 competes with the business of Gaussian, Inc. or will provide
 assistance to any competitor of Gaussian, Inc.  The licensee
 of this program is prohibited from giving any competitor of
 Gaussian, Inc. access to this program.  By using this program,
 the user acknowledges that Gaussian, Inc. is engaged in the
 business of creating and licensing software in the field of
 computational chemistry and represents and warrants to the
 licensee that it is not a competitor of Gaussian, Inc. and that
 it will not use this program in any manner prohibited above.
 ---------------------------------------------------------------
  

 Cite this work as:
 Gaussian 09, Revision E.01,
 M. J. Frisch, G. W. Trucks, H. B. Schlegel, G. E. Scuseria, 
 M. A. Robb, J. R. Cheeseman, G. Scalmani, V. Barone, B. Mennucci, 
 G. A. Petersson, H. Nakatsuji, M. Caricato, X. Li, H. P. Hratchian, 
 A. F. Izmaylov, J. Bloino, G. Zheng, J. L. Sonnenberg, M. Hada, 
 M. Ehara, K. Toyota, R. Fukuda, J. Hasegawa, M. Ishida, T. Nakajima, 
 Y. Honda, O. Kitao, H. Nakai, T. Vreven, J. A. Montgomery, Jr., 
 J. E. Peralta, F. Ogliaro, M. Bearpark, J. J. Heyd, E. Brothers, 
 K. N. Kudin, V. N. Staroverov, T. Keith, R. Kobayashi, J. Normand, 
 K. Raghavachari, A. Rendell, J. C. Burant, S. S. Iyengar, J. Tomasi, 
 M. Cossi, N. Rega, J. M. Millam, M. Klene, J. E. Knox, J. B. Cross, 
 V. Bakken, C. Adamo, J. Jaramillo, R. Gomperts, R. E. Stratmann, 
 O. Yazyev, A. J. Austin, R. Cammi, C. Pomelli, J. W. Ochterski, 
 R. L. Martin, K. Morokuma, V. G. Zakrzewski, G. A. Voth, 
 P. Salvador, J. J. Dannenberg, S. Dapprich, A. D. Daniels, 
 O. Farkas, J. B. Foresman, J. V. Ortiz, J. Cioslowski, 
 and D. J. Fox, Gaussian, Inc., Wallingford CT, 2013.
 
 ******************************************
 Gaussian 09:  ES64L-G09RevE.01 30-Nov-2015
                30-Mar-2021 
 ******************************************
 %chk=cp.chk
 Default route:  MaxDisk=500GB
 ----------------------------------------------------------------------
 #p TPSSTPSS/def2TZVP opt freq=noraman nosymm int=ultrafine scrf=(SMD,s
 olvent=Acetonitrile)
 ----------------------------------------------------------------------
 1/14=-1,18=20,19=15,26=4,38=1/1,3;
 2/9=110,12=2,15=1,17=6,18=5,40=1/2;
 3/5=44,7=101,11=2,16=1,25=1,30=1,70=32201,71=1,72=2,74=2523,75=-5/1,2,3;
 4//1;
 5/5=2,38=5,53=2/2;
 6/7=2,8=2,9=2,10=2,28=1/1;
 7/30=1/1,2,3,16;
 1/14=-1,18=20,19=15,26=4/3(2);
 2/9=110,15=1/2;
 99//99;
 2/9=110,15=1/2;
 3/5=44,7=101,11=2,16=1,25=1,30=1,70=32205,71=1,72=2,74=2523,75=-5/1,2,3;
 4/5=5,16=3,69=1/1;
 5/5=2,38=5,53=2/2;
 7/30=1/1,2,3,16;
 1/14=-1,18=20,19=15,26=4/3(-5);
 2/9=110,15=1/2;
 6/7=2,8=2,9=2,10=2,19=2,28=1/1;
 99/9=1/99;
 Leave Link    1 at Tue Mar 30 05:54:22 2021, MaxMem=           0 cpu:         0.9
 (Enter /opt/nce/packages/global/g09/l101.exe)
 -----
 Title
 -----
 Symbolic Z-matrix:
 Charge =  0 Multiplicity = 1
 C                     0.68709   3.33347   0.92038 
 C                     1.49332   2.25239   0.61986 
 C                     0.92323   0.96694   0.46462 
 C                    -0.49285   0.7938    0.59548 
 C                    -1.27597   1.93268   0.95258 
 C                    -0.70378   3.17593   1.10138 
 C                    -1.07366  -0.50071   0.41361 
 C                    -0.20574  -1.59568   0.10858 
 C                     1.20914  -1.39253   0.03727 
 C                     2.06461  -2.48873  -0.23013 
 H                     3.1413   -2.33713  -0.26159 
 C                     1.53081  -3.74137  -0.46159 
 C                     0.1339   -3.94787  -0.46277 
 C                    -0.71113  -2.8952   -0.19165 
 H                     1.14132   4.32034   1.03492 
 H                     2.5668    2.38441   0.50473 
 H                    -2.346     1.80515   1.10343 
 H                    -1.32508   4.03317   1.36511 
 H                     2.20355  -4.57629  -0.67055 
 H                    -0.27417  -4.93306  -0.69469 
 H                    -1.79027  -3.03343  -0.22043 
 N                     1.72829  -0.12578   0.20683 
 C                    -2.51509  -0.69074   0.52444 
 C                    -3.39296   0.12888  -0.22075 
 C                    -3.05747  -1.67435   1.38585 
 C                    -4.78056   0.00704  -0.13377 
 C                    -4.43919  -1.78821   1.50439 
 C                    -5.28484  -0.95394   0.75858 
 H                    -4.86046  -2.51551   2.20383 
 H                    -2.39521  -2.28944   1.99912 
 C                     3.15423   0.06604   0.09787 
 C                     3.72366   0.34062  -1.14323 
 C                     3.95908  -0.02301   1.23979 
 C                     5.10298   0.5294   -1.25869 
 H                     3.08536   0.40901  -2.0263 
 C                     5.33095   0.16262   1.13385 
 H                     3.502    -0.23737   2.2077 
 C                     5.91708   0.44108  -0.11645 
 H                     5.52903   0.74414  -2.23764 
 H                     5.98117   0.099     2.00756 
 O                     7.25345   0.60627  -0.1196 
 C                     7.91561   0.89268  -1.33572 
 H                     8.98179   0.98513  -1.09415 
 H                     7.78122   0.08075  -2.07152 
 H                     7.56166   1.8409   -1.77643 
 H                    -2.98529   0.87202  -0.90995 
 H                    -6.36902  -1.02738   0.87891 
 B                    -5.74235   0.99749  -1.03384 
 F                    -5.06665   2.22958  -1.1752 
 F                    -6.9601    1.17254  -0.36162 
 F                    -5.95306   0.42355  -2.29503 
 
 NAtoms=     51 NQM=       51 NQMF=       0 NMMI=      0 NMMIF=      0
                NMic=       0 NMicF=      0.
                    Isotopes and Nuclear Properties:
 (Nuclear quadrupole moments (NQMom) in fm**2, nuclear magnetic moments (NMagM)
  in nuclear magnetons)

  Atom         1           2           3           4           5           6           7           8           9          10
 IAtWgt=          12          12          12          12          12          12          12          12          12          12
 AtmWgt=  12.0000000  12.0000000  12.0000000  12.0000000  12.0000000  12.0000000  12.0000000  12.0000000  12.0000000  12.0000000
 NucSpn=           0           0           0           0           0           0           0           0           0           0
 AtZEff=   0.0000000   0.0000000   0.0000000   0.0000000   0.0000000   0.0000000   0.0000000   0.0000000   0.0000000   0.0000000
 NQMom=    0.0000000   0.0000000   0.0000000   0.0000000   0.0000000   0.0000000   0.0000000   0.0000000   0.0000000   0.0000000
 NMagM=    0.0000000   0.0000000   0.0000000   0.0000000   0.0000000   0.0000000   0.0000000   0.0000000   0.0000000   0.0000000
 AtZNuc=   6.0000000   6.0000000   6.0000000   6.0000000   6.0000000   6.0000000   6.0000000   6.0000000   6.0000000   6.0000000

  Atom        11          12          13          14          15          16          17          18          19          20
 IAtWgt=           1          12          12          12           1           1           1           1           1           1
 AtmWgt=   1.0078250  12.0000000  12.0000000  12.0000000   1.0078250   1.0078250   1.0078250   1.0078250   1.0078250   1.0078250
 NucSpn=           1           0           0           0           1           1           1           1           1           1
 AtZEff=   0.0000000   0.0000000   0.0000000   0.0000000   0.0000000   0.0000000   0.0000000   0.0000000   0.0000000   0.0000000
 NQMom=    0.0000000   0.0000000   0.0000000   0.0000000   0.0000000   0.0000000   0.0000000   0.0000000   0.0000000   0.0000000
 NMagM=    2.7928460   0.0000000   0.0000000   0.0000000   2.7928460   2.7928460   2.7928460   2.7928460   2.7928460   2.7928460
 AtZNuc=   1.0000000   6.0000000   6.0000000   6.0000000   1.0000000   1.0000000   1.0000000   1.0000000   1.0000000   1.0000000

  Atom        21          22          23          24          25          26          27          28          29          30
 IAtWgt=           1          14          12          12          12          12          12          12           1           1
 AtmWgt=   1.0078250  14.0030740  12.0000000  12.0000000  12.0000000  12.0000000  12.0000000  12.0000000   1.0078250   1.0078250
 NucSpn=           1           2           0           0           0           0           0           0           1           1
 AtZEff=   0.0000000   0.0000000   0.0000000   0.0000000   0.0000000   0.0000000   0.0000000   0.0000000   0.0000000   0.0000000
 NQMom=    0.0000000   2.0440000   0.0000000   0.0000000   0.0000000   0.0000000   0.0000000   0.0000000   0.0000000   0.0000000
 NMagM=    2.7928460   0.4037610   0.0000000   0.0000000   0.0000000   0.0000000   0.0000000   0.0000000   2.7928460   2.7928460
 AtZNuc=   1.0000000   7.0000000   6.0000000   6.0000000   6.0000000   6.0000000   6.0000000   6.0000000   1.0000000   1.0000000

  Atom        31          32          33          34          35          36          37          38          39          40
 IAtWgt=          12          12          12          12           1          12           1          12           1           1
 AtmWgt=  12.0000000  12.0000000  12.0000000  12.0000000   1.0078250  12.0000000   1.0078250  12.0000000   1.0078250   1.0078250
 NucSpn=           0           0           0           0           1           0           1           0           1           1
 AtZEff=   0.0000000   0.0000000   0.0000000   0.0000000   0.0000000   0.0000000   0.0000000   0.0000000   0.0000000   0.0000000
 NQMom=    0.0000000   0.0000000   0.0000000   0.0000000   0.0000000   0.0000000   0.0000000   0.0000000   0.0000000   0.0000000
 NMagM=    0.0000000   0.0000000   0.0000000   0.0000000   2.7928460   0.0000000   2.7928460   0.0000000   2.7928460   2.7928460
 AtZNuc=   6.0000000   6.0000000   6.0000000   6.0000000   1.0000000   6.0000000   1.0000000   6.0000000   1.0000000   1.0000000

  Atom        41          42          43          44          45          46          47          48          49          50
 IAtWgt=          16          12           1           1           1           1           1          11          19          19
 AtmWgt=  15.9949146  12.0000000   1.0078250   1.0078250   1.0078250   1.0078250   1.0078250  11.0093053  18.9984033  18.9984033
 NucSpn=           0           0           1           1           1           1           1           3           1           1
 AtZEff=   0.0000000   0.0000000   0.0000000   0.0000000   0.0000000   0.0000000   0.0000000   0.0000000   0.0000000   0.0000000
 NQMom=    0.0000000   0.0000000   0.0000000   0.0000000   0.0000000   0.0000000   0.0000000   4.0590000   0.0000000   0.0000000
 NMagM=    0.0000000   0.0000000   2.7928460   2.7928460   2.7928460   2.7928460   2.7928460   2.6886370   2.6288670   2.6288670
 AtZNuc=   8.0000000   6.0000000   1.0000000   1.0000000   1.0000000   1.0000000   1.0000000   5.0000000   9.0000000   9.0000000

  Atom        51
 IAtWgt=          19
 AtmWgt=  18.9984033
 NucSpn=           1
 AtZEff=   0.0000000
 NQMom=    0.0000000
 NMagM=    2.6288670
 AtZNuc=   9.0000000
 Leave Link  101 at Tue Mar 30 05:54:22 2021, MaxMem=  5242880000 cpu:         4.3
 (Enter /opt/nce/packages/global/g09/l103.exe)

 GradGradGradGradGradGradGradGradGradGradGradGradGradGradGradGradGradGrad
 Berny optimization.
 Initialization pass.
                           ----------------------------
                           !    Initial Parameters    !
                           ! (Angstroms and Degrees)  !
 --------------------------                            --------------------------
 ! Name  Definition              Value          Derivative Info.                !
 --------------------------------------------------------------------------------
 ! R1    R(1,2)                  1.3817         estimate D2E/DX2                !
 ! R2    R(1,6)                  1.4114         estimate D2E/DX2                !
 ! R3    R(1,15)                 1.0924         estimate D2E/DX2                !
 ! R4    R(2,3)                  1.4147         estimate D2E/DX2                !
 ! R5    R(2,16)                 1.0877         estimate D2E/DX2                !
 ! R6    R(3,4)                  1.4326         estimate D2E/DX2                !
 ! R7    R(3,22)                 1.3815         estimate D2E/DX2                !
 ! R8    R(4,5)                  1.4275         estimate D2E/DX2                !
 ! R9    R(4,7)                  1.4304         estimate D2E/DX2                !
 ! R10   R(5,6)                  1.3767         estimate D2E/DX2                !
 ! R11   R(5,17)                 1.0881         estimate D2E/DX2                !
 ! R12   R(6,18)                 1.0911         estimate D2E/DX2                !
 ! R13   R(7,8)                  1.4301         estimate D2E/DX2                !
 ! R14   R(7,23)                 1.4581         estimate D2E/DX2                !
 ! R15   R(8,9)                  1.4312         estimate D2E/DX2                !
 ! R16   R(8,14)                 1.4263         estimate D2E/DX2                !
 ! R17   R(9,10)                 1.416          estimate D2E/DX2                !
 ! R18   R(9,22)                 1.3795         estimate D2E/DX2                !
 ! R19   R(10,11)                1.0878         estimate D2E/DX2                !
 ! R20   R(10,12)                1.3812         estimate D2E/DX2                !
 ! R21   R(12,13)                1.4121         estimate D2E/DX2                !
 ! R22   R(12,19)                1.0924         estimate D2E/DX2                !
 ! R23   R(13,14)                1.3768         estimate D2E/DX2                !
 ! R24   R(13,20)                1.0913         estimate D2E/DX2                !
 ! R25   R(14,21)                1.0883         estimate D2E/DX2                !
 ! R26   R(22,31)                1.4429         estimate D2E/DX2                !
 ! R27   R(23,24)                1.4134         estimate D2E/DX2                !
 ! R28   R(23,25)                1.4155         estimate D2E/DX2                !
 ! R29   R(24,26)                1.3957         estimate D2E/DX2                !
 ! R30   R(24,46)                1.0925         estimate D2E/DX2                !
 ! R31   R(25,27)                1.3915         estimate D2E/DX2                !
 ! R32   R(25,30)                1.0923         estimate D2E/DX2                !
 ! R33   R(26,28)                1.405          estimate D2E/DX2                !
 ! R34   R(26,48)                1.6481         estimate D2E/DX2                !
 ! R35   R(27,28)                1.4026         estimate D2E/DX2                !
 ! R36   R(27,29)                1.0935         estimate D2E/DX2                !
 ! R37   R(28,47)                1.0933         estimate D2E/DX2                !
 ! R38   R(31,32)                1.3928         estimate D2E/DX2                !
 ! R39   R(31,33)                1.3999         estimate D2E/DX2                !
 ! R40   R(32,34)                1.397          estimate D2E/DX2                !
 ! R41   R(32,35)                1.0918         estimate D2E/DX2                !
 ! R42   R(33,36)                1.3884         estimate D2E/DX2                !
 ! R43   R(33,37)                1.0917         estimate D2E/DX2                !
 ! R44   R(34,38)                1.4054         estimate D2E/DX2                !
 ! R45   R(34,39)                1.089          estimate D2E/DX2                !
 ! R46   R(36,38)                1.4087         estimate D2E/DX2                !
 ! R47   R(36,40)                1.091          estimate D2E/DX2                !
 ! R48   R(38,41)                1.3465         estimate D2E/DX2                !
 ! R49   R(41,42)                1.414          estimate D2E/DX2                !
 ! R50   R(42,43)                1.0971         estimate D2E/DX2                !
 ! R51   R(42,44)                1.104          estimate D2E/DX2                !
 ! R52   R(42,45)                1.1039         estimate D2E/DX2                !
 ! R53   R(48,49)                1.4123         estimate D2E/DX2                !
 ! R54   R(48,50)                1.4019         estimate D2E/DX2                !
 ! R55   R(48,51)                1.4016         estimate D2E/DX2                !
 ! A1    A(2,1,6)              121.0361         estimate D2E/DX2                !
 ! A2    A(2,1,15)             119.145          estimate D2E/DX2                !
 ! A3    A(6,1,15)             119.8109         estimate D2E/DX2                !
 ! A4    A(1,2,3)              119.978          estimate D2E/DX2                !
 ! A5    A(1,2,16)             120.261          estimate D2E/DX2                !
 ! A6    A(3,2,16)             119.7607         estimate D2E/DX2                !
 ! A7    A(2,3,4)              119.874          estimate D2E/DX2                !
 ! A8    A(2,3,22)             120.2865         estimate D2E/DX2                !
 ! A9    A(4,3,22)             119.8326         estimate D2E/DX2                !
 ! A10   A(3,4,5)              117.949          estimate D2E/DX2                !
 ! A11   A(3,4,7)              119.9405         estimate D2E/DX2                !
 ! A12   A(5,4,7)              122.0762         estimate D2E/DX2                !
 ! A13   A(4,5,6)              121.2996         estimate D2E/DX2                !
 ! A14   A(4,5,17)             118.7272         estimate D2E/DX2                !
 ! A15   A(6,5,17)             119.9726         estimate D2E/DX2                !
 ! A16   A(1,6,5)              119.7699         estimate D2E/DX2                !
 ! A17   A(1,6,18)             120.2957         estimate D2E/DX2                !
 ! A18   A(5,6,18)             119.933          estimate D2E/DX2                !
 ! A19   A(4,7,8)              118.2673         estimate D2E/DX2                !
 ! A20   A(4,7,23)             120.6413         estimate D2E/DX2                !
 ! A21   A(8,7,23)             121.0887         estimate D2E/DX2                !
 ! A22   A(7,8,9)              120.1271         estimate D2E/DX2                !
 ! A23   A(7,8,14)             121.8329         estimate D2E/DX2                !
 ! A24   A(9,8,14)             117.979          estimate D2E/DX2                !
 ! A25   A(8,9,10)             119.7881         estimate D2E/DX2                !
 ! A26   A(8,9,22)             119.7546         estimate D2E/DX2                !
 ! A27   A(10,9,22)            120.4479         estimate D2E/DX2                !
 ! A28   A(9,10,11)            119.7069         estimate D2E/DX2                !
 ! A29   A(9,10,12)            120.0186         estimate D2E/DX2                !
 ! A30   A(11,10,12)           120.2719         estimate D2E/DX2                !
 ! A31   A(10,12,13)           121.0038         estimate D2E/DX2                !
 ! A32   A(10,12,19)           119.1584         estimate D2E/DX2                !
 ! A33   A(13,12,19)           119.8206         estimate D2E/DX2                !
 ! A34   A(12,13,14)           119.6811         estimate D2E/DX2                !
 ! A35   A(12,13,20)           120.1395         estimate D2E/DX2                !
 ! A36   A(14,13,20)           120.1707         estimate D2E/DX2                !
 ! A37   A(8,14,13)            121.3711         estimate D2E/DX2                !
 ! A38   A(8,14,21)            118.2053         estimate D2E/DX2                !
 ! A39   A(13,14,21)           120.4137         estimate D2E/DX2                !
 ! A40   A(3,22,9)             122.002          estimate D2E/DX2                !
 ! A41   A(3,22,31)            119.0011         estimate D2E/DX2                !
 ! A42   A(9,22,31)            118.9937         estimate D2E/DX2                !
 ! A43   A(7,23,24)            119.8902         estimate D2E/DX2                !
 ! A44   A(7,23,25)            121.0371         estimate D2E/DX2                !
 ! A45   A(24,23,25)           119.0658         estimate D2E/DX2                !
 ! A46   A(23,24,26)           122.278          estimate D2E/DX2                !
 ! A47   A(23,24,46)           119.6898         estimate D2E/DX2                !
 ! A48   A(26,24,46)           118.0167         estimate D2E/DX2                !
 ! A49   A(23,25,27)           119.2871         estimate D2E/DX2                !
 ! A50   A(23,25,30)           120.0448         estimate D2E/DX2                !
 ! A51   A(27,25,30)           120.5412         estimate D2E/DX2                !
 ! A52   A(24,26,28)           117.1384         estimate D2E/DX2                !
 ! A53   A(24,26,48)           119.5846         estimate D2E/DX2                !
 ! A54   A(28,26,48)           123.2606         estimate D2E/DX2                !
 ! A55   A(25,27,28)           120.3118         estimate D2E/DX2                !
 ! A56   A(25,27,29)           119.4386         estimate D2E/DX2                !
 ! A57   A(28,27,29)           120.2297         estimate D2E/DX2                !
 ! A58   A(26,28,27)           121.8795         estimate D2E/DX2                !
 ! A59   A(26,28,47)           118.1486         estimate D2E/DX2                !
 ! A60   A(27,28,47)           119.96           estimate D2E/DX2                !
 ! A61   A(22,31,32)           119.836          estimate D2E/DX2                !
 ! A62   A(22,31,33)           119.8757         estimate D2E/DX2                !
 ! A63   A(32,31,33)           120.2883         estimate D2E/DX2                !
 ! A64   A(31,32,34)           120.2618         estimate D2E/DX2                !
 ! A65   A(31,32,35)           119.6085         estimate D2E/DX2                !
 ! A66   A(34,32,35)           120.1297         estimate D2E/DX2                !
 ! A67   A(31,33,36)           119.824          estimate D2E/DX2                !
 ! A68   A(31,33,37)           119.6707         estimate D2E/DX2                !
 ! A69   A(36,33,37)           120.5053         estimate D2E/DX2                !
 ! A70   A(32,34,38)           119.7536         estimate D2E/DX2                !
 ! A71   A(32,34,39)           119.158          estimate D2E/DX2                !
 ! A72   A(38,34,39)           121.0884         estimate D2E/DX2                !
 ! A73   A(33,36,38)           120.3499         estimate D2E/DX2                !
 ! A74   A(33,36,40)           121.3322         estimate D2E/DX2                !
 ! A75   A(38,36,40)           118.3179         estimate D2E/DX2                !
 ! A76   A(34,38,36)           119.5224         estimate D2E/DX2                !
 ! A77   A(34,38,41)           124.4201         estimate D2E/DX2                !
 ! A78   A(36,38,41)           116.0575         estimate D2E/DX2                !
 ! A79   A(38,41,42)           119.4465         estimate D2E/DX2                !
 ! A80   A(41,42,43)           106.4265         estimate D2E/DX2                !
 ! A81   A(41,42,44)           111.5471         estimate D2E/DX2                !
 ! A82   A(41,42,45)           111.5427         estimate D2E/DX2                !
 ! A83   A(43,42,44)           109.0888         estimate D2E/DX2                !
 ! A84   A(43,42,45)           109.0932         estimate D2E/DX2                !
 ! A85   A(44,42,45)           109.0643         estimate D2E/DX2                !
 ! A86   A(26,48,49)           107.4423         estimate D2E/DX2                !
 ! A87   A(26,48,50)           108.6677         estimate D2E/DX2                !
 ! A88   A(26,48,51)           109.4554         estimate D2E/DX2                !
 ! A89   A(49,48,50)           110.7708         estimate D2E/DX2                !
 ! A90   A(49,48,51)           109.8229         estimate D2E/DX2                !
 ! A91   A(50,48,51)           110.6105         estimate D2E/DX2                !
 ! D1    D(6,1,2,3)              1.1744         estimate D2E/DX2                !
 ! D2    D(6,1,2,16)          -178.641          estimate D2E/DX2                !
 ! D3    D(15,1,2,3)          -179.8564         estimate D2E/DX2                !
 ! D4    D(15,1,2,16)            0.3281         estimate D2E/DX2                !
 ! D5    D(2,1,6,5)             -1.2472         estimate D2E/DX2                !
 ! D6    D(2,1,6,18)           178.3312         estimate D2E/DX2                !
 ! D7    D(15,1,6,5)           179.7904         estimate D2E/DX2                !
 ! D8    D(15,1,6,18)           -0.6312         estimate D2E/DX2                !
 ! D9    D(1,2,3,4)              1.1382         estimate D2E/DX2                !
 ! D10   D(1,2,3,22)          -177.9053         estimate D2E/DX2                !
 ! D11   D(16,2,3,4)          -179.0454         estimate D2E/DX2                !
 ! D12   D(16,2,3,22)            1.9111         estimate D2E/DX2                !
 ! D13   D(2,3,4,5)             -3.2768         estimate D2E/DX2                !
 ! D14   D(2,3,4,7)            178.8092         estimate D2E/DX2                !
 ! D15   D(22,3,4,5)           175.771          estimate D2E/DX2                !
 ! D16   D(22,3,4,7)            -2.1429         estimate D2E/DX2                !
 ! D17   D(2,3,22,9)          -179.4023         estimate D2E/DX2                !
 ! D18   D(2,3,22,31)           -0.0586         estimate D2E/DX2                !
 ! D19   D(4,3,22,9)             1.5539         estimate D2E/DX2                !
 ! D20   D(4,3,22,31)         -179.1025         estimate D2E/DX2                !
 ! D21   D(3,4,5,6)              3.2501         estimate D2E/DX2                !
 ! D22   D(3,4,5,17)          -177.0235         estimate D2E/DX2                !
 ! D23   D(7,4,5,6)           -178.8833         estimate D2E/DX2                !
 ! D24   D(7,4,5,17)             0.8432         estimate D2E/DX2                !
 ! D25   D(3,4,7,8)              0.2843         estimate D2E/DX2                !
 ! D26   D(3,4,7,23)          -179.1214         estimate D2E/DX2                !
 ! D27   D(5,4,7,8)           -177.5409         estimate D2E/DX2                !
 ! D28   D(5,4,7,23)             3.0534         estimate D2E/DX2                !
 ! D29   D(4,5,6,1)             -1.0325         estimate D2E/DX2                !
 ! D30   D(4,5,6,18)           179.3876         estimate D2E/DX2                !
 ! D31   D(17,5,6,1)           179.2444         estimate D2E/DX2                !
 ! D32   D(17,5,6,18)           -0.3355         estimate D2E/DX2                !
 ! D33   D(4,7,8,9)              2.1429         estimate D2E/DX2                !
 ! D34   D(4,7,8,14)          -174.9602         estimate D2E/DX2                !
 ! D35   D(23,7,8,9)          -178.4542         estimate D2E/DX2                !
 ! D36   D(23,7,8,14)            4.4427         estimate D2E/DX2                !
 ! D37   D(4,7,23,24)           51.9706         estimate D2E/DX2                !
 ! D38   D(4,7,23,25)         -127.0601         estimate D2E/DX2                !
 ! D39   D(8,7,23,24)         -127.4182         estimate D2E/DX2                !
 ! D40   D(8,7,23,25)           53.5511         estimate D2E/DX2                !
 ! D41   D(7,8,9,10)           178.3234         estimate D2E/DX2                !
 ! D42   D(7,8,9,22)            -2.7847         estimate D2E/DX2                !
 ! D43   D(14,8,9,10)           -4.4635         estimate D2E/DX2                !
 ! D44   D(14,8,9,22)          174.4285         estimate D2E/DX2                !
 ! D45   D(7,8,14,13)         -178.9335         estimate D2E/DX2                !
 ! D46   D(7,8,14,21)            2.2093         estimate D2E/DX2                !
 ! D47   D(9,8,14,13)            3.9036         estimate D2E/DX2                !
 ! D48   D(9,8,14,21)         -174.9535         estimate D2E/DX2                !
 ! D49   D(8,9,10,11)         -178.6105         estimate D2E/DX2                !
 ! D50   D(8,9,10,12)            1.9739         estimate D2E/DX2                !
 ! D51   D(22,9,10,11)           2.5054         estimate D2E/DX2                !
 ! D52   D(22,9,10,12)        -176.9103         estimate D2E/DX2                !
 ! D53   D(8,9,22,3)             0.9065         estimate D2E/DX2                !
 ! D54   D(8,9,22,31)         -178.4372         estimate D2E/DX2                !
 ! D55   D(10,9,22,3)          179.791          estimate D2E/DX2                !
 ! D56   D(10,9,22,31)           0.4473         estimate D2E/DX2                !
 ! D57   D(9,10,12,13)           1.2593         estimate D2E/DX2                !
 ! D58   D(9,10,12,19)         179.7501         estimate D2E/DX2                !
 ! D59   D(11,10,12,13)       -178.153          estimate D2E/DX2                !
 ! D60   D(11,10,12,19)          0.3378         estimate D2E/DX2                !
 ! D61   D(10,12,13,14)         -1.8823         estimate D2E/DX2                !
 ! D62   D(10,12,13,20)        177.0486         estimate D2E/DX2                !
 ! D63   D(19,12,13,14)        179.6368         estimate D2E/DX2                !
 ! D64   D(19,12,13,20)         -1.4323         estimate D2E/DX2                !
 ! D65   D(12,13,14,8)          -0.7819         estimate D2E/DX2                !
 ! D66   D(12,13,14,21)        178.0503         estimate D2E/DX2                !
 ! D67   D(20,13,14,8)        -179.7124         estimate D2E/DX2                !
 ! D68   D(20,13,14,21)         -0.8803         estimate D2E/DX2                !
 ! D69   D(3,22,31,32)         -90.5564         estimate D2E/DX2                !
 ! D70   D(3,22,31,33)          89.3683         estimate D2E/DX2                !
 ! D71   D(9,22,31,32)          88.8072         estimate D2E/DX2                !
 ! D72   D(9,22,31,33)         -91.268          estimate D2E/DX2                !
 ! D73   D(7,23,24,26)        -178.7772         estimate D2E/DX2                !
 ! D74   D(7,23,24,46)           2.682          estimate D2E/DX2                !
 ! D75   D(25,23,24,26)          0.2725         estimate D2E/DX2                !
 ! D76   D(25,23,24,46)       -178.2682         estimate D2E/DX2                !
 ! D77   D(7,23,25,27)         177.4132         estimate D2E/DX2                !
 ! D78   D(7,23,25,30)           1.4854         estimate D2E/DX2                !
 ! D79   D(24,23,25,27)         -1.6253         estimate D2E/DX2                !
 ! D80   D(24,23,25,30)       -177.5531         estimate D2E/DX2                !
 ! D81   D(23,24,26,28)          1.4587         estimate D2E/DX2                !
 ! D82   D(23,24,26,48)       -179.9668         estimate D2E/DX2                !
 ! D83   D(46,24,26,28)       -179.9772         estimate D2E/DX2                !
 ! D84   D(46,24,26,48)         -1.4027         estimate D2E/DX2                !
 ! D85   D(23,25,27,28)          1.209          estimate D2E/DX2                !
 ! D86   D(23,25,27,29)       -177.1717         estimate D2E/DX2                !
 ! D87   D(30,25,27,28)        177.1161         estimate D2E/DX2                !
 ! D88   D(30,25,27,29)         -1.2646         estimate D2E/DX2                !
 ! D89   D(24,26,28,27)         -1.9026         estimate D2E/DX2                !
 ! D90   D(24,26,28,47)        176.8448         estimate D2E/DX2                !
 ! D91   D(48,26,28,27)        179.58           estimate D2E/DX2                !
 ! D92   D(48,26,28,47)         -1.6727         estimate D2E/DX2                !
 ! D93   D(24,26,48,49)        -31.6748         estimate D2E/DX2                !
 ! D94   D(24,26,48,50)       -151.5766         estimate D2E/DX2                !
 ! D95   D(24,26,48,51)         87.5325         estimate D2E/DX2                !
 ! D96   D(28,26,48,49)        146.8081         estimate D2E/DX2                !
 ! D97   D(28,26,48,50)         26.9063         estimate D2E/DX2                !
 ! D98   D(28,26,48,51)        -93.9846         estimate D2E/DX2                !
 ! D99   D(25,27,28,26)          0.5955         estimate D2E/DX2                !
 ! D100  D(25,27,28,47)       -178.1296         estimate D2E/DX2                !
 ! D101  D(29,27,28,26)        178.9633         estimate D2E/DX2                !
 ! D102  D(29,27,28,47)          0.2381         estimate D2E/DX2                !
 ! D103  D(22,31,32,34)        179.9272         estimate D2E/DX2                !
 ! D104  D(22,31,32,35)          0.0119         estimate D2E/DX2                !
 ! D105  D(33,31,32,34)          0.0028         estimate D2E/DX2                !
 ! D106  D(33,31,32,35)       -179.9126         estimate D2E/DX2                !
 ! D107  D(22,31,33,36)       -179.9579         estimate D2E/DX2                !
 ! D108  D(22,31,33,37)         -0.0059         estimate D2E/DX2                !
 ! D109  D(32,31,33,36)         -0.0335         estimate D2E/DX2                !
 ! D110  D(32,31,33,37)        179.9185         estimate D2E/DX2                !
 ! D111  D(31,32,34,38)          0.0135         estimate D2E/DX2                !
 ! D112  D(31,32,34,39)       -179.9405         estimate D2E/DX2                !
 ! D113  D(35,32,34,38)        179.9284         estimate D2E/DX2                !
 ! D114  D(35,32,34,39)         -0.0257         estimate D2E/DX2                !
 ! D115  D(31,33,36,38)          0.0477         estimate D2E/DX2                !
 ! D116  D(31,33,36,40)        179.9825         estimate D2E/DX2                !
 ! D117  D(37,33,36,38)       -179.9038         estimate D2E/DX2                !
 ! D118  D(37,33,36,40)          0.0309         estimate D2E/DX2                !
 ! D119  D(32,34,38,36)          0.0007         estimate D2E/DX2                !
 ! D120  D(32,34,38,41)       -179.9882         estimate D2E/DX2                !
 ! D121  D(39,34,38,36)        179.9538         estimate D2E/DX2                !
 ! D122  D(39,34,38,41)         -0.0351         estimate D2E/DX2                !
 ! D123  D(33,36,38,34)         -0.0314         estimate D2E/DX2                !
 ! D124  D(33,36,38,41)        179.9584         estimate D2E/DX2                !
 ! D125  D(40,36,38,34)       -179.9682         estimate D2E/DX2                !
 ! D126  D(40,36,38,41)          0.0217         estimate D2E/DX2                !
 ! D127  D(34,38,41,42)          0.1816         estimate D2E/DX2                !
 ! D128  D(36,38,41,42)       -179.8077         estimate D2E/DX2                !
 ! D129  D(38,41,42,43)        179.9058         estimate D2E/DX2                !
 ! D130  D(38,41,42,44)        -61.2142         estimate D2E/DX2                !
 ! D131  D(38,41,42,45)         61.0228         estimate D2E/DX2                !
 --------------------------------------------------------------------------------
 Trust Radius=3.00D-01 FncErr=1.00D-07 GrdErr=1.00D-06
 Number of steps in this run=    287 maximum allowed number of steps=    306.
 GradGradGradGradGradGradGradGradGradGradGradGradGradGradGradGradGradGrad

 Leave Link  103 at Tue Mar 30 05:54:22 2021, MaxMem=  5242880000 cpu:         0.2
 (Enter /opt/nce/packages/global/g09/l202.exe)
 Symmetry turned off by external request.
 Stoichiometry    C26H19BF3NO
 Framework group  C1[X(C26H19BF3NO)]
 Deg. of freedom   147
 Full point group                 C1      NOp   1
                          Input orientation:                          
 ---------------------------------------------------------------------
 Center     Atomic      Atomic             Coordinates (Angstroms)
 Number     Number       Type             X           Y           Z
 ---------------------------------------------------------------------
      1          6           0        0.687089    3.333469    0.920380
      2          6           0        1.493318    2.252387    0.619856
      3          6           0        0.923232    0.966936    0.464615
      4          6           0       -0.492854    0.793804    0.595479
      5          6           0       -1.275966    1.932682    0.952582
      6          6           0       -0.703778    3.175934    1.101384
      7          6           0       -1.073664   -0.500706    0.413608
      8          6           0       -0.205739   -1.595680    0.108576
      9          6           0        1.209141   -1.392528    0.037266
     10          6           0        2.064607   -2.488733   -0.230132
     11          1           0        3.141303   -2.337127   -0.261586
     12          6           0        1.530814   -3.741369   -0.461594
     13          6           0        0.133895   -3.947872   -0.462769
     14          6           0       -0.711128   -2.895203   -0.191647
     15          1           0        1.141323    4.320344    1.034923
     16          1           0        2.566799    2.384414    0.504729
     17          1           0       -2.346002    1.805153    1.103425
     18          1           0       -1.325083    4.033166    1.365114
     19          1           0        2.203554   -4.576292   -0.670549
     20          1           0       -0.274167   -4.933057   -0.694688
     21          1           0       -1.790270   -3.033435   -0.220429
     22          7           0        1.728294   -0.125780    0.206832
     23          6           0       -2.515094   -0.690735    0.524442
     24          6           0       -3.392961    0.128880   -0.220752
     25          6           0       -3.057465   -1.674350    1.385845
     26          6           0       -4.780559    0.007037   -0.133765
     27          6           0       -4.439195   -1.788214    1.504392
     28          6           0       -5.284839   -0.953937    0.758582
     29          1           0       -4.860462   -2.515507    2.203830
     30          1           0       -2.395207   -2.289439    1.999122
     31          6           0        3.154230    0.066039    0.097870
     32          6           0        3.723657    0.340620   -1.143230
     33          6           0        3.959078   -0.023010    1.239791
     34          6           0        5.102979    0.529396   -1.258687
     35          1           0        3.085356    0.409006   -2.026305
     36          6           0        5.330952    0.162622    1.133853
     37          1           0        3.501995   -0.237374    2.207702
     38          6           0        5.917078    0.441080   -0.116446
     39          1           0        5.529025    0.744144   -2.237642
     40          1           0        5.981172    0.098999    2.007559
     41          8           0        7.253448    0.606272   -0.119602
     42          6           0        7.915605    0.892680   -1.335715
     43          1           0        8.981795    0.985133   -1.094148
     44          1           0        7.781223    0.080746   -2.071523
     45          1           0        7.561664    1.840901   -1.776426
     46          1           0       -2.985285    0.872024   -0.909949
     47          1           0       -6.369017   -1.027376    0.878905
     48          5           0       -5.742345    0.997486   -1.033843
     49          9           0       -5.066651    2.229582   -1.175196
     50          9           0       -6.960097    1.172544   -0.361618
     51          9           0       -5.953057    0.423546   -2.295025
 ---------------------------------------------------------------------
 Rotational constants (GHZ):      0.2929752      0.0650026      0.0579583
 Leave Link  202 at Tue Mar 30 05:54:22 2021, MaxMem=  5242880000 cpu:         0.1
 (Enter /opt/nce/packages/global/g09/l301.exe)
 Standard basis: def2TZVP (5D, 7F)
 Ernie: Thresh=  0.10000D-02 Tol=  0.10000D-05 Strict=F.
  1106 basis functions,  1784 primitive gaussians,  1266 cartesian basis functions
   111 alpha electrons      111 beta electrons
       nuclear repulsion energy      2965.7304009032 Hartrees.
 IExCor= 2523 DFT=T Ex=TPSS Corr=TPSS ExCW=0 ScaHFX=  0.000000
 ScaDFX=  1.000000  1.000000  1.000000  1.000000 ScalE2=  1.000000  1.000000
 IRadAn=      5 IRanWt=     -1 IRanGd=            0 ICorTp=0 IEmpDi=  4
 NAtoms=   51 NActive=   51 NUniq=   51 SFac= 1.00D+00 NAtFMM=   60 NAOKFM=F Big=F
 Integral buffers will be    131072 words long.
 Raffenetti 2 integral format.
 Two-electron integral symmetry is turned off.
 ------------------------------------------------------------------------------
 Polarizable Continuum Model (PCM)
 =================================
 Model                : PCM (using non-symmetric T matrix).
 Atomic radii         : SMD-Coulomb.
 Polarization charges : Total charges.
 Charge compensation  : None.
 Solution method      : On-the-fly selection.
 Cavity type          : VdW (van der Waals Surface) (Alpha=1.000).
 Cavity algorithm     : GePol (No added spheres)
                        Default sphere list used, NSphG=   51.
                        Lebedev-Laikov grids with approx.  5.0 points / Ang**2.
                        Smoothing algorithm: York/Karplus (Gamma=1.0000).
                        Polarization charges: spherical gaussians, with
                                              point-specific exponents (IZeta= 3).
                        Self-potential: point-specific (ISelfS= 7).
                        Self-field    : sphere-specific E.n sum rule (ISelfD= 2).
 1st derivatives      : Analytical E(r).r(x)/FMM algorithm (CHGder, D1EAlg=3).
                        Cavity 1st derivative terms included.
 Solvent              : Acetonitrile, Eps=  35.688000 Eps(inf)=   1.806874
 ------------------------------------------------------------------------------
 GePol: Number of generator spheres                  =      51
 GePol: Total number of spheres                      =      51
 GePol: Number of exposed spheres                    =      51 (100.00%)
 GePol: Number of points                             =    3808
 GePol: Average weight of points                     =       0.12
 GePol: Minimum weight of points                     =   0.37D-09
 GePol: Maximum weight of points                     =    0.21559
 GePol: Number of points with low weight             =     215
 GePol: Fraction of low-weight points (<1% of avg)   =       5.65%
 GePol: Cavity surface area                          =    439.122 Ang**2
 GePol: Cavity volume                                =    430.984 Ang**3
 ------------------------------------------------------------------------------
 Atomic radii for non-electrostatic terms: SMD-CDS.
 ------------------------------------------------------------------------------
 PCM non-electrostatic energy =        -0.0068399174 Hartrees.
 Nuclear repulsion after PCM non-electrostatic terms =     2965.7235609858 Hartrees.
 Leave Link  301 at Tue Mar 30 05:54:23 2021, MaxMem=  5242880000 cpu:         4.6
 (Enter /opt/nce/packages/global/g09/l302.exe)
 NPDir=0 NMtPBC=     1 NCelOv=     1 NCel=       1 NClECP=     1 NCelD=      1
         NCelK=      1 NCelE2=     1 NClLst=     1 CellRange=     0.0.
 One-electron integrals computed using PRISM.
   1 Symmetry operations used in ECPInt.
 ECPInt:  NShTT=   91806 NPrTT=  285396 LenC2=   71439 LenP2D=  151316.
 LDataN:  DoStor=T MaxTD1= 6 Len=  172
 NBasis=  1106 RedAO= T EigKep=  5.29D-06  NBF=  1106
 NBsUse=  1106 1.00D-06 EigRej= -1.00D+00 NBFU=  1106
 Precomputing XC quadrature grid using
 IXCGrd= 4 IRadAn=           5 IRanWt=          -1 IRanGd=           0 AccXCQ= 0.00D+00.
 Generated NRdTot=       0 NPtTot=           0 NUsed=           0 NTot=          32
 NSgBfM=  1159  1159  1159  1163  1163 MxSgAt=    51 MxSgA2=    51.
 Leave Link  302 at Tue Mar 30 05:54:26 2021, MaxMem=  5242880000 cpu:        33.6
 (Enter /opt/nce/packages/global/g09/l303.exe)
 DipDrv:  MaxL=1.
 Leave Link  303 at Tue Mar 30 05:54:27 2021, MaxMem=  5242880000 cpu:         3.0
 (Enter /opt/nce/packages/global/g09/l401.exe)
 ExpMin= 6.06D-02 ExpMax= 3.55D+04 ExpMxC= 1.21D+03 IAcc=3 IRadAn=         5 AccDes= 0.00D+00
 Harris functional with IExCor= 1009 and IRadAn=       5 diagonalized for initial guess.
 HarFok:  IExCor= 1009 AccDes= 0.00D+00 IRadAn=         5 IDoV= 1 UseB2=F ITyADJ=14
 ICtDFT=  3500011 ScaDFX=  1.000000  1.000000  1.000000  1.000000
 FoFCou: FMM=F IPFlag=           0 FMFlag=      100000 FMFlg1=           0
         NFxFlg=           0 DoJE=T BraDBF=F KetDBF=T FulRan=T
         wScrn=  0.000000 ICntrl=     500 IOpCl=  0 I1Cent=   200000004 NGrid=           0
         NMat0=    1 NMatS0=      1 NMatT0=    0 NMatD0=    1 NMtDS0=    0 NMtDT0=    0
 Symmetry not used in FoFCou.
 Harris En= -1455.96002641613    
 JPrj=0 DoOrth=F DoCkMO=F.
 Leave Link  401 at Tue Mar 30 05:54:38 2021, MaxMem=  5242880000 cpu:       130.1
 (Enter /opt/nce/packages/global/g09/l502.exe)
 Closed shell SCF:
 Using DIIS extrapolation, IDIIS=  1040.
 Two-electron integral symmetry not used.
 IVT=     4849708 IEndB=     4849708 NGot=  5242880000 MDV=  5239650955
 LenX=  5239650955 LenY=  5238046933
 Requested convergence on RMS density matrix=1.00D-08 within 128 cycles.
 Requested convergence on MAX density matrix=1.00D-06.
 Requested convergence on             energy=1.00D-06.
 No special actions if energy rises.
 Fock matrices will be formed incrementally for  20 cycles.

 Cycle   1  Pass 1  IDiag  1:
 FoFJK:  IHMeth= 1 ICntrl=     500 DoSepK=F KAlg= 0 I1Cent=   0 FoldK=F
 IRaf= 660000000 NMat=   1 IRICut=       1 DoRegI=T DoRafI=F ISym2E= 0.
 FoFCou: FMM=F IPFlag=           0 FMFlag=      100000 FMFlg1=           0
         NFxFlg=           0 DoJE=T BraDBF=F KetDBF=F FulRan=T
         wScrn=  0.000000 ICntrl=     500 IOpCl=  0 I1Cent=           0 NGrid=           0
         NMat0=    1 NMatS0=      1 NMatT0=    0 NMatD0=    1 NMtDS0=    0 NMtDT0=    0
 Symmetry not used in FoFCou.
 Inv3:  Mode=1 IEnd=    43502592.
 Iteration    1 A*A^-1 deviation from unit magnitude is 7.33D-15 for   3808.
 Iteration    1 A*A^-1 deviation from orthogonality  is 2.66D-15 for   3239    419.
 Iteration    1 A^-1*A deviation from unit magnitude is 7.55D-15 for   3808.
 Iteration    1 A^-1*A deviation from orthogonality  is 2.87D-10 for   3221   3150.
 Iteration    2 A*A^-1 deviation from unit magnitude is 2.55D-15 for    417.
 Iteration    2 A*A^-1 deviation from orthogonality  is 2.66D-15 for   3003    315.
 Iteration    2 A^-1*A deviation from unit magnitude is 8.88D-16 for     76.
 Iteration    2 A^-1*A deviation from orthogonality  is 3.42D-16 for   3767   2563.
 E= -1457.00351241359    
 DIIS: error= 2.48D-02 at cycle   1 NSaved=   1.
 NSaved= 1 IEnMin= 1 EnMin= -1457.00351241359     IErMin= 1 ErrMin= 2.48D-02
 ErrMax= 2.48D-02  0.00D+00 EMaxC= 1.00D-01 BMatC= 6.24D-01 BMatP= 6.24D-01
 IDIUse=3 WtCom= 7.52D-01 WtEn= 2.48D-01
 Coeff-Com:  0.100D+01
 Coeff-En:   0.100D+01
 Coeff:      0.100D+01
 Gap=     0.063 Goal=   None    Shift=    0.000
 GapD=    0.063 DampG=0.500 DampE=0.500 DampFc=0.2500 IDamp=-1.
 Damping current iteration by 2.50D-01
 RMSDP=4.02D-03 MaxDP=5.02D-01              OVMax= 4.53D-01

 Cycle   2  Pass 1  IDiag  1:
 RMSU=  1.00D-03    CP:  1.02D+00
 E= -1457.18827742144     Delta-E=       -0.184765007841 Rises=F Damp=T
 DIIS: error= 8.20D-03 at cycle   2 NSaved=   2.
 NSaved= 2 IEnMin= 2 EnMin= -1457.18827742144     IErMin= 2 ErrMin= 8.20D-03
 ErrMax= 8.20D-03  0.00D+00 EMaxC= 1.00D-01 BMatC= 1.57D-01 BMatP= 6.24D-01
 IDIUse=3 WtCom= 9.18D-01 WtEn= 8.20D-02
 Coeff-Com: -0.562D+00 0.156D+01
 Coeff-En:   0.000D+00 0.100D+01
 Coeff:     -0.516D+00 0.152D+01
 Gap=     0.104 Goal=   None    Shift=    0.000
 RMSDP=9.28D-04 MaxDP=6.84D-02 DE=-1.85D-01 OVMax= 5.89D-01

 Cycle   3  Pass 1  IDiag  1:
 RMSU=  8.87D-04    CP:  9.88D-01  1.23D+00
 E= -1457.38776796703     Delta-E=       -0.199490545591 Rises=F Damp=F
 DIIS: error= 1.36D-02 at cycle   3 NSaved=   3.
 NSaved= 3 IEnMin= 3 EnMin= -1457.38776796703     IErMin= 2 ErrMin= 8.20D-03
 ErrMax= 1.36D-02  0.00D+00 EMaxC= 1.00D-01 BMatC= 1.41D-01 BMatP= 1.57D-01
 IDIUse=3 WtCom= 8.64D-01 WtEn= 1.36D-01
 Coeff-Com: -0.466D+00 0.100D+01 0.462D+00
 Coeff-En:   0.000D+00 0.000D+00 0.100D+01
 Coeff:     -0.403D+00 0.868D+00 0.535D+00
 Gap=     0.090 Goal=   None    Shift=    0.000
 RMSDP=5.69D-04 MaxDP=7.78D-02 DE=-1.99D-01 OVMax= 2.56D-01

 Cycle   4  Pass 1  IDiag  1:
 RMSU=  4.88D-04    CP:  9.92D-01  1.16D+00  6.81D-01
 E= -1457.47244557144     Delta-E=       -0.084677604409 Rises=F Damp=F
 DIIS: error= 8.91D-03 at cycle   4 NSaved=   4.
 NSaved= 4 IEnMin= 4 EnMin= -1457.47244557144     IErMin= 2 ErrMin= 8.20D-03
 ErrMax= 8.91D-03  0.00D+00 EMaxC= 1.00D-01 BMatC= 7.11D-02 BMatP= 1.41D-01
 IDIUse=3 WtCom= 9.11D-01 WtEn= 8.91D-02
 Coeff-Com: -0.173D+00 0.348D+00 0.406D+00 0.420D+00
 Coeff-En:   0.000D+00 0.000D+00 0.366D+00 0.634D+00
 Coeff:     -0.158D+00 0.317D+00 0.402D+00 0.439D+00
 Gap=     0.071 Goal=   None    Shift=    0.000
 RMSDP=2.82D-04 MaxDP=3.91D-02 DE=-8.47D-02 OVMax= 1.73D-01

 Cycle   5  Pass 1  IDiag  1:
 RMSU=  2.03D-04    CP:  9.93D-01  1.14D+00  7.19D-01  6.05D-01
 E= -1457.54178357952     Delta-E=       -0.069338008083 Rises=F Damp=F
 DIIS: error= 2.53D-03 at cycle   5 NSaved=   5.
 NSaved= 5 IEnMin= 5 EnMin= -1457.54178357952     IErMin= 5 ErrMin= 2.53D-03
 ErrMax= 2.53D-03  0.00D+00 EMaxC= 1.00D-01 BMatC= 6.30D-03 BMatP= 7.11D-02
 IDIUse=3 WtCom= 9.75D-01 WtEn= 2.53D-02
 Coeff-Com: -0.433D-01 0.746D-01 0.200D+00 0.298D+00 0.470D+00
 Coeff-En:   0.000D+00 0.000D+00 0.000D+00 0.587D-01 0.941D+00
 Coeff:     -0.422D-01 0.727D-01 0.195D+00 0.292D+00 0.482D+00
 Gap=     0.076 Goal=   None    Shift=    0.000
 RMSDP=1.59D-04 MaxDP=2.66D-02 DE=-6.93D-02 OVMax= 4.77D-02

 Cycle   6  Pass 1  IDiag  1:
 RMSU=  5.76D-05    CP:  9.92D-01  1.19D+00  7.74D-01  6.18D-01  3.60D-01
 E= -1457.54712271289     Delta-E=       -0.005339133375 Rises=F Damp=F
 DIIS: error= 1.36D-03 at cycle   6 NSaved=   6.
 NSaved= 6 IEnMin= 6 EnMin= -1457.54712271289     IErMin= 6 ErrMin= 1.36D-03
 ErrMax= 1.36D-03  0.00D+00 EMaxC= 1.00D-01 BMatC= 1.26D-03 BMatP= 6.30D-03
 IDIUse=3 WtCom= 9.86D-01 WtEn= 1.36D-02
 Coeff-Com: -0.105D-01 0.131D-01 0.761D-01 0.128D+00 0.342D+00 0.451D+00
 Coeff-En:   0.000D+00 0.000D+00 0.000D+00 0.000D+00 0.228D+00 0.772D+00
 Coeff:     -0.104D-01 0.129D-01 0.750D-01 0.126D+00 0.341D+00 0.455D+00
 Gap=     0.075 Goal=   None    Shift=    0.000
 RMSDP=4.69D-05 MaxDP=4.90D-03 DE=-5.34D-03 OVMax= 1.92D-02

 Cycle   7  Pass 1  IDiag  1:
 RMSU=  2.63D-05    CP:  9.92D-01  1.18D+00  7.65D-01  6.13D-01  4.81D-01
                    CP:  5.45D-01
 E= -1457.54850061565     Delta-E=       -0.001377902751 Rises=F Damp=F
 DIIS: error= 4.13D-04 at cycle   7 NSaved=   7.
 NSaved= 7 IEnMin= 7 EnMin= -1457.54850061565     IErMin= 7 ErrMin= 4.13D-04
 ErrMax= 4.13D-04  0.00D+00 EMaxC= 1.00D-01 BMatC= 1.34D-04 BMatP= 1.26D-03
 IDIUse=3 WtCom= 9.96D-01 WtEn= 4.13D-03
 Coeff-Com: -0.157D-02 0.636D-03 0.115D-01 0.230D-01 0.136D+00 0.298D+00
 Coeff-Com:  0.533D+00
 Coeff-En:   0.000D+00 0.000D+00 0.000D+00 0.000D+00 0.000D+00 0.653D-01
 Coeff-En:   0.935D+00
 Coeff:     -0.156D-02 0.633D-03 0.114D-01 0.229D-01 0.135D+00 0.297D+00
 Coeff:      0.535D+00
 Gap=     0.075 Goal=   None    Shift=    0.000
 RMSDP=1.56D-05 MaxDP=2.00D-03 DE=-1.38D-03 OVMax= 4.06D-03

 Cycle   8  Pass 1  IDiag  1:
 RMSU=  9.73D-06    CP:  9.92D-01  1.18D+00  7.62D-01  6.13D-01  5.08D-01
                    CP:  6.20D-01  6.57D-01
 E= -1457.54862106339     Delta-E=       -0.000120447742 Rises=F Damp=F
 DIIS: error= 1.06D-04 at cycle   8 NSaved=   8.
 NSaved= 8 IEnMin= 8 EnMin= -1457.54862106339     IErMin= 8 ErrMin= 1.06D-04
 ErrMax= 1.06D-04  0.00D+00 EMaxC= 1.00D-01 BMatC= 9.56D-06 BMatP= 1.34D-04
 IDIUse=3 WtCom= 9.99D-01 WtEn= 1.06D-03
 Coeff-Com: -0.637D-03 0.313D-03 0.154D-02 0.429D-02 0.552D-01 0.145D+00
 Coeff-Com:  0.314D+00 0.481D+00
 Coeff-En:   0.000D+00 0.000D+00 0.000D+00 0.000D+00 0.000D+00 0.000D+00
 Coeff-En:   0.000D+00 0.100D+01
 Coeff:     -0.637D-03 0.312D-03 0.154D-02 0.428D-02 0.551D-01 0.144D+00
 Coeff:      0.313D+00 0.482D+00
 Gap=     0.075 Goal=   None    Shift=    0.000
 RMSDP=7.61D-06 MaxDP=1.51D-03 DE=-1.20D-04 OVMax= 1.61D-03

 Cycle   9  Pass 1  IDiag  1:
 RMSU=  4.00D-06    CP:  9.92D-01  1.18D+00  7.63D-01  6.15D-01  4.95D-01
                    CP:  6.35D-01  7.16D-01  6.32D-01
 E= -1457.54862919657     Delta-E=       -0.000008133185 Rises=F Damp=F
 DIIS: error= 4.80D-05 at cycle   9 NSaved=   9.
 NSaved= 9 IEnMin= 9 EnMin= -1457.54862919657     IErMin= 9 ErrMin= 4.80D-05
 ErrMax= 4.80D-05  0.00D+00 EMaxC= 1.00D-01 BMatC= 1.82D-06 BMatP= 9.56D-06
 IDIUse=1 WtCom= 1.00D+00 WtEn= 0.00D+00
 Coeff-Com: -0.279D-03 0.231D-03-0.383D-03-0.375D-04 0.192D-01 0.580D-01
 Coeff-Com:  0.138D+00 0.329D+00 0.456D+00
 Coeff:     -0.279D-03 0.231D-03-0.383D-03-0.375D-04 0.192D-01 0.580D-01
 Coeff:      0.138D+00 0.329D+00 0.456D+00
 Gap=     0.075 Goal=   None    Shift=    0.000
 RMSDP=2.80D-06 MaxDP=5.74D-04 DE=-8.13D-06 OVMax= 5.48D-04

 Cycle  10  Pass 1  IDiag  1:
 RMSU=  8.97D-07    CP:  9.92D-01  1.18D+00  7.63D-01  6.14D-01  5.00D-01
                    CP:  6.36D-01  7.08D-01  7.31D-01  6.25D-01
 E= -1457.54863095394     Delta-E=       -0.000001757365 Rises=F Damp=F
 DIIS: error= 6.44D-06 at cycle  10 NSaved=  10.
 NSaved=10 IEnMin=10 EnMin= -1457.54863095394     IErMin=10 ErrMin= 6.44D-06
 ErrMax= 6.44D-06  0.00D+00 EMaxC= 1.00D-01 BMatC= 5.90D-08 BMatP= 1.82D-06
 IDIUse=1 WtCom= 1.00D+00 WtEn= 0.00D+00
 Coeff-Com: -0.128D-03 0.119D-03-0.278D-03-0.230D-03 0.791D-02 0.252D-01
 Coeff-Com:  0.611D-01 0.159D+00 0.250D+00 0.497D+00
 Coeff:     -0.128D-03 0.119D-03-0.278D-03-0.230D-03 0.791D-02 0.252D-01
 Coeff:      0.611D-01 0.159D+00 0.250D+00 0.497D+00
 Gap=     0.075 Goal=   None    Shift=    0.000
 RMSDP=4.47D-07 MaxDP=8.89D-05 DE=-1.76D-06 OVMax= 7.67D-05

 Cycle  11  Pass 1  IDiag  1:
 RMSU=  2.41D-07    CP:  9.92D-01  1.18D+00  7.63D-01  6.14D-01  4.99D-01
                    CP:  6.37D-01  7.11D-01  7.24D-01  6.64D-01  8.74D-01
 E= -1457.54863100137     Delta-E=       -0.000000047432 Rises=F Damp=F
 DIIS: error= 2.32D-06 at cycle  11 NSaved=  11.
 NSaved=11 IEnMin=11 EnMin= -1457.54863100137     IErMin=11 ErrMin= 2.32D-06
 ErrMax= 2.32D-06  0.00D+00 EMaxC= 1.00D-01 BMatC= 7.92D-09 BMatP= 5.90D-08
 IDIUse=1 WtCom= 1.00D+00 WtEn= 0.00D+00
 Coeff-Com: -0.287D-04 0.342D-04-0.728D-04-0.884D-04 0.104D-02 0.390D-02
 Coeff-Com:  0.970D-02 0.306D-01 0.573D-01 0.287D+00 0.610D+00
 Coeff:     -0.287D-04 0.342D-04-0.728D-04-0.884D-04 0.104D-02 0.390D-02
 Coeff:      0.970D-02 0.306D-01 0.573D-01 0.287D+00 0.610D+00
 Gap=     0.075 Goal=   None    Shift=    0.000
 RMSDP=2.23D-07 MaxDP=4.28D-05 DE=-4.74D-08 OVMax= 2.45D-05

 Cycle  12  Pass 1  IDiag  1:
 RMSU=  9.90D-08    CP:  9.92D-01  1.18D+00  7.63D-01  6.14D-01  5.00D-01
                    CP:  6.37D-01  7.10D-01  7.36D-01  6.54D-01  9.26D-01
                    CP:  7.54D-01
 E= -1457.54863100779     Delta-E=       -0.000000006419 Rises=F Damp=F
 DIIS: error= 7.84D-07 at cycle  12 NSaved=  12.
 NSaved=12 IEnMin=12 EnMin= -1457.54863100779     IErMin=12 ErrMin= 7.84D-07
 ErrMax= 7.84D-07  0.00D+00 EMaxC= 1.00D-01 BMatC= 8.94D-10 BMatP= 7.92D-09
 IDIUse=1 WtCom= 1.00D+00 WtEn= 0.00D+00
 Coeff-Com: -0.811D-05 0.110D-04-0.196D-04-0.294D-04 0.585D-04 0.457D-03
 Coeff-Com:  0.129D-02 0.636D-02 0.155D-01 0.133D+00 0.359D+00 0.485D+00
 Coeff:     -0.811D-05 0.110D-04-0.196D-04-0.294D-04 0.585D-04 0.457D-03
 Coeff:      0.129D-02 0.636D-02 0.155D-01 0.133D+00 0.359D+00 0.485D+00
 Gap=     0.075 Goal=   None    Shift=    0.000
 RMSDP=8.17D-08 MaxDP=1.62D-05 DE=-6.42D-09 OVMax= 7.94D-06

 Cycle  13  Pass 1  IDiag  1:
 RMSU=  3.29D-08    CP:  9.92D-01  1.18D+00  7.63D-01  6.14D-01  5.00D-01
                    CP:  6.37D-01  7.11D-01  7.34D-01  6.61D-01  9.29D-01
                    CP:  7.96D-01  6.76D-01
 E= -1457.54863100861     Delta-E=       -0.000000000822 Rises=F Damp=F
 DIIS: error= 2.06D-07 at cycle  13 NSaved=  13.
 NSaved=13 IEnMin=13 EnMin= -1457.54863100861     IErMin=13 ErrMin= 2.06D-07
 ErrMax= 2.06D-07  0.00D+00 EMaxC= 1.00D-01 BMatC= 7.32D-11 BMatP= 8.94D-10
 IDIUse=1 WtCom= 1.00D+00 WtEn= 0.00D+00
 Coeff-Com: -0.154D-05 0.238D-05-0.228D-05-0.547D-05-0.807D-04-0.209D-03
 Coeff-Com: -0.402D-03-0.695D-04 0.205D-02 0.398D-01 0.128D+00 0.270D+00
 Coeff-Com:  0.560D+00
 Coeff:     -0.154D-05 0.238D-05-0.228D-05-0.547D-05-0.807D-04-0.209D-03
 Coeff:     -0.402D-03-0.695D-04 0.205D-02 0.398D-01 0.128D+00 0.270D+00
 Coeff:      0.560D+00
 Gap=     0.075 Goal=   None    Shift=    0.000
 RMSDP=1.45D-08 MaxDP=2.00D-06 DE=-8.22D-10 OVMax= 2.76D-06

 Cycle  14  Pass 1  IDiag  1:
 RMSU=  8.23D-09    CP:  9.92D-01  1.18D+00  7.63D-01  6.14D-01  5.00D-01
                    CP:  6.37D-01  7.11D-01  7.35D-01  6.61D-01  9.34D-01
                    CP:  8.02D-01  7.10D-01  8.58D-01
 E= -1457.54863100871     Delta-E=       -0.000000000096 Rises=F Damp=F
 DIIS: error= 9.69D-08 at cycle  14 NSaved=  14.
 NSaved=14 IEnMin=14 EnMin= -1457.54863100871     IErMin=14 ErrMin= 9.69D-08
 ErrMax= 9.69D-08  0.00D+00 EMaxC= 1.00D-01 BMatC= 9.61D-12 BMatP= 7.32D-11
 IDIUse=1 WtCom= 1.00D+00 WtEn= 0.00D+00
 Coeff-Com: -0.291D-06 0.571D-06 0.226D-06-0.110D-05-0.554D-04-0.178D-03
 Coeff-Com: -0.378D-03-0.670D-03-0.223D-03 0.115D-01 0.437D-01 0.117D+00
 Coeff-Com:  0.336D+00 0.493D+00
 Coeff:     -0.291D-06 0.571D-06 0.226D-06-0.110D-05-0.554D-04-0.178D-03
 Coeff:     -0.378D-03-0.670D-03-0.223D-03 0.115D-01 0.437D-01 0.117D+00
 Coeff:      0.336D+00 0.493D+00
 Gap=     0.075 Goal=   None    Shift=    0.000
 RMSDP=3.66D-09 MaxDP=4.07D-07 DE=-9.64D-11 OVMax= 8.80D-07

 Error on total polarization charges =  0.05774
 SCF Done:  E(RTPSS-TPSS) =  -1457.54863101     A.U. after   14 cycles
            NFock= 14  Conv=0.37D-08     -V/T= 2.0045
 KE= 1.451061111870D+03 PE=-9.335343891075D+03 EE= 3.461010587210D+03
 SMD-CDS (non-electrostatic) energy       (kcal/mol) =      -4.29
 (included in total energy above)
 Leave Link  502 at Tue Mar 30 06:11:16 2021, MaxMem=  5242880000 cpu:     11897.5
 (Enter /opt/nce/packages/global/g09/l601.exe)
 Copying SCF densities to generalized density rwf, IOpCl= 0 IROHF=0.

 **********************************************************************

            Population analysis using the SCF density.

 **********************************************************************

 Alpha  occ. eigenvalues --  -24.34894 -24.34886 -24.34656 -18.92082 -14.19505
 Alpha  occ. eigenvalues --  -10.06685 -10.06680 -10.05669 -10.04845 -10.03517
 Alpha  occ. eigenvalues --  -10.03333 -10.02997 -10.02963 -10.01143 -10.01114
 Alpha  occ. eigenvalues --  -10.00824 -10.00760 -10.00723 -10.00691 -10.00580
 Alpha  occ. eigenvalues --  -10.00489 -10.00455 -10.00238 -10.00172  -9.99686
 Alpha  occ. eigenvalues --   -9.99602  -9.99436  -9.98739  -9.98639  -9.98385
 Alpha  occ. eigenvalues --   -9.95583  -6.62808  -1.09012  -1.05184  -1.04936
 Alpha  occ. eigenvalues --   -1.00931  -0.95532  -0.83054  -0.81886  -0.80178
 Alpha  occ. eigenvalues --   -0.79049  -0.76265  -0.72745  -0.71783  -0.71154
 Alpha  occ. eigenvalues --   -0.70517  -0.69291  -0.68498  -0.68332  -0.64843
 Alpha  occ. eigenvalues --   -0.62736  -0.60735  -0.59615  -0.57625  -0.56536
 Alpha  occ. eigenvalues --   -0.55442  -0.55074  -0.53404  -0.51879  -0.51577
 Alpha  occ. eigenvalues --   -0.50522  -0.48723  -0.47949  -0.46191  -0.45922
 Alpha  occ. eigenvalues --   -0.45280  -0.44023  -0.43335  -0.43260  -0.42463
 Alpha  occ. eigenvalues --   -0.42066  -0.41487  -0.41231  -0.41167  -0.40882
 Alpha  occ. eigenvalues --   -0.40413  -0.40171  -0.39866  -0.39169  -0.39050
 Alpha  occ. eigenvalues --   -0.38730  -0.37449  -0.37190  -0.36591  -0.35523
 Alpha  occ. eigenvalues --   -0.35201  -0.35042  -0.33999  -0.33533  -0.33348
 Alpha  occ. eigenvalues --   -0.33230  -0.32893  -0.32405  -0.32225  -0.31969
 Alpha  occ. eigenvalues --   -0.31413  -0.30684  -0.30431  -0.29621  -0.29379
 Alpha  occ. eigenvalues --   -0.29263  -0.29094  -0.28802  -0.25707  -0.24900
 Alpha  occ. eigenvalues --   -0.24153  -0.23420  -0.23073  -0.22367  -0.21110
 Alpha  occ. eigenvalues --   -0.20762
 Alpha virt. eigenvalues --   -0.13284  -0.06838  -0.05519  -0.05156  -0.04179
 Alpha virt. eigenvalues --   -0.03868  -0.03079  -0.02518   0.00456   0.03488
 Alpha virt. eigenvalues --    0.04161   0.04420   0.05285   0.05533   0.05946
 Alpha virt. eigenvalues --    0.06771   0.06934   0.07244   0.07958   0.08163
 Alpha virt. eigenvalues --    0.08496   0.08766   0.09037   0.09219   0.09810
 Alpha virt. eigenvalues --    0.09995   0.10263   0.10404   0.10683   0.10985
 Alpha virt. eigenvalues --    0.11335   0.11585   0.11727   0.12161   0.12673
 Alpha virt. eigenvalues --    0.12969   0.13531   0.14336   0.15051   0.15833
 Alpha virt. eigenvalues --    0.16205   0.16248   0.16786   0.17134   0.17483
 Alpha virt. eigenvalues --    0.17822   0.18905   0.19215   0.19455   0.19701
 Alpha virt. eigenvalues --    0.19743   0.20118   0.20206   0.20440   0.20621
 Alpha virt. eigenvalues --    0.20970   0.21060   0.21415   0.21965   0.22063
 Alpha virt. eigenvalues --    0.22465   0.22682   0.23193   0.23364   0.23833
 Alpha virt. eigenvalues --    0.24018   0.24551   0.24876   0.25176   0.25572
 Alpha virt. eigenvalues --    0.25928   0.26166   0.26426   0.26629   0.26993
 Alpha virt. eigenvalues --    0.27288   0.27490   0.28006   0.28433   0.28775
 Alpha virt. eigenvalues --    0.28949   0.29190   0.29789   0.30130   0.30498
 Alpha virt. eigenvalues --    0.31120   0.31328   0.31797   0.32040   0.32105
 Alpha virt. eigenvalues --    0.32488   0.32832   0.32876   0.33068   0.33958
 Alpha virt. eigenvalues --    0.34239   0.34586   0.34708   0.34824   0.35052
 Alpha virt. eigenvalues --    0.35299   0.35527   0.35953   0.36205   0.36484
 Alpha virt. eigenvalues --    0.37269   0.38044   0.38394   0.38834   0.39154
 Alpha virt. eigenvalues --    0.39468   0.39583   0.40136   0.40452   0.40646
 Alpha virt. eigenvalues --    0.40874   0.41056   0.41354   0.41623   0.41715
 Alpha virt. eigenvalues --    0.42156   0.42384   0.42732   0.42871   0.43088
 Alpha virt. eigenvalues --    0.43329   0.43926   0.44043   0.44369   0.44812
 Alpha virt. eigenvalues --    0.44968   0.45091   0.45499   0.45805   0.46043
 Alpha virt. eigenvalues --    0.46316   0.47016   0.47243   0.47441   0.47690
 Alpha virt. eigenvalues --    0.48077   0.48176   0.48419   0.49268   0.49480
 Alpha virt. eigenvalues --    0.50373   0.50668   0.51921   0.52218   0.52631
 Alpha virt. eigenvalues --    0.52851   0.54149   0.54301   0.54829   0.55222
 Alpha virt. eigenvalues --    0.56387   0.56697   0.56951   0.57471   0.57540
 Alpha virt. eigenvalues --    0.58403   0.58611   0.59017   0.59670   0.59773
 Alpha virt. eigenvalues --    0.60031   0.60122   0.61008   0.61632   0.62043
 Alpha virt. eigenvalues --    0.62343   0.63107   0.63409   0.63468   0.63620
 Alpha virt. eigenvalues --    0.63817   0.63968   0.64101   0.64594   0.65003
 Alpha virt. eigenvalues --    0.65245   0.65439   0.65762   0.66093   0.66596
 Alpha virt. eigenvalues --    0.67003   0.67291   0.67548   0.67686   0.68164
 Alpha virt. eigenvalues --    0.68542   0.68851   0.69052   0.69916   0.70285
 Alpha virt. eigenvalues --    0.70575   0.71157   0.71397   0.71503   0.71870
 Alpha virt. eigenvalues --    0.71992   0.72356   0.72437   0.72914   0.73510
 Alpha virt. eigenvalues --    0.73600   0.74443   0.74687   0.75263   0.75703
 Alpha virt. eigenvalues --    0.75973   0.76111   0.76388   0.76596   0.77783
 Alpha virt. eigenvalues --    0.78223   0.78804   0.79112   0.79354   0.79863
 Alpha virt. eigenvalues --    0.80319   0.80891   0.81079   0.81584   0.82394
 Alpha virt. eigenvalues --    0.82803   0.83120   0.83435   0.83716   0.84157
 Alpha virt. eigenvalues --    0.84709   0.84898   0.85459   0.86186   0.86423
 Alpha virt. eigenvalues --    0.87124   0.87830   0.88889   0.89201   0.89835
 Alpha virt. eigenvalues --    0.90268   0.90760   0.91253   0.92117   0.92459
 Alpha virt. eigenvalues --    0.92997   0.93060   0.94179   0.94573   0.94782
 Alpha virt. eigenvalues --    0.95862   0.96899   0.97002   0.97800   0.98217
 Alpha virt. eigenvalues --    0.98795   0.99548   1.00162   1.01026   1.01474
 Alpha virt. eigenvalues --    1.01972   1.02562   1.03051   1.03811   1.04354
 Alpha virt. eigenvalues --    1.04776   1.05172   1.05517   1.06137   1.06918
 Alpha virt. eigenvalues --    1.07146   1.07545   1.08296   1.08669   1.09566
 Alpha virt. eigenvalues --    1.10158   1.10818   1.10978   1.11598   1.13267
 Alpha virt. eigenvalues --    1.13535   1.14136   1.14269   1.15734   1.16242
 Alpha virt. eigenvalues --    1.16463   1.16767   1.18045   1.18922   1.19096
 Alpha virt. eigenvalues --    1.19575   1.19949   1.20720   1.20935   1.21035
 Alpha virt. eigenvalues --    1.21690   1.22134   1.22523   1.22910   1.23699
 Alpha virt. eigenvalues --    1.24049   1.25047   1.25613   1.25863   1.26331
 Alpha virt. eigenvalues --    1.27184   1.27357   1.27765   1.28087   1.28202
 Alpha virt. eigenvalues --    1.28880   1.29590   1.30280   1.30733   1.31371
 Alpha virt. eigenvalues --    1.31844   1.33106   1.34135   1.34463   1.34939
 Alpha virt. eigenvalues --    1.36025   1.36441   1.38439   1.38656   1.39280
 Alpha virt. eigenvalues --    1.39543   1.39752   1.40183   1.40509   1.40942
 Alpha virt. eigenvalues --    1.41441   1.42379   1.43990   1.44195   1.45129
 Alpha virt. eigenvalues --    1.45383   1.46061   1.46092   1.46425   1.47233
 Alpha virt. eigenvalues --    1.48028   1.48146   1.48673   1.49307   1.50015
 Alpha virt. eigenvalues --    1.50306   1.50695   1.51245   1.51287   1.51763
 Alpha virt. eigenvalues --    1.52002   1.52374   1.53321   1.53574   1.54136
 Alpha virt. eigenvalues --    1.54404   1.54998   1.55582   1.55823   1.56556
 Alpha virt. eigenvalues --    1.57033   1.57233   1.58423   1.58974   1.59199
 Alpha virt. eigenvalues --    1.59927   1.60273   1.61397   1.61824   1.62321
 Alpha virt. eigenvalues --    1.62691   1.63286   1.63966   1.64503   1.64852
 Alpha virt. eigenvalues --    1.65178   1.65834   1.65913   1.66581   1.66834
 Alpha virt. eigenvalues --    1.66971   1.67926   1.68575   1.69111   1.69475
 Alpha virt. eigenvalues --    1.70518   1.70996   1.72007   1.72245   1.72473
 Alpha virt. eigenvalues --    1.72860   1.73180   1.74013   1.74776   1.74880
 Alpha virt. eigenvalues --    1.75068   1.76139   1.76413   1.77580   1.78674
 Alpha virt. eigenvalues --    1.80497   1.80733   1.81375   1.81659   1.82208
 Alpha virt. eigenvalues --    1.82711   1.83122   1.83830   1.84796   1.85643
 Alpha virt. eigenvalues --    1.86012   1.86539   1.86907   1.87233   1.87833
 Alpha virt. eigenvalues --    1.89098   1.89649   1.90491   1.91025   1.92180
 Alpha virt. eigenvalues --    1.92257   1.93093   1.93552   1.94139   1.95203
 Alpha virt. eigenvalues --    1.95562   1.96634   1.97109   1.97625   1.98459
 Alpha virt. eigenvalues --    1.98948   2.00074   2.00891   2.01950   2.02540
 Alpha virt. eigenvalues --    2.03239   2.03817   2.04140   2.04397   2.04755
 Alpha virt. eigenvalues --    2.05208   2.05586   2.06977   2.07919   2.08269
 Alpha virt. eigenvalues --    2.08649   2.08964   2.09672   2.10252   2.11266
 Alpha virt. eigenvalues --    2.12139   2.12945   2.13217   2.13672   2.14033
 Alpha virt. eigenvalues --    2.14383   2.14794   2.14956   2.15494   2.16529
 Alpha virt. eigenvalues --    2.18059   2.18760   2.19412   2.19639   2.20226
 Alpha virt. eigenvalues --    2.20898   2.21384   2.21600   2.22499   2.23629
 Alpha virt. eigenvalues --    2.24414   2.25551   2.26438   2.26525   2.27089
 Alpha virt. eigenvalues --    2.27556   2.28038   2.29272   2.29702   2.29842
 Alpha virt. eigenvalues --    2.30164   2.31868   2.32518   2.33686   2.34311
 Alpha virt. eigenvalues --    2.35431   2.36354   2.36865   2.37410   2.38106
 Alpha virt. eigenvalues --    2.39547   2.40155   2.40771   2.41197   2.42960
 Alpha virt. eigenvalues --    2.43756   2.44704   2.45811   2.46014   2.47009
 Alpha virt. eigenvalues --    2.47979   2.48770   2.49062   2.49328   2.50944
 Alpha virt. eigenvalues --    2.52145   2.52313   2.52626   2.52834   2.53173
 Alpha virt. eigenvalues --    2.53696   2.54102   2.54397   2.55672   2.56298
 Alpha virt. eigenvalues --    2.56854   2.57075   2.57761   2.58015   2.58460
 Alpha virt. eigenvalues --    2.59153   2.59353   2.59895   2.60490   2.60949
 Alpha virt. eigenvalues --    2.61168   2.61530   2.62164   2.62546   2.63564
 Alpha virt. eigenvalues --    2.63983   2.64442   2.64633   2.65087   2.65343
 Alpha virt. eigenvalues --    2.65901   2.66230   2.67037   2.67105   2.67790
 Alpha virt. eigenvalues --    2.67881   2.68153   2.68359   2.68879   2.69213
 Alpha virt. eigenvalues --    2.69627   2.70205   2.70252   2.71331   2.71880
 Alpha virt. eigenvalues --    2.72242   2.72789   2.73535   2.73820   2.74590
 Alpha virt. eigenvalues --    2.74782   2.75046   2.75328   2.76209   2.76624
 Alpha virt. eigenvalues --    2.77033   2.77490   2.77970   2.78472   2.78939
 Alpha virt. eigenvalues --    2.79390   2.79519   2.80196   2.80615   2.80708
 Alpha virt. eigenvalues --    2.81104   2.81662   2.82662   2.82836   2.83426
 Alpha virt. eigenvalues --    2.83652   2.84035   2.84963   2.85334   2.85803
 Alpha virt. eigenvalues --    2.86546   2.86874   2.87085   2.87448   2.87853
 Alpha virt. eigenvalues --    2.88420   2.88903   2.89268   2.89623   2.90137
 Alpha virt. eigenvalues --    2.90531   2.91045   2.91730   2.92614   2.93060
 Alpha virt. eigenvalues --    2.93503   2.93796   2.94724   2.95349   2.96428
 Alpha virt. eigenvalues --    2.96621   2.96872   2.97448   2.98006   2.98468
 Alpha virt. eigenvalues --    2.99056   2.99938   3.00217   3.00817   3.01139
 Alpha virt. eigenvalues --    3.01397   3.02165   3.02388   3.03660   3.04362
 Alpha virt. eigenvalues --    3.04405   3.04586   3.05143   3.06654   3.07580
 Alpha virt. eigenvalues --    3.08105   3.08726   3.09023   3.09553   3.09819
 Alpha virt. eigenvalues --    3.10285   3.11023   3.11452   3.12160   3.12564
 Alpha virt. eigenvalues --    3.12910   3.13176   3.13839   3.14041   3.14230
 Alpha virt. eigenvalues --    3.14663   3.15121   3.16405   3.16833   3.17053
 Alpha virt. eigenvalues --    3.17453   3.18361   3.18760   3.18847   3.19387
 Alpha virt. eigenvalues --    3.19834   3.20629   3.21234   3.21555   3.22002
 Alpha virt. eigenvalues --    3.22735   3.23155   3.23419   3.24476   3.24999
 Alpha virt. eigenvalues --    3.25489   3.26278   3.26992   3.27325   3.27641
 Alpha virt. eigenvalues --    3.28085   3.28237   3.28755   3.29459   3.30104
 Alpha virt. eigenvalues --    3.30463   3.30780   3.31353   3.31770   3.32345
 Alpha virt. eigenvalues --    3.32962   3.33004   3.33754   3.34112   3.34347
 Alpha virt. eigenvalues --    3.34996   3.35042   3.35760   3.36269   3.36905
 Alpha virt. eigenvalues --    3.37045   3.37477   3.37503   3.38993   3.39311
 Alpha virt. eigenvalues --    3.39534   3.39888   3.40417   3.40949   3.41557
 Alpha virt. eigenvalues --    3.41782   3.42370   3.42769   3.43540   3.43928
 Alpha virt. eigenvalues --    3.44033   3.44808   3.45424   3.45802   3.46335
 Alpha virt. eigenvalues --    3.47263   3.47624   3.47842   3.47961   3.48880
 Alpha virt. eigenvalues --    3.48948   3.49254   3.49710   3.49969   3.50407
 Alpha virt. eigenvalues --    3.51171   3.51648   3.51861   3.52102   3.52754
 Alpha virt. eigenvalues --    3.53509   3.53939   3.54269   3.54414   3.54657
 Alpha virt. eigenvalues --    3.54879   3.55217   3.55950   3.56708   3.57547
 Alpha virt. eigenvalues --    3.58299   3.58544   3.59140   3.59715   3.60297
 Alpha virt. eigenvalues --    3.60588   3.61507   3.62372   3.62690   3.64209
 Alpha virt. eigenvalues --    3.65327   3.65538   3.66658   3.67770   3.68678
 Alpha virt. eigenvalues --    3.69625   3.70318   3.70539   3.71385   3.71838
 Alpha virt. eigenvalues --    3.72441   3.73381   3.74566   3.75750   3.77487
 Alpha virt. eigenvalues --    3.78062   3.78952   3.80766   3.81481   3.82023
 Alpha virt. eigenvalues --    3.82911   3.83876   3.84039   3.84767   3.86383
 Alpha virt. eigenvalues --    3.87413   3.88446   3.89649   3.90710   3.91386
 Alpha virt. eigenvalues --    3.92311   3.93750   3.95353   3.95718   3.96188
 Alpha virt. eigenvalues --    3.97382   3.98403   3.98939   3.99118   4.00052
 Alpha virt. eigenvalues --    4.00384   4.01207   4.02330   4.03304   4.03613
 Alpha virt. eigenvalues --    4.04775   4.05016   4.05554   4.06669   4.06889
 Alpha virt. eigenvalues --    4.07785   4.08433   4.09988   4.10706   4.11627
 Alpha virt. eigenvalues --    4.12684   4.13402   4.13597   4.14129   4.15074
 Alpha virt. eigenvalues --    4.15804   4.16435   4.16927   4.17427   4.19012
 Alpha virt. eigenvalues --    4.19373   4.19510   4.20764   4.21099   4.21235
 Alpha virt. eigenvalues --    4.22059   4.22475   4.22655   4.23122   4.23270
 Alpha virt. eigenvalues --    4.24286   4.24788   4.25249   4.26078   4.26146
 Alpha virt. eigenvalues --    4.27071   4.27993   4.28487   4.29215   4.29935
 Alpha virt. eigenvalues --    4.31035   4.32384   4.32917   4.33548   4.34595
 Alpha virt. eigenvalues --    4.34854   4.36190   4.39089   4.40090   4.40704
 Alpha virt. eigenvalues --    4.41977   4.42185   4.43086   4.43994   4.45996
 Alpha virt. eigenvalues --    4.46173   4.48456   4.49235   4.49950   4.52140
 Alpha virt. eigenvalues --    4.53249   4.55346   4.56745   4.56871   4.57468
 Alpha virt. eigenvalues --    4.59769   4.61321   4.62480   4.62510   4.63428
 Alpha virt. eigenvalues --    4.65467   4.66071   4.67052   4.67496   4.72365
 Alpha virt. eigenvalues --    4.72640   4.73330   4.76509   4.80099   4.80481
 Alpha virt. eigenvalues --    4.82370   4.83047   4.83207   4.84214   4.85967
 Alpha virt. eigenvalues --    4.86175   4.87403   4.88259   4.91842   4.94183
 Alpha virt. eigenvalues --    4.94360   4.95842   4.96504   4.98226   4.99483
 Alpha virt. eigenvalues --    5.01944   5.05439   5.06099   5.07093   5.11350
 Alpha virt. eigenvalues --    5.13614   5.14026   5.16528   5.16951   5.19347
 Alpha virt. eigenvalues --    5.21120   5.23832   5.25119   5.26358   5.26747
 Alpha virt. eigenvalues --    5.26979   5.28084   5.32332   5.34079   5.34322
 Alpha virt. eigenvalues --    5.36431   5.41000   5.41789   5.47056   5.48069
 Alpha virt. eigenvalues --    5.49447   5.49944   5.53573   5.54673   5.56039
 Alpha virt. eigenvalues --    5.57679   5.65015   5.68385   5.71250   5.74728
 Alpha virt. eigenvalues --    5.78235   5.78814   5.81048   5.82845   5.92236
 Alpha virt. eigenvalues --    5.99679   6.00210   6.08574   6.21528   6.34500
 Alpha virt. eigenvalues --    6.42950   6.54208   6.59475   6.74354   6.83253
 Alpha virt. eigenvalues --    6.87624   6.90644   6.90847   6.91074   6.91398
 Alpha virt. eigenvalues --    6.91503   6.91847   6.92259   6.92864   7.01633
 Alpha virt. eigenvalues --    7.05729   7.06797   7.08432   7.09496   7.10107
 Alpha virt. eigenvalues --    7.14011   7.25701   7.27314   7.27597   7.30318
 Alpha virt. eigenvalues --    7.38772   7.40054   7.40341   8.29148   8.32840
 Alpha virt. eigenvalues --    8.33231   8.46145   8.46871   8.51640   8.78000
 Alpha virt. eigenvalues --    8.79205   8.81046   8.81431   8.85503   8.85903
 Alpha virt. eigenvalues --    8.86431   8.91343   8.93680  15.62428  22.16208
 Alpha virt. eigenvalues --   22.28034  22.30003  22.37598  22.40929  22.55498
 Alpha virt. eigenvalues --   22.57086  22.58410  22.58768  22.60730  22.62873
 Alpha virt. eigenvalues --   22.65289  22.67466  22.71570  22.73921  22.77574
 Alpha virt. eigenvalues --   22.84312  22.87684  22.90193  22.96371  23.02710
 Alpha virt. eigenvalues --   23.09576  23.22336  23.26784  23.32370  23.64175
 Alpha virt. eigenvalues --   33.26551  44.16331  56.99156  57.05742  57.11961
          Condensed to atoms (all electrons):
 Mulliken charges:
               1
     1  C   -0.110899
     2  C   -0.175858
     3  C    0.103305
     4  C    0.086692
     5  C   -0.213661
     6  C   -0.130068
     7  C    0.295102
     8  C    0.072164
     9  C    0.105588
    10  C   -0.180241
    11  H    0.168763
    12  C   -0.106310
    13  C   -0.131616
    14  C   -0.211142
    15  H    0.154340
    16  H    0.168678
    17  H    0.182458
    18  H    0.150973
    19  H    0.154950
    20  H    0.151061
    21  H    0.177472
    22  N    0.257080
    23  C    0.068486
    24  C   -0.409950
    25  C   -0.265588
    26  C    0.041958
    27  C   -0.136408
    28  C   -0.211839
    29  H    0.132489
    30  H    0.153279
    31  C   -0.060988
    32  C   -0.172173
    33  C   -0.145943
    34  C   -0.237939
    35  H    0.141465
    36  C   -0.198892
    37  H    0.136156
    38  C    0.344306
    39  H    0.156605
    40  H    0.127472
    41  O   -0.229176
    42  C   -0.238808
    43  H    0.161234
    44  H    0.147217
    45  H    0.147352
    46  H    0.148953
    47  H    0.127968
    48  B    0.525982
    49  F   -0.412506
    50  F   -0.407459
    51  F   -0.402082
 Sum of Mulliken charges =  -0.00000
 Mulliken charges with hydrogens summed into heavy atoms:
               1
     1  C    0.043441
     2  C   -0.007180
     3  C    0.103305
     4  C    0.086692
     5  C   -0.031203
     6  C    0.020905
     7  C    0.295102
     8  C    0.072164
     9  C    0.105588
    10  C   -0.011478
    12  C    0.048640
    13  C    0.019445
    14  C   -0.033670
    22  N    0.257080
    23  C    0.068486
    24  C   -0.260997
    25  C   -0.112309
    26  C    0.041958
    27  C   -0.003919
    28  C   -0.083871
    31  C   -0.060988
    32  C   -0.030708
    33  C   -0.009787
    34  C   -0.081334
    36  C   -0.071421
    38  C    0.344306
    41  O   -0.229176
    42  C    0.216994
    48  B    0.525982
    49  F   -0.412506
    50  F   -0.407459
    51  F   -0.402082
 Electronic spatial extent (au):  <R**2>=          17446.4406
 Charge=             -0.0000 electrons
 Dipole moment (field-independent basis, Debye):
    X=             30.6381    Y=             -5.5739    Z=              4.5096  Tot=             31.4658
[...]
 Alpha virt. eigenvalues --    0.63874   0.64006   0.64103   0.64668   0.64774
 Alpha virt. eigenvalues --    0.65085   0.65577   0.65940   0.66081   0.66405
 Alpha virt. eigenvalues --    0.66745   0.67193   0.67405   0.67495   0.67911
 Alpha virt. eigenvalues --    0.68399   0.68525   0.69094   0.70029   0.70190
 Alpha virt. eigenvalues --    0.70610   0.70697   0.71440   0.71657   0.71837
 Alpha virt. eigenvalues --    0.72132   0.72659   0.72794   0.73318   0.73665
 Alpha virt. eigenvalues --    0.73770   0.73984   0.74737   0.75071   0.75585
 Alpha virt. eigenvalues --    0.75875   0.75957   0.76437   0.76937   0.77016
 Alpha virt. eigenvalues --    0.78183   0.78822   0.79358   0.79739   0.80087
 Alpha virt. eigenvalues --    0.80278   0.80785   0.81028   0.81723   0.81962
 Alpha virt. eigenvalues --    0.82212   0.83128   0.83499   0.83720   0.84188
 Alpha virt. eigenvalues --    0.84581   0.84750   0.85185   0.85790   0.86266
 Alpha virt. eigenvalues --    0.86754   0.87380   0.88590   0.88856   0.89870
 Alpha virt. eigenvalues --    0.90612   0.90670   0.91395   0.91711   0.92373
 Alpha virt. eigenvalues --    0.92704   0.93200   0.93891   0.94143   0.95155
 Alpha virt. eigenvalues --    0.95882   0.96847   0.96979   0.97223   0.98575
 Alpha virt. eigenvalues --    0.98619   0.99588   1.00259   1.01082   1.01429
 Alpha virt. eigenvalues --    1.01817   1.02629   1.02932   1.04384   1.04503
 Alpha virt. eigenvalues --    1.05083   1.05205   1.05453   1.05952   1.06593
 Alpha virt. eigenvalues --    1.07298   1.07456   1.08063   1.08137   1.09439
 Alpha virt. eigenvalues --    1.10395   1.10485   1.11638   1.12344   1.13002
 Alpha virt. eigenvalues --    1.13077   1.13756   1.14392   1.15466   1.15772
 Alpha virt. eigenvalues --    1.16124   1.16650   1.18289   1.18942   1.19268
 Alpha virt. eigenvalues --    1.19408   1.19853   1.20544   1.20811   1.21271
 Alpha virt. eigenvalues --    1.21663   1.22089   1.22482   1.22888   1.23645
 Alpha virt. eigenvalues --    1.24094   1.24586   1.25417   1.25948   1.26319
 Alpha virt. eigenvalues --    1.26778   1.27060   1.27874   1.28146   1.28647
 Alpha virt. eigenvalues --    1.29114   1.29955   1.30463   1.31075   1.31479
 Alpha virt. eigenvalues --    1.32586   1.33483   1.34095   1.34676   1.34813
 Alpha virt. eigenvalues --    1.35665   1.36526   1.37681   1.38869   1.39127
 Alpha virt. eigenvalues --    1.39230   1.39518   1.39935   1.40326   1.40695
 Alpha virt. eigenvalues --    1.40935   1.41771   1.43806   1.44944   1.45104
 Alpha virt. eigenvalues --    1.45334   1.45710   1.46265   1.46841   1.47282
 Alpha virt. eigenvalues --    1.47915   1.48403   1.49123   1.49630   1.49861
 Alpha virt. eigenvalues --    1.50438   1.50692   1.50900   1.51137   1.51728
 Alpha virt. eigenvalues --    1.51923   1.52398   1.53727   1.53883   1.54018
 Alpha virt. eigenvalues --    1.54222   1.54724   1.55310   1.55755   1.56422
 Alpha virt. eigenvalues --    1.56654   1.56923   1.58267   1.58599   1.59539
 Alpha virt. eigenvalues --    1.59842   1.60280   1.60968   1.61838   1.62094
 Alpha virt. eigenvalues --    1.62250   1.63212   1.63471   1.64253   1.64585
 Alpha virt. eigenvalues --    1.65066   1.65561   1.65863   1.66191   1.66757
 Alpha virt. eigenvalues --    1.67078   1.67620   1.68099   1.68873   1.69353
 Alpha virt. eigenvalues --    1.69888   1.70766   1.71549   1.72072   1.72141
 Alpha virt. eigenvalues --    1.72631   1.72983   1.73596   1.74297   1.74688
 Alpha virt. eigenvalues --    1.75571   1.75688   1.76413   1.77872   1.78058
 Alpha virt. eigenvalues --    1.79198   1.80185   1.80968   1.81838   1.82360
 Alpha virt. eigenvalues --    1.82564   1.83398   1.84223   1.84609   1.85392
 Alpha virt. eigenvalues --    1.86217   1.86479   1.86663   1.87255   1.87651
 Alpha virt. eigenvalues --    1.88137   1.89768   1.90498   1.90949   1.91233
 Alpha virt. eigenvalues --    1.92433   1.92690   1.93825   1.94340   1.94815
 Alpha virt. eigenvalues --    1.95775   1.96040   1.96994   1.97472   1.98615
 Alpha virt. eigenvalues --    1.99748   2.00707   2.01194   2.02343   2.02959
 Alpha virt. eigenvalues --    2.03525   2.03618   2.03928   2.04274   2.04605
 Alpha virt. eigenvalues --    2.05146   2.06443   2.06554   2.07566   2.08155
 Alpha virt. eigenvalues --    2.08371   2.09261   2.09531   2.10040   2.10677
 Alpha virt. eigenvalues --    2.11590   2.12717   2.13057   2.13393   2.13727
 Alpha virt. eigenvalues --    2.14457   2.14690   2.14905   2.15581   2.16200
 Alpha virt. eigenvalues --    2.18081   2.18740   2.19960   2.20318   2.20670
 Alpha virt. eigenvalues --    2.20955   2.21122   2.22102   2.22867   2.23506
 Alpha virt. eigenvalues --    2.25143   2.25666   2.25831   2.26300   2.26786
 Alpha virt. eigenvalues --    2.27197   2.27962   2.28987   2.29041   2.29481
 Alpha virt. eigenvalues --    2.30221   2.32840   2.33489   2.33830   2.34618
 Alpha virt. eigenvalues --    2.35439   2.35825   2.36094   2.37522   2.38097
 Alpha virt. eigenvalues --    2.39649   2.40112   2.40393   2.40629   2.43262
 Alpha virt. eigenvalues --    2.43958   2.45104   2.45503   2.46199   2.47332
 Alpha virt. eigenvalues --    2.47818   2.48570   2.49203   2.49934   2.50625
 Alpha virt. eigenvalues --    2.51663   2.52393   2.53199   2.53250   2.53643
 Alpha virt. eigenvalues --    2.53891   2.54478   2.54823   2.55505   2.55900
 Alpha virt. eigenvalues --    2.56559   2.57019   2.57829   2.58244   2.58278
 Alpha virt. eigenvalues --    2.58980   2.59335   2.59672   2.60100   2.60372
 Alpha virt. eigenvalues --    2.61293   2.61574   2.62554   2.62894   2.63176
 Alpha virt. eigenvalues --    2.64015   2.64205   2.64910   2.65531   2.65647
 Alpha virt. eigenvalues --    2.65890   2.66137   2.66842   2.67099   2.67770
 Alpha virt. eigenvalues --    2.67859   2.68184   2.68522   2.68881   2.68958
 Alpha virt. eigenvalues --    2.69514   2.70105   2.70487   2.70953   2.71697
 Alpha virt. eigenvalues --    2.71859   2.72526   2.73244   2.73992   2.74145
 Alpha virt. eigenvalues --    2.74229   2.74855   2.75429   2.75744   2.75931
 Alpha virt. eigenvalues --    2.76968   2.77363   2.77741   2.78115   2.78545
 Alpha virt. eigenvalues --    2.78808   2.79306   2.79886   2.80572   2.80653
 Alpha virt. eigenvalues --    2.80896   2.81371   2.82012   2.83154   2.83218
 Alpha virt. eigenvalues --    2.83508   2.83911   2.84362   2.85125   2.85692
 Alpha virt. eigenvalues --    2.86262   2.86592   2.86870   2.87141   2.87604
 Alpha virt. eigenvalues --    2.88199   2.88823   2.89231   2.89712   2.90026
 Alpha virt. eigenvalues --    2.90488   2.90785   2.91363   2.92169   2.92547
 Alpha virt. eigenvalues --    2.92902   2.93821   2.94820   2.95123   2.95814
 Alpha virt. eigenvalues --    2.96167   2.96582   2.97026   2.97686   2.98159
 Alpha virt. eigenvalues --    2.99101   2.99582   3.00394   3.00951   3.01254
 Alpha virt. eigenvalues --    3.01454   3.02105   3.02391   3.03590   3.04172
 Alpha virt. eigenvalues --    3.04348   3.04771   3.04959   3.06762   3.07961
 Alpha virt. eigenvalues --    3.08154   3.09061   3.09365   3.09613   3.09867
 Alpha virt. eigenvalues --    3.10297   3.10853   3.11579   3.11644   3.12148
 Alpha virt. eigenvalues --    3.12585   3.13517   3.13738   3.13871   3.13982
 Alpha virt. eigenvalues --    3.14584   3.15307   3.16616   3.16937   3.17365
 Alpha virt. eigenvalues --    3.17639   3.18017   3.18464   3.18942   3.19127
 Alpha virt. eigenvalues --    3.19811   3.20695   3.21579   3.21819   3.22315
 Alpha virt. eigenvalues --    3.22648   3.23086   3.23397   3.24562   3.25057
 Alpha virt. eigenvalues --    3.25502   3.25747   3.27110   3.27519   3.27541
 Alpha virt. eigenvalues --    3.27808   3.28309   3.29022   3.29587   3.29837
 Alpha virt. eigenvalues --    3.30232   3.30961   3.31640   3.32310   3.32374
 Alpha virt. eigenvalues --    3.32723   3.32783   3.33759   3.33939   3.34641
 Alpha virt. eigenvalues --    3.35262   3.35630   3.36071   3.36242   3.36570
 Alpha virt. eigenvalues --    3.36890   3.37352   3.37870   3.38530   3.39321
 Alpha virt. eigenvalues --    3.39614   3.39983   3.40544   3.40858   3.41326
 Alpha virt. eigenvalues --    3.41720   3.41886   3.42795   3.43478   3.43754
 Alpha virt. eigenvalues --    3.44112   3.44440   3.44759   3.45685   3.46244
 Alpha virt. eigenvalues --    3.46499   3.46823   3.47141   3.47850   3.48072
 Alpha virt. eigenvalues --    3.48469   3.48812   3.49337   3.49542   3.49995
 Alpha virt. eigenvalues --    3.50316   3.51134   3.51430   3.51960   3.52360
 Alpha virt. eigenvalues --    3.52605   3.53299   3.53496   3.53821   3.54674
 Alpha virt. eigenvalues --    3.54989   3.55387   3.56079   3.56495   3.56767
 Alpha virt. eigenvalues --    3.57308   3.57635   3.58305   3.59591   3.60066
 Alpha virt. eigenvalues --    3.60324   3.60840   3.61757   3.62969   3.64231
 Alpha virt. eigenvalues --    3.64686   3.65099   3.66275   3.67505   3.67778
 Alpha virt. eigenvalues --    3.68705   3.69650   3.70016   3.70469   3.71546
 Alpha virt. eigenvalues --    3.72279   3.72984   3.74426   3.75297   3.77790
 Alpha virt. eigenvalues --    3.78525   3.78650   3.79585   3.81434   3.81935
 Alpha virt. eigenvalues --    3.82621   3.83388   3.84081   3.84934   3.86333
 Alpha virt. eigenvalues --    3.87333   3.88601   3.89031   3.90387   3.91424
 Alpha virt. eigenvalues --    3.92918   3.93920   3.95096   3.95268   3.96354
 Alpha virt. eigenvalues --    3.96631   3.98492   3.98825   3.99303   3.99406
 Alpha virt. eigenvalues --    4.00793   4.01269   4.02251   4.02469   4.04036
 Alpha virt. eigenvalues --    4.04843   4.05096   4.06067   4.06522   4.07310
 Alpha virt. eigenvalues --    4.08207   4.08949   4.09437   4.10621   4.11639
 Alpha virt. eigenvalues --    4.13055   4.13457   4.13607   4.14218   4.15368
 Alpha virt. eigenvalues --    4.15977   4.16093   4.17668   4.17898   4.19159
 Alpha virt. eigenvalues --    4.20131   4.20234   4.20971   4.21322   4.21547
 Alpha virt. eigenvalues --    4.21680   4.22202   4.22565   4.23346   4.23476
 Alpha virt. eigenvalues --    4.24431   4.24885   4.25371   4.25574   4.25869
 Alpha virt. eigenvalues --    4.27060   4.27513   4.28485   4.28585   4.29187
 Alpha virt. eigenvalues --    4.31061   4.32376   4.33091   4.33497   4.34201
 Alpha virt. eigenvalues --    4.35067   4.37151   4.39236   4.40668   4.41938
 Alpha virt. eigenvalues --    4.42320   4.43137   4.43536   4.43814   4.45193
 Alpha virt. eigenvalues --    4.45966   4.47092   4.49014   4.51994   4.52659
 Alpha virt. eigenvalues --    4.55006   4.55704   4.56455   4.57265   4.58093
 Alpha virt. eigenvalues --    4.59528   4.61085   4.62307   4.62879   4.63354
 Alpha virt. eigenvalues --    4.65211   4.66644   4.66870   4.67938   4.71617
 Alpha virt. eigenvalues --    4.72516   4.73034   4.77373   4.79927   4.80643
 Alpha virt. eigenvalues --    4.82699   4.83169   4.83839   4.84771   4.86072
 Alpha virt. eigenvalues --    4.87556   4.87859   4.89288   4.91818   4.93778
 Alpha virt. eigenvalues --    4.94132   4.95588   4.96165   4.97887   4.99134
 Alpha virt. eigenvalues --    5.01749   5.05498   5.06176   5.07642   5.12726
 Alpha virt. eigenvalues --    5.14614   5.15481   5.16930   5.17240   5.19734
 Alpha virt. eigenvalues --    5.21322   5.23552   5.25266   5.25685   5.28079
 Alpha virt. eigenvalues --    5.28173   5.28945   5.32410   5.33147   5.33627
 Alpha virt. eigenvalues --    5.36775   5.42094   5.42584   5.45486   5.46726
 Alpha virt. eigenvalues --    5.49173   5.51707   5.53020   5.55318   5.56964
 Alpha virt. eigenvalues --    5.58037   5.66599   5.68633   5.71489   5.72488
 Alpha virt. eigenvalues --    5.76851   5.78317   5.80396   5.83520   5.87251
 Alpha virt. eigenvalues --    5.96928   6.00873   6.07747   6.21026   6.31791
 Alpha virt. eigenvalues --    6.42836   6.49485   6.59256   6.74656   6.81313
 Alpha virt. eigenvalues --    6.88375   6.91078   6.91411   6.91560   6.91664
 Alpha virt. eigenvalues --    6.91753   6.92161   6.92181   6.93058   7.01168
 Alpha virt. eigenvalues --    7.02813   7.03817   7.07869   7.09146   7.09346
 Alpha virt. eigenvalues --    7.12819   7.22821   7.25501   7.26418   7.29155
 Alpha virt. eigenvalues --    7.37755   7.38710   7.38801   8.29947   8.32018
 Alpha virt. eigenvalues --    8.32238   8.45631   8.46038   8.52107   8.72853
 Alpha virt. eigenvalues --    8.74558   8.75658   8.79057   8.82381   8.86004
 Alpha virt. eigenvalues --    8.86841   8.91565   8.93368  15.45735  22.18167
 Alpha virt. eigenvalues --   22.25227  22.27435  22.36997  22.42962  22.56748
 Alpha virt. eigenvalues --   22.58060  22.59029  22.59762  22.62870  22.64810
 Alpha virt. eigenvalues --   22.66160  22.68225  22.71671  22.75681  22.77349
 Alpha virt. eigenvalues --   22.86180  22.86367  22.91417  22.96112  23.04728
 Alpha virt. eigenvalues --   23.11497  23.22851  23.25491  23.33882  23.66326
 Alpha virt. eigenvalues --   33.26092  44.13855  56.96266  57.03116  57.06464
          Condensed to atoms (all electrons):
 Mulliken charges:
               1
     1  C   -0.101696
     2  C   -0.179238
     3  C    0.106627
     4  C    0.085151
     5  C   -0.195337
     6  C   -0.126097
     7  C    0.287836
     8  C    0.086198
     9  C    0.103600
    10  C   -0.178863
    11  H    0.168046
    12  C   -0.102348
    13  C   -0.124701
    14  C   -0.204965
    15  H    0.155392
    16  H    0.167922
    17  H    0.170942
    18  H    0.150999
    19  H    0.155418
    20  H    0.151048
    21  H    0.170858
    22  N    0.262856
    23  C    0.001896
    24  C   -0.363717
    25  C   -0.230361
    26  C    0.064571
    27  C   -0.136080
    28  C   -0.208623
    29  H    0.134119
    30  H    0.138477
    31  C   -0.050871
    32  C   -0.177162
    33  C   -0.147937
    34  C   -0.232303
    35  H    0.142693
    36  C   -0.201040
    37  H    0.137580
    38  C    0.343887
    39  H    0.156801
    40  H    0.128357
    41  O   -0.239911
    42  C   -0.238331
    43  H    0.161508
    44  H    0.151943
    45  H    0.151829
    46  H    0.123289
    47  H    0.127301
    48  B    0.515654
    49  F   -0.423288
    50  F   -0.420757
    51  F   -0.419174
 Sum of Mulliken charges =  -0.00000
 Mulliken charges with hydrogens summed into heavy atoms:
               1
     1  C    0.053697
     2  C   -0.011316
     3  C    0.106627
     4  C    0.085151
     5  C   -0.024395
     6  C    0.024902
     7  C    0.287836
     8  C    0.086198
     9  C    0.103600
    10  C   -0.010817
    12  C    0.053070
    13  C    0.026348
    14  C   -0.034107
    22  N    0.262856
    23  C    0.001896
    24  C   -0.240428
    25  C   -0.091885
    26  C    0.064571
    27  C   -0.001961
    28  C   -0.081322
    31  C   -0.050871
    32  C   -0.034468
    33  C   -0.010357
    34  C   -0.075502
    36  C   -0.072683
    38  C    0.343887
    41  O   -0.239911
    42  C    0.226949
    48  B    0.515654
    49  F   -0.423288
    50  F   -0.420757
    51  F   -0.419174
 Electronic spatial extent (au):  <R**2>=          17604.8536
 Charge=              0.0000 electrons
 Dipole moment (field-independent basis, Debye):
    X=             32.5469    Y=              4.5714    Z=             -6.1585  Tot=             33.4384
 Quadrupole moment (field-independent basis, Debye-Ang):
   XX=           -281.4648   YY=           -155.6176   ZZ=           -183.7213
   XY=            -29.0327   XZ=             57.9927   YZ=              6.0732
 Traceless Quadrupole moment (field-independent basis, Debye-Ang):
   XX=            -74.5303   YY=             51.3170   ZZ=             23.2133
   XY=            -29.0327   XZ=             57.9927   YZ=              6.0732
 Octapole moment (field-independent basis, Debye-Ang**2):
  XXX=           1251.0626  YYY=             18.2375  ZZZ=              2.4225  XYY=             44.0225
  XXY=            121.2891  XXZ=           -119.6501  XZZ=            110.2578  YZZ=              0.2844
  YYZ=            -14.2129  XYZ=            -28.9720
 Hexadecapole moment (field-independent basis, Debye-Ang**3):
 XXXX=         -21541.6061 YYYY=          -2814.0000 ZZZZ=          -1382.3522 XXXY=          -1182.1992
 XXXZ=           2318.0912 YYYX=             21.2154 YYYZ=            152.7493 ZZZX=            117.2302
 ZZZY=            -59.9681 XXYY=          -3717.4068 XXZZ=          -3288.7708 YYZZ=           -818.3219
 XXYZ=              1.4373 YYXZ=             80.1792 ZZXY=            -64.1905
 N-N= 2.955918274028D+03 E-N=-9.315472866948D+03  KE= 1.451080340977D+03
 Leave Link  601 at Tue Mar 30 19:08:10 2021, MaxMem=  5242880000 cpu:         6.1
 (Enter /opt/nce/packages/global/g09/l9999.exe)
 1\1\GINC-CN028\SP\RTPSSTPSS TD-FC\Gen\C26H19B1F3N1O1\PNG4RJV\30-Mar-20
 21\0\\#p TPSSTPSS chkbasis geom=allcheck Guess=Read int=ultrafine scrf
 =(SMD,solvent=Acetonitrile) td=(NStates=30)\\Title\\0,1\C,0,0.76294597
 02,3.3306223558,1.1157988369\C,0,1.5486767936,2.257894454,0.7558228187
 \C,0,0.9576059253,0.9910241917,0.5449098095\C,0,-0.462465636,0.8321132
 037,0.6830959389\C,0,-1.2266453038,1.9674744691,1.0849160804\C,0,-0.63
 25657607,3.1870571509,1.2938975459\C,0,-1.0569996597,-0.4329037252,0.4
 523045087\C,0,-0.2271527194,-1.5259596358,0.1001460832\C,0,1.193209891
 ,-1.3429176552,0.0015961112\C,0,2.0236924354,-2.4391580603,-0.32655020
 63\H,0,3.0963689666,-2.302941427,-0.3861916957\C,0,1.4653005214,-3.673
 7344807,-0.5746403695\C,0,0.0653563968,-3.8660901344,-0.5218210406\C,0
 ,-0.7570937767,-2.8169098973,-0.1949997698\H,0,1.2294931896,4.29843906
 5,1.275920963\H,0,2.6181382425,2.3799793468,0.6370629907\H,0,-2.293923
 3629,1.8469076543,1.2296908603\H,0,-1.2291891425,4.0406337474,1.600589
 8366\H,0,2.1141200338,-4.5074737186,-0.827211056\H,0,-0.3554336926,-4.
 8413817374,-0.7462774859\H,0,-1.8316819971,-2.9540204628,-0.1650785965
 \N,0,1.7377477813,-0.0960437416,0.2173210654\C,0,-2.5242619047,-0.6093
 171425,0.5737528127\C,0,-3.3964979255,0.0819819133,-0.2854953478\C,0,-
 3.0585091415,-1.4698434395,1.5474664871\C,0,-4.7904337614,-0.068692505
 9,-0.2132781749\C,0,-4.4404624864,-1.6129465812,1.6549469816\C,0,-5.28
 96986348,-0.9260017474,0.7830939647\H,0,-4.8533877999,-2.2633132344,2.
 4226089584\H,0,-2.3954353896,-2.0004050441,2.2254476863\C,0,3.18035025
 58,0.0773583342,0.0974476275\C,0,3.7336968659,0.3874073739,-1.14059884
 49\C,0,3.9875828824,-0.0706644926,1.2279319532\C,0,5.113934309,0.55261
 01561,-1.2633922811\H,0,3.0934597183,0.5005432715,-2.0106056081\C,0,5.
 361266967,0.092434829,1.1116157213\H,0,3.542191381,-0.3122521904,2.188
 5318579\C,0,5.9331660247,0.4039138069,-0.1343203281\H,0,5.5357980011,0
 .7944732301,-2.2321881837\H,0,6.0065172246,-0.0189297416,1.9780273651\
 O,0,7.2865476287,0.5418826363,-0.1484375074\C,0,7.9146654149,0.8567747
 42,-1.4088720303\H,0,8.9814536229,0.916185106,-1.1898135213\H,0,7.7277
 820554,0.0661683589,-2.1440297633\H,0,7.5579047662,1.8197061912,-1.790
 8935145\H,0,-2.9675962584,0.739899917,-1.0387792837\H,0,-6.3654239214,
 -1.0567873966,0.8836565144\B,0,-5.7687668407,0.6956286856,-1.261559146
 9\F,0,-5.2697580622,1.9952592177,-1.595282535\F,0,-7.0867267137,0.8557
 034363,-0.7313571493\F,0,-5.8871223736,-0.0420866522,-2.4885319392\\Ve
 rsion=ES64L-G09RevE.01\State=1-A\HF=-1457.5542986\RMSD=8.344e-09\PG=C0
 1 [X(C26H19B1F3N1O1)]\\@


            ARSENIC

 FOR SMELTER FUMES HAVE I BEEN NAMED,
    I AM AN EVIL POISONOUS SMOKE...
 BUT WHEN FROM POISON I AM FREED,
    THROUGH ART AND SLEIGHT OF HAND,
 THEN CAN I CURE BOTH MAN AND BEAST,
    FROM DIRE DISEASE OFTTIMES DIRECT THEM;
 BUT PREPARE ME CORRECTLY, AND TAKE GREAT CARE
    THAT YOU FAITHFULLY KEEP WATCHFUL GUARD OVER ME;
 FOR ELSE I AM POISON, AND POISON REMAIN,
    THAT PIERCES THE HEART OF MANY A ONE.

 ATTRIBUTED TO THE PROBABLY MYTHICAL 15TH
 CENTURY MONK, BASILIUS VALENTINUS
 Job cpu time:       2 days  4 hours 32 minutes 46.3 seconds.
 File lengths (MBytes):  RWF=   4887 Int=      0 D2E=      0 Chk=   1099 Scr=      1
 Normal termination of Gaussian 09 at Tue Mar 30 19:08:13 2021.
