 Entering Gaussian System, Link 0=g09
 Input=/home/png4rjv/fotokatalizis/benchmark/OPCs/BF3-Acr_m_M06_def2TZVP.gjf
 Output=/home/png4rjv/fotokatalizis/benchmark/OPCs/BF3-Acr_m_M06_def2TZVP.log
 Initial command:
 /opt/nce/packages/global/g09/l1.exe "/home/png4rjv/fotokatalizis/benchmark/OPCs/BF3-Acr_m_M06_def2TZVP/Gau-37344.inp" -scrdir="/home/png4rjv/fotokatalizis/benchmark/OPCs/BF3-Acr_m_M06_def2TZVP/"
 Default is to use a total of  12 processors:
                               12 via shared-memory
                                1 via Linda
 Entering Link 1 = /opt/nce/packages/global/g09/l1.exe PID=     37345.
  
 Copyright (c) 1988,1990,1992,1993,1995,1998,2003,2009,2015,
            Gaussian, Inc.  All Rights Reserved.
  
 This is part of the Gaussian(R) 09 program.  It is based on
 the Gaussian(R) 03 system (copyright 2003, Gaussian, Inc.),
 the Gaussian(R) 98 system (copyright 1998, Gaussian, Inc.),
 the Gaussian(R) 94 system (copyright 1995, Gaussian, Inc.),
 the Gaussian 92(TM) system (copyright 1992, Gaussian, Inc.),
 the Gaussian 90(TM) system (copyright 1990, Gaussian, Inc.),
 the Gaussian 88(TM) system (copyright 1988, Gaussian, Inc.),
 the Gaussian 86(TM) system (copyright 1986, Carnegie Mellon
 University), and the Gaussian 82(TM) system (copyright 1983,
 Carnegie Mellon University). Gaussian is a federally registered
 trademark of Gaussian, Inc.
  
 This software contains proprietary and confidential information,
 including trade secrets, belonging to Gaussian, Inc.
  
 This software is provided under written license and may be
 used, copied, transmitted, or stored only in accord with that
 written license.
  
 The following legend is applicable only to US Government
 contracts under FAR:
  
                    RESTRICTED RIGHTS LEGEND
  
 Use, reproduction and disclosure by the US Government is
 subject to restrictions as set forth in subparagraphs (a)
 and (c) of the Commercial Computer Software - Restricted
 Rights clause in FAR 52.227-19.
  
 Gaussian, Inc.
 340 Quinnipiac St., Bldg. 40, Wallingford CT 06492
  
  
 ---------------------------------------------------------------
 Warning -- This program may not be used in any manner that
 competes with the business of Gaussian, Inc. or will provide
 assistance to any competitor of Gaussian, Inc.  The licensee
 of this program is prohibited from giving any competitor of
 Gaussian, Inc. access to this program.  By using this program,
 the user acknowledges that Gaussian, Inc. is engaged in the
 business of creating and licensing software in the field of
 computational chemistry and represents and warrants to the
 licensee that it is not a competitor of Gaussian, Inc. and that
 it will not use this program in any manner prohibited above.
 ---------------------------------------------------------------
  

 Cite this work as:
 Gaussian 09, Revision E.01,
 M. J. Frisch, G. W. Trucks, H. B. Schlegel, G. E. Scuseria, 
 M. A. Robb, J. R. Cheeseman, G. Scalmani, V. Barone, B. Mennucci, 
 G. A. Petersson, H. Nakatsuji, M. Caricato, X. Li, H. P. Hratchian, 
 A. F. Izmaylov, J. Bloino, G. Zheng, J. L. Sonnenberg, M. Hada, 
 M. Ehara, K. Toyota, R. Fukuda, J. Hasegawa, M. Ishida, T. Nakajima, 
 Y. Honda, O. Kitao, H. Nakai, T. Vreven, J. A. Montgomery, Jr., 
 J. E. Peralta, F. Ogliaro, M. Bearpark, J. J. Heyd, E. Brothers, 
 K. N. Kudin, V. N. Staroverov, T. Keith, R. Kobayashi, J. Normand, 
 K. Raghavachari, A. Rendell, J. C. Burant, S. S. Iyengar, J. Tomasi, 
 M. Cossi, N. Rega, J. M. Millam, M. Klene, J. E. Knox, J. B. Cross, 
 V. Bakken, C. Adamo, J. Jaramillo, R. Gomperts, R. E. Stratmann, 
 O. Yazyev, A. J. Austin, R. Cammi, C. Pomelli, J. W. Ochterski, 
 R. L. Martin, K. Morokuma, V. G. Zakrzewski, G. A. Voth, 
 P. Salvador, J. J. Dannenberg, S. Dapprich, A. D. Daniels, 
 O. Farkas, J. B. Foresman, J. V. Ortiz, J. Cioslowski, 
 and D. J. Fox, Gaussian, Inc., Wallingford CT, 2013.
 
 ******************************************
 Gaussian 09:  ES64L-G09RevE.01 30-Nov-2015
                19-Feb-2021 
 ******************************************
 %chk=cp.chk
 Default route:  MaxDisk=500GB
 ----------------------------------------------------------------------
 #p m06/def2TZVP opt freq=noraman nosymm int=ultrafine scrf=(SMD,solven
 t=Acetonitrile)
 ----------------------------------------------------------------------
 1/14=-1,18=20,19=15,26=4,38=1/1,3;
 2/9=110,12=2,15=1,17=6,18=5,40=1/2;
 3/5=44,7=101,11=2,16=1,25=1,30=1,70=32201,71=1,72=2,74=-54,75=-5/1,2,3;
 4//1;
 5/5=2,38=5,53=2/2;
 6/7=2,8=2,9=2,10=2,28=1/1;
 7/30=1/1,2,3,16;
 1/14=-1,18=20,19=15,26=4/3(2);
 2/9=110,15=1/2;
 99//99;
 2/9=110,15=1/2;
 3/5=44,7=101,11=2,16=1,25=1,30=1,70=32205,71=1,72=2,74=-54,75=-5/1,2,3;
 4/5=5,16=3,69=1/1;
 5/5=2,38=5,53=2/2;
 7/30=1/1,2,3,16;
 1/14=-1,18=20,19=15,26=4/3(-5);
 2/9=110,15=1/2;
 6/7=2,8=2,9=2,10=2,19=2,28=1/1;
 99/9=1/99;
 Leave Link    1 at Fri Feb 19 09:30:06 2021, MaxMem=           0 cpu:         2.1
 (Enter /opt/nce/packages/global/g09/l101.exe)
 -----
 Title
 -----
 Symbolic Z-matrix:
 Charge =  0 Multiplicity = 1
 C                     0.68709   3.33347   0.92038 
 C                     1.49332   2.25239   0.61986 
 C                     0.92323   0.96694   0.46462 
 C                    -0.49285   0.7938    0.59548 
 C                    -1.27597   1.93268   0.95258 
 C                    -0.70378   3.17593   1.10138 
 C                    -1.07366  -0.50071   0.41361 
 C                    -0.20574  -1.59568   0.10858 
 C                     1.20914  -1.39253   0.03727 
 C                     2.06461  -2.48873  -0.23013 
 H                     3.1413   -2.33713  -0.26159 
 C                     1.53081  -3.74137  -0.46159 
 C                     0.1339   -3.94787  -0.46277 
 C                    -0.71113  -2.8952   -0.19165 
 H                     1.14132   4.32034   1.03492 
 H                     2.5668    2.38441   0.50473 
 H                    -2.346     1.80515   1.10343 
 H                    -1.32508   4.03317   1.36511 
 H                     2.20355  -4.57629  -0.67055 
 H                    -0.27417  -4.93306  -0.69469 
 H                    -1.79027  -3.03343  -0.22043 
 N                     1.72829  -0.12578   0.20683 
 C                    -2.51509  -0.69074   0.52444 
 C                    -3.39296   0.12888  -0.22075 
 C                    -3.05747  -1.67435   1.38585 
 C                    -4.78056   0.00704  -0.13377 
 C                    -4.43919  -1.78821   1.50439 
 C                    -5.28484  -0.95394   0.75858 
 H                    -4.86046  -2.51551   2.20383 
 H                    -2.39521  -2.28944   1.99912 
 C                     3.15423   0.06604   0.09787 
 C                     3.72366   0.34062  -1.14323 
 C                     3.95908  -0.02301   1.23979 
 C                     5.10298   0.5294   -1.25869 
 H                     3.08536   0.40901  -2.0263 
 C                     5.33095   0.16262   1.13385 
 H                     3.502    -0.23737   2.2077 
 C                     5.91708   0.44108  -0.11645 
 H                     5.52903   0.74414  -2.23764 
 H                     5.98117   0.099     2.00756 
 O                     7.25345   0.60627  -0.1196 
 C                     7.91561   0.89268  -1.33572 
 H                     8.98179   0.98513  -1.09415 
 H                     7.78122   0.08075  -2.07152 
 H                     7.56166   1.8409   -1.77643 
 H                    -2.98529   0.87202  -0.90995 
 H                    -6.36902  -1.02738   0.87891 
 B                    -5.74235   0.99749  -1.03384 
 F                    -5.06665   2.22958  -1.1752 
 F                    -6.9601    1.17254  -0.36162 
 F                    -5.95306   0.42355  -2.29503 
 
 NAtoms=     51 NQM=       51 NQMF=       0 NMMI=      0 NMMIF=      0
                NMic=       0 NMicF=      0.
                    Isotopes and Nuclear Properties:
 (Nuclear quadrupole moments (NQMom) in fm**2, nuclear magnetic moments (NMagM)
  in nuclear magnetons)

  Atom         1           2           3           4           5           6           7           8           9          10
 IAtWgt=          12          12          12          12          12          12          12          12          12          12
 AtmWgt=  12.0000000  12.0000000  12.0000000  12.0000000  12.0000000  12.0000000  12.0000000  12.0000000  12.0000000  12.0000000
 NucSpn=           0           0           0           0           0           0           0           0           0           0
 AtZEff=   0.0000000   0.0000000   0.0000000   0.0000000   0.0000000   0.0000000   0.0000000   0.0000000   0.0000000   0.0000000
 NQMom=    0.0000000   0.0000000   0.0000000   0.0000000   0.0000000   0.0000000   0.0000000   0.0000000   0.0000000   0.0000000
 NMagM=    0.0000000   0.0000000   0.0000000   0.0000000   0.0000000   0.0000000   0.0000000   0.0000000   0.0000000   0.0000000
 AtZNuc=   6.0000000   6.0000000   6.0000000   6.0000000   6.0000000   6.0000000   6.0000000   6.0000000   6.0000000   6.0000000

  Atom        11          12          13          14          15          16          17          18          19          20
 IAtWgt=           1          12          12          12           1           1           1           1           1           1
 AtmWgt=   1.0078250  12.0000000  12.0000000  12.0000000   1.0078250   1.0078250   1.0078250   1.0078250   1.0078250   1.0078250
 NucSpn=           1           0           0           0           1           1           1           1           1           1
 AtZEff=   0.0000000   0.0000000   0.0000000   0.0000000   0.0000000   0.0000000   0.0000000   0.0000000   0.0000000   0.0000000
 NQMom=    0.0000000   0.0000000   0.0000000   0.0000000   0.0000000   0.0000000   0.0000000   0.0000000   0.0000000   0.0000000
 NMagM=    2.7928460   0.0000000   0.0000000   0.0000000   2.7928460   2.7928460   2.7928460   2.7928460   2.7928460   2.7928460
 AtZNuc=   1.0000000   6.0000000   6.0000000   6.0000000   1.0000000   1.0000000   1.0000000   1.0000000   1.0000000   1.0000000

  Atom        21          22          23          24          25          26          27          28          29          30
 IAtWgt=           1          14          12          12          12          12          12          12           1           1
 AtmWgt=   1.0078250  14.0030740  12.0000000  12.0000000  12.0000000  12.0000000  12.0000000  12.0000000   1.0078250   1.0078250
 NucSpn=           1           2           0           0           0           0           0           0           1           1
 AtZEff=   0.0000000   0.0000000   0.0000000   0.0000000   0.0000000   0.0000000   0.0000000   0.0000000   0.0000000   0.0000000
 NQMom=    0.0000000   2.0440000   0.0000000   0.0000000   0.0000000   0.0000000   0.0000000   0.0000000   0.0000000   0.0000000
 NMagM=    2.7928460   0.4037610   0.0000000   0.0000000   0.0000000   0.0000000   0.0000000   0.0000000   2.7928460   2.7928460
 AtZNuc=   1.0000000   7.0000000   6.0000000   6.0000000   6.0000000   6.0000000   6.0000000   6.0000000   1.0000000   1.0000000

  Atom        31          32          33          34          35          36          37          38          39          40
 IAtWgt=          12          12          12          12           1          12           1          12           1           1
 AtmWgt=  12.0000000  12.0000000  12.0000000  12.0000000   1.0078250  12.0000000   1.0078250  12.0000000   1.0078250   1.0078250
 NucSpn=           0           0           0           0           1           0           1           0           1           1
 AtZEff=   0.0000000   0.0000000   0.0000000   0.0000000   0.0000000   0.0000000   0.0000000   0.0000000   0.0000000   0.0000000
 NQMom=    0.0000000   0.0000000   0.0000000   0.0000000   0.0000000   0.0000000   0.0000000   0.0000000   0.0000000   0.0000000
 NMagM=    0.0000000   0.0000000   0.0000000   0.0000000   2.7928460   0.0000000   2.7928460   0.0000000   2.7928460   2.7928460
 AtZNuc=   6.0000000   6.0000000   6.0000000   6.0000000   1.0000000   6.0000000   1.0000000   6.0000000   1.0000000   1.0000000

  Atom        41          42          43          44          45          46          47          48          49          50
 IAtWgt=          16          12           1           1           1           1           1          11          19          19
 AtmWgt=  15.9949146  12.0000000   1.0078250   1.0078250   1.0078250   1.0078250   1.0078250  11.0093053  18.9984033  18.9984033
 NucSpn=           0           0           1           1           1           1           1           3           1           1
 AtZEff=   0.0000000   0.0000000   0.0000000   0.0000000   0.0000000   0.0000000   0.0000000   0.0000000   0.0000000   0.0000000
 NQMom=    0.0000000   0.0000000   0.0000000   0.0000000   0.0000000   0.0000000   0.0000000   4.0590000   0.0000000   0.0000000
 NMagM=    0.0000000   0.0000000   2.7928460   2.7928460   2.7928460   2.7928460   2.7928460   2.6886370   2.6288670   2.6288670
 AtZNuc=   8.0000000   6.0000000   1.0000000   1.0000000   1.0000000   1.0000000   1.0000000   5.0000000   9.0000000   9.0000000

  Atom        51
 IAtWgt=          19
 AtmWgt=  18.9984033
 NucSpn=           1
 AtZEff=   0.0000000
 NQMom=    0.0000000
 NMagM=    2.6288670
 AtZNuc=   9.0000000
 Leave Link  101 at Fri Feb 19 09:30:07 2021, MaxMem=  5242880000 cpu:         4.9
 (Enter /opt/nce/packages/global/g09/l103.exe)

 GradGradGradGradGradGradGradGradGradGradGradGradGradGradGradGradGradGrad
 Berny optimization.
 Initialization pass.
                           ----------------------------
                           !    Initial Parameters    !
                           ! (Angstroms and Degrees)  !
 --------------------------                            --------------------------
 ! Name  Definition              Value          Derivative Info.                !
 --------------------------------------------------------------------------------
 ! R1    R(1,2)                  1.3817         estimate D2E/DX2                !
 ! R2    R(1,6)                  1.4114         estimate D2E/DX2                !
 ! R3    R(1,15)                 1.0924         estimate D2E/DX2                !
 ! R4    R(2,3)                  1.4147         estimate D2E/DX2                !
 ! R5    R(2,16)                 1.0877         estimate D2E/DX2                !
 ! R6    R(3,4)                  1.4326         estimate D2E/DX2                !
 ! R7    R(3,22)                 1.3815         estimate D2E/DX2                !
 ! R8    R(4,5)                  1.4275         estimate D2E/DX2                !
 ! R9    R(4,7)                  1.4304         estimate D2E/DX2                !
 ! R10   R(5,6)                  1.3767         estimate D2E/DX2                !
 ! R11   R(5,17)                 1.0881         estimate D2E/DX2                !
 ! R12   R(6,18)                 1.0911         estimate D2E/DX2                !
 ! R13   R(7,8)                  1.4301         estimate D2E/DX2                !
 ! R14   R(7,23)                 1.4581         estimate D2E/DX2                !
 ! R15   R(8,9)                  1.4312         estimate D2E/DX2                !
 ! R16   R(8,14)                 1.4263         estimate D2E/DX2                !
 ! R17   R(9,10)                 1.416          estimate D2E/DX2                !
 ! R18   R(9,22)                 1.3795         estimate D2E/DX2                !
 ! R19   R(10,11)                1.0878         estimate D2E/DX2                !
 ! R20   R(10,12)                1.3812         estimate D2E/DX2                !
 ! R21   R(12,13)                1.4121         estimate D2E/DX2                !
 ! R22   R(12,19)                1.0924         estimate D2E/DX2                !
 ! R23   R(13,14)                1.3768         estimate D2E/DX2                !
 ! R24   R(13,20)                1.0913         estimate D2E/DX2                !
 ! R25   R(14,21)                1.0883         estimate D2E/DX2                !
 ! R26   R(22,31)                1.4429         estimate D2E/DX2                !
 ! R27   R(23,24)                1.4134         estimate D2E/DX2                !
 ! R28   R(23,25)                1.4155         estimate D2E/DX2                !
 ! R29   R(24,26)                1.3957         estimate D2E/DX2                !
 ! R30   R(24,46)                1.0925         estimate D2E/DX2                !
 ! R31   R(25,27)                1.3915         estimate D2E/DX2                !
 ! R32   R(25,30)                1.0923         estimate D2E/DX2                !
 ! R33   R(26,28)                1.405          estimate D2E/DX2                !
 ! R34   R(26,48)                1.6481         estimate D2E/DX2                !
 ! R35   R(27,28)                1.4026         estimate D2E/DX2                !
 ! R36   R(27,29)                1.0935         estimate D2E/DX2                !
 ! R37   R(28,47)                1.0933         estimate D2E/DX2                !
 ! R38   R(31,32)                1.3928         estimate D2E/DX2                !
 ! R39   R(31,33)                1.3999         estimate D2E/DX2                !
 ! R40   R(32,34)                1.397          estimate D2E/DX2                !
 ! R41   R(32,35)                1.0918         estimate D2E/DX2                !
 ! R42   R(33,36)                1.3884         estimate D2E/DX2                !
 ! R43   R(33,37)                1.0917         estimate D2E/DX2                !
 ! R44   R(34,38)                1.4054         estimate D2E/DX2                !
 ! R45   R(34,39)                1.089          estimate D2E/DX2                !
 ! R46   R(36,38)                1.4087         estimate D2E/DX2                !
 ! R47   R(36,40)                1.091          estimate D2E/DX2                !
 ! R48   R(38,41)                1.3465         estimate D2E/DX2                !
 ! R49   R(41,42)                1.414          estimate D2E/DX2                !
 ! R50   R(42,43)                1.0971         estimate D2E/DX2                !
 ! R51   R(42,44)                1.104          estimate D2E/DX2                !
 ! R52   R(42,45)                1.1039         estimate D2E/DX2                !
 ! R53   R(48,49)                1.4123         estimate D2E/DX2                !
 ! R54   R(48,50)                1.4019         estimate D2E/DX2                !
 ! R55   R(48,51)                1.4016         estimate D2E/DX2                !
 ! A1    A(2,1,6)              121.0361         estimate D2E/DX2                !
 ! A2    A(2,1,15)             119.145          estimate D2E/DX2                !
 ! A3    A(6,1,15)             119.8109         estimate D2E/DX2                !
 ! A4    A(1,2,3)              119.978          estimate D2E/DX2                !
 ! A5    A(1,2,16)             120.261          estimate D2E/DX2                !
 ! A6    A(3,2,16)             119.7607         estimate D2E/DX2                !
 ! A7    A(2,3,4)              119.874          estimate D2E/DX2                !
 ! A8    A(2,3,22)             120.2865         estimate D2E/DX2                !
 ! A9    A(4,3,22)             119.8326         estimate D2E/DX2                !
 ! A10   A(3,4,5)              117.949          estimate D2E/DX2                !
 ! A11   A(3,4,7)              119.9405         estimate D2E/DX2                !
 ! A12   A(5,4,7)              122.0762         estimate D2E/DX2                !
 ! A13   A(4,5,6)              121.2996         estimate D2E/DX2                !
 ! A14   A(4,5,17)             118.7272         estimate D2E/DX2                !
 ! A15   A(6,5,17)             119.9726         estimate D2E/DX2                !
 ! A16   A(1,6,5)              119.7699         estimate D2E/DX2                !
 ! A17   A(1,6,18)             120.2957         estimate D2E/DX2                !
 ! A18   A(5,6,18)             119.933          estimate D2E/DX2                !
 ! A19   A(4,7,8)              118.2673         estimate D2E/DX2                !
 ! A20   A(4,7,23)             120.6413         estimate D2E/DX2                !
 ! A21   A(8,7,23)             121.0887         estimate D2E/DX2                !
 ! A22   A(7,8,9)              120.1271         estimate D2E/DX2                !
 ! A23   A(7,8,14)             121.8329         estimate D2E/DX2                !
 ! A24   A(9,8,14)             117.979          estimate D2E/DX2                !
 ! A25   A(8,9,10)             119.7881         estimate D2E/DX2                !
 ! A26   A(8,9,22)             119.7546         estimate D2E/DX2                !
 ! A27   A(10,9,22)            120.4479         estimate D2E/DX2                !
 ! A28   A(9,10,11)            119.7069         estimate D2E/DX2                !
 ! A29   A(9,10,12)            120.0186         estimate D2E/DX2                !
 ! A30   A(11,10,12)           120.2719         estimate D2E/DX2                !
 ! A31   A(10,12,13)           121.0038         estimate D2E/DX2                !
 ! A32   A(10,12,19)           119.1584         estimate D2E/DX2                !
 ! A33   A(13,12,19)           119.8206         estimate D2E/DX2                !
 ! A34   A(12,13,14)           119.6811         estimate D2E/DX2                !
 ! A35   A(12,13,20)           120.1395         estimate D2E/DX2                !
 ! A36   A(14,13,20)           120.1707         estimate D2E/DX2                !
 ! A37   A(8,14,13)            121.3711         estimate D2E/DX2                !
 ! A38   A(8,14,21)            118.2053         estimate D2E/DX2                !
 ! A39   A(13,14,21)           120.4137         estimate D2E/DX2                !
 ! A40   A(3,22,9)             122.002          estimate D2E/DX2                !
 ! A41   A(3,22,31)            119.0011         estimate D2E/DX2                !
 ! A42   A(9,22,31)            118.9937         estimate D2E/DX2                !
 ! A43   A(7,23,24)            119.8902         estimate D2E/DX2                !
 ! A44   A(7,23,25)            121.0371         estimate D2E/DX2                !
 ! A45   A(24,23,25)           119.0658         estimate D2E/DX2                !
 ! A46   A(23,24,26)           122.278          estimate D2E/DX2                !
 ! A47   A(23,24,46)           119.6898         estimate D2E/DX2                !
 ! A48   A(26,24,46)           118.0167         estimate D2E/DX2                !
 ! A49   A(23,25,27)           119.2871         estimate D2E/DX2                !
 ! A50   A(23,25,30)           120.0448         estimate D2E/DX2                !
 ! A51   A(27,25,30)           120.5412         estimate D2E/DX2                !
 ! A52   A(24,26,28)           117.1384         estimate D2E/DX2                !
 ! A53   A(24,26,48)           119.5846         estimate D2E/DX2                !
 ! A54   A(28,26,48)           123.2606         estimate D2E/DX2                !
 ! A55   A(25,27,28)           120.3118         estimate D2E/DX2                !
 ! A56   A(25,27,29)           119.4386         estimate D2E/DX2                !
 ! A57   A(28,27,29)           120.2297         estimate D2E/DX2                !
 ! A58   A(26,28,27)           121.8795         estimate D2E/DX2                !
 ! A59   A(26,28,47)           118.1486         estimate D2E/DX2                !
 ! A60   A(27,28,47)           119.96           estimate D2E/DX2                !
 ! A61   A(22,31,32)           119.836          estimate D2E/DX2                !
 ! A62   A(22,31,33)           119.8757         estimate D2E/DX2                !
 ! A63   A(32,31,33)           120.2883         estimate D2E/DX2                !
 ! A64   A(31,32,34)           120.2618         estimate D2E/DX2                !
 ! A65   A(31,32,35)           119.6085         estimate D2E/DX2                !
 ! A66   A(34,32,35)           120.1297         estimate D2E/DX2                !
 ! A67   A(31,33,36)           119.824          estimate D2E/DX2                !
 ! A68   A(31,33,37)           119.6707         estimate D2E/DX2                !
 ! A69   A(36,33,37)           120.5053         estimate D2E/DX2                !
 ! A70   A(32,34,38)           119.7536         estimate D2E/DX2                !
 ! A71   A(32,34,39)           119.158          estimate D2E/DX2                !
 ! A72   A(38,34,39)           121.0884         estimate D2E/DX2                !
 ! A73   A(33,36,38)           120.3499         estimate D2E/DX2                !
 ! A74   A(33,36,40)           121.3322         estimate D2E/DX2                !
 ! A75   A(38,36,40)           118.3179         estimate D2E/DX2                !
 ! A76   A(34,38,36)           119.5224         estimate D2E/DX2                !
 ! A77   A(34,38,41)           124.4201         estimate D2E/DX2                !
 ! A78   A(36,38,41)           116.0575         estimate D2E/DX2                !
 ! A79   A(38,41,42)           119.4465         estimate D2E/DX2                !
 ! A80   A(41,42,43)           106.4265         estimate D2E/DX2                !
 ! A81   A(41,42,44)           111.5471         estimate D2E/DX2                !
 ! A82   A(41,42,45)           111.5427         estimate D2E/DX2                !
 ! A83   A(43,42,44)           109.0888         estimate D2E/DX2                !
 ! A84   A(43,42,45)           109.0932         estimate D2E/DX2                !
 ! A85   A(44,42,45)           109.0643         estimate D2E/DX2                !
 ! A86   A(26,48,49)           107.4423         estimate D2E/DX2                !
 ! A87   A(26,48,50)           108.6677         estimate D2E/DX2                !
 ! A88   A(26,48,51)           109.4554         estimate D2E/DX2                !
 ! A89   A(49,48,50)           110.7708         estimate D2E/DX2                !
 ! A90   A(49,48,51)           109.8229         estimate D2E/DX2                !
 ! A91   A(50,48,51)           110.6105         estimate D2E/DX2                !
 ! D1    D(6,1,2,3)              1.1744         estimate D2E/DX2                !
 ! D2    D(6,1,2,16)          -178.641          estimate D2E/DX2                !
 ! D3    D(15,1,2,3)          -179.8564         estimate D2E/DX2                !
 ! D4    D(15,1,2,16)            0.3281         estimate D2E/DX2                !
 ! D5    D(2,1,6,5)             -1.2472         estimate D2E/DX2                !
 ! D6    D(2,1,6,18)           178.3312         estimate D2E/DX2                !
 ! D7    D(15,1,6,5)           179.7904         estimate D2E/DX2                !
 ! D8    D(15,1,6,18)           -0.6312         estimate D2E/DX2                !
 ! D9    D(1,2,3,4)              1.1382         estimate D2E/DX2                !
 ! D10   D(1,2,3,22)          -177.9053         estimate D2E/DX2                !
 ! D11   D(16,2,3,4)          -179.0454         estimate D2E/DX2                !
 ! D12   D(16,2,3,22)            1.9111         estimate D2E/DX2                !
 ! D13   D(2,3,4,5)             -3.2768         estimate D2E/DX2                !
 ! D14   D(2,3,4,7)            178.8092         estimate D2E/DX2                !
 ! D15   D(22,3,4,5)           175.771          estimate D2E/DX2                !
 ! D16   D(22,3,4,7)            -2.1429         estimate D2E/DX2                !
 ! D17   D(2,3,22,9)          -179.4023         estimate D2E/DX2                !
 ! D18   D(2,3,22,31)           -0.0586         estimate D2E/DX2                !
 ! D19   D(4,3,22,9)             1.5539         estimate D2E/DX2                !
 ! D20   D(4,3,22,31)         -179.1025         estimate D2E/DX2                !
 ! D21   D(3,4,5,6)              3.2501         estimate D2E/DX2                !
 ! D22   D(3,4,5,17)          -177.0235         estimate D2E/DX2                !
 ! D23   D(7,4,5,6)           -178.8833         estimate D2E/DX2                !
 ! D24   D(7,4,5,17)             0.8432         estimate D2E/DX2                !
 ! D25   D(3,4,7,8)              0.2843         estimate D2E/DX2                !
 ! D26   D(3,4,7,23)          -179.1214         estimate D2E/DX2                !
 ! D27   D(5,4,7,8)           -177.5409         estimate D2E/DX2                !
 ! D28   D(5,4,7,23)             3.0534         estimate D2E/DX2                !
 ! D29   D(4,5,6,1)             -1.0325         estimate D2E/DX2                !
 ! D30   D(4,5,6,18)           179.3876         estimate D2E/DX2                !
 ! D31   D(17,5,6,1)           179.2444         estimate D2E/DX2                !
 ! D32   D(17,5,6,18)           -0.3355         estimate D2E/DX2                !
 ! D33   D(4,7,8,9)              2.1429         estimate D2E/DX2                !
 ! D34   D(4,7,8,14)          -174.9602         estimate D2E/DX2                !
 ! D35   D(23,7,8,9)          -178.4542         estimate D2E/DX2                !
 ! D36   D(23,7,8,14)            4.4427         estimate D2E/DX2                !
 ! D37   D(4,7,23,24)           51.9706         estimate D2E/DX2                !
 ! D38   D(4,7,23,25)         -127.0601         estimate D2E/DX2                !
 ! D39   D(8,7,23,24)         -127.4182         estimate D2E/DX2                !
 ! D40   D(8,7,23,25)           53.5511         estimate D2E/DX2                !
 ! D41   D(7,8,9,10)           178.3234         estimate D2E/DX2                !
 ! D42   D(7,8,9,22)            -2.7847         estimate D2E/DX2                !
 ! D43   D(14,8,9,10)           -4.4635         estimate D2E/DX2                !
 ! D44   D(14,8,9,22)          174.4285         estimate D2E/DX2                !
 ! D45   D(7,8,14,13)         -178.9335         estimate D2E/DX2                !
 ! D46   D(7,8,14,21)            2.2093         estimate D2E/DX2                !
 ! D47   D(9,8,14,13)            3.9036         estimate D2E/DX2                !
 ! D48   D(9,8,14,21)         -174.9535         estimate D2E/DX2                !
 ! D49   D(8,9,10,11)         -178.6105         estimate D2E/DX2                !
 ! D50   D(8,9,10,12)            1.9739         estimate D2E/DX2                !
 ! D51   D(22,9,10,11)           2.5054         estimate D2E/DX2                !
 ! D52   D(22,9,10,12)        -176.9103         estimate D2E/DX2                !
 ! D53   D(8,9,22,3)             0.9065         estimate D2E/DX2                !
 ! D54   D(8,9,22,31)         -178.4372         estimate D2E/DX2                !
 ! D55   D(10,9,22,3)          179.791          estimate D2E/DX2                !
 ! D56   D(10,9,22,31)           0.4473         estimate D2E/DX2                !
 ! D57   D(9,10,12,13)           1.2593         estimate D2E/DX2                !
 ! D58   D(9,10,12,19)         179.7501         estimate D2E/DX2                !
 ! D59   D(11,10,12,13)       -178.153          estimate D2E/DX2                !
 ! D60   D(11,10,12,19)          0.3378         estimate D2E/DX2                !
 ! D61   D(10,12,13,14)         -1.8823         estimate D2E/DX2                !
 ! D62   D(10,12,13,20)        177.0486         estimate D2E/DX2                !
 ! D63   D(19,12,13,14)        179.6368         estimate D2E/DX2                !
 ! D64   D(19,12,13,20)         -1.4323         estimate D2E/DX2                !
 ! D65   D(12,13,14,8)          -0.7819         estimate D2E/DX2                !
 ! D66   D(12,13,14,21)        178.0503         estimate D2E/DX2                !
 ! D67   D(20,13,14,8)        -179.7124         estimate D2E/DX2                !
 ! D68   D(20,13,14,21)         -0.8803         estimate D2E/DX2                !
 ! D69   D(3,22,31,32)         -90.5564         estimate D2E/DX2                !
 ! D70   D(3,22,31,33)          89.3683         estimate D2E/DX2                !
 ! D71   D(9,22,31,32)          88.8072         estimate D2E/DX2                !
 ! D72   D(9,22,31,33)         -91.268          estimate D2E/DX2                !
 ! D73   D(7,23,24,26)        -178.7772         estimate D2E/DX2                !
 ! D74   D(7,23,24,46)           2.682          estimate D2E/DX2                !
 ! D75   D(25,23,24,26)          0.2725         estimate D2E/DX2                !
 ! D76   D(25,23,24,46)       -178.2682         estimate D2E/DX2                !
 ! D77   D(7,23,25,27)         177.4132         estimate D2E/DX2                !
 ! D78   D(7,23,25,30)           1.4854         estimate D2E/DX2                !
 ! D79   D(24,23,25,27)         -1.6253         estimate D2E/DX2                !
 ! D80   D(24,23,25,30)       -177.5531         estimate D2E/DX2                !
 ! D81   D(23,24,26,28)          1.4587         estimate D2E/DX2                !
 ! D82   D(23,24,26,48)       -179.9668         estimate D2E/DX2                !
 ! D83   D(46,24,26,28)       -179.9772         estimate D2E/DX2                !
 ! D84   D(46,24,26,48)         -1.4027         estimate D2E/DX2                !
 ! D85   D(23,25,27,28)          1.209          estimate D2E/DX2                !
 ! D86   D(23,25,27,29)       -177.1717         estimate D2E/DX2                !
 ! D87   D(30,25,27,28)        177.1161         estimate D2E/DX2                !
 ! D88   D(30,25,27,29)         -1.2646         estimate D2E/DX2                !
 ! D89   D(24,26,28,27)         -1.9026         estimate D2E/DX2                !
 ! D90   D(24,26,28,47)        176.8448         estimate D2E/DX2                !
 ! D91   D(48,26,28,27)        179.58           estimate D2E/DX2                !
 ! D92   D(48,26,28,47)         -1.6727         estimate D2E/DX2                !
 ! D93   D(24,26,48,49)        -31.6748         estimate D2E/DX2                !
 ! D94   D(24,26,48,50)       -151.5766         estimate D2E/DX2                !
 ! D95   D(24,26,48,51)         87.5325         estimate D2E/DX2                !
 ! D96   D(28,26,48,49)        146.8081         estimate D2E/DX2                !
 ! D97   D(28,26,48,50)         26.9063         estimate D2E/DX2                !
 ! D98   D(28,26,48,51)        -93.9846         estimate D2E/DX2                !
 ! D99   D(25,27,28,26)          0.5955         estimate D2E/DX2                !
 ! D100  D(25,27,28,47)       -178.1296         estimate D2E/DX2                !
 ! D101  D(29,27,28,26)        178.9633         estimate D2E/DX2                !
 ! D102  D(29,27,28,47)          0.2381         estimate D2E/DX2                !
 ! D103  D(22,31,32,34)        179.9272         estimate D2E/DX2                !
 ! D104  D(22,31,32,35)          0.0119         estimate D2E/DX2                !
 ! D105  D(33,31,32,34)          0.0028         estimate D2E/DX2                !
 ! D106  D(33,31,32,35)       -179.9126         estimate D2E/DX2                !
 ! D107  D(22,31,33,36)       -179.9579         estimate D2E/DX2                !
 ! D108  D(22,31,33,37)         -0.0059         estimate D2E/DX2                !
 ! D109  D(32,31,33,36)         -0.0335         estimate D2E/DX2                !
 ! D110  D(32,31,33,37)        179.9185         estimate D2E/DX2                !
 ! D111  D(31,32,34,38)          0.0135         estimate D2E/DX2                !
 ! D112  D(31,32,34,39)       -179.9405         estimate D2E/DX2                !
 ! D113  D(35,32,34,38)        179.9284         estimate D2E/DX2                !
 ! D114  D(35,32,34,39)         -0.0257         estimate D2E/DX2                !
 ! D115  D(31,33,36,38)          0.0477         estimate D2E/DX2                !
 ! D116  D(31,33,36,40)        179.9825         estimate D2E/DX2                !
 ! D117  D(37,33,36,38)       -179.9038         estimate D2E/DX2                !
 ! D118  D(37,33,36,40)          0.0309         estimate D2E/DX2                !
 ! D119  D(32,34,38,36)          0.0007         estimate D2E/DX2                !
 ! D120  D(32,34,38,41)       -179.9882         estimate D2E/DX2                !
 ! D121  D(39,34,38,36)        179.9538         estimate D2E/DX2                !
 ! D122  D(39,34,38,41)         -0.0351         estimate D2E/DX2                !
 ! D123  D(33,36,38,34)         -0.0314         estimate D2E/DX2                !
 ! D124  D(33,36,38,41)        179.9584         estimate D2E/DX2                !
 ! D125  D(40,36,38,34)       -179.9682         estimate D2E/DX2                !
 ! D126  D(40,36,38,41)          0.0217         estimate D2E/DX2                !
 ! D127  D(34,38,41,42)          0.1816         estimate D2E/DX2                !
 ! D128  D(36,38,41,42)       -179.8077         estimate D2E/DX2                !
 ! D129  D(38,41,42,43)        179.9058         estimate D2E/DX2                !
 ! D130  D(38,41,42,44)        -61.2142         estimate D2E/DX2                !
 ! D131  D(38,41,42,45)         61.0228         estimate D2E/DX2                !
 --------------------------------------------------------------------------------
 Trust Radius=3.00D-01 FncErr=1.00D-07 GrdErr=1.00D-06
 Number of steps in this run=    287 maximum allowed number of steps=    306.
 GradGradGradGradGradGradGradGradGradGradGradGradGradGradGradGradGradGrad

 Leave Link  103 at Fri Feb 19 09:30:07 2021, MaxMem=  5242880000 cpu:         0.2
 (Enter /opt/nce/packages/global/g09/l202.exe)
 Symmetry turned off by external request.
 Stoichiometry    C26H19BF3NO
 Framework group  C1[X(C26H19BF3NO)]
 Deg. of freedom   147
 Full point group                 C1      NOp   1
                          Input orientation:                          
 ---------------------------------------------------------------------
 Center     Atomic      Atomic             Coordinates (Angstroms)
 Number     Number       Type             X           Y           Z
 ---------------------------------------------------------------------
      1          6           0        0.687089    3.333469    0.920380
      2          6           0        1.493318    2.252387    0.619856
      3          6           0        0.923232    0.966936    0.464615
      4          6           0       -0.492854    0.793804    0.595479
      5          6           0       -1.275966    1.932682    0.952582
      6          6           0       -0.703778    3.175934    1.101384
      7          6           0       -1.073664   -0.500706    0.413608
      8          6           0       -0.205739   -1.595680    0.108576
      9          6           0        1.209141   -1.392528    0.037266
     10          6           0        2.064607   -2.488733   -0.230132
     11          1           0        3.141303   -2.337127   -0.261586
     12          6           0        1.530814   -3.741369   -0.461594
     13          6           0        0.133895   -3.947872   -0.462769
     14          6           0       -0.711128   -2.895203   -0.191647
     15          1           0        1.141323    4.320344    1.034923
     16          1           0        2.566799    2.384414    0.504729
     17          1           0       -2.346002    1.805153    1.103425
     18          1           0       -1.325083    4.033166    1.365114
     19          1           0        2.203554   -4.576292   -0.670549
     20          1           0       -0.274167   -4.933057   -0.694688
     21          1           0       -1.790270   -3.033435   -0.220429
     22          7           0        1.728294   -0.125780    0.206832
     23          6           0       -2.515094   -0.690735    0.524442
     24          6           0       -3.392961    0.128880   -0.220752
     25          6           0       -3.057465   -1.674350    1.385845
     26          6           0       -4.780559    0.007037   -0.133765
     27          6           0       -4.439195   -1.788214    1.504392
     28          6           0       -5.284839   -0.953937    0.758582
     29          1           0       -4.860462   -2.515507    2.203830
     30          1           0       -2.395207   -2.289439    1.999122
     31          6           0        3.154230    0.066039    0.097870
     32          6           0        3.723657    0.340620   -1.143230
     33          6           0        3.959078   -0.023010    1.239791
     34          6           0        5.102979    0.529396   -1.258687
     35          1           0        3.085356    0.409006   -2.026305
     36          6           0        5.330952    0.162622    1.133853
     37          1           0        3.501995   -0.237374    2.207702
     38          6           0        5.917078    0.441080   -0.116446
     39          1           0        5.529025    0.744144   -2.237642
     40          1           0        5.981172    0.098999    2.007559
     41          8           0        7.253448    0.606272   -0.119602
     42          6           0        7.915605    0.892680   -1.335715
     43          1           0        8.981795    0.985133   -1.094148
     44          1           0        7.781223    0.080746   -2.071523
     45          1           0        7.561664    1.840901   -1.776426
     46          1           0       -2.985285    0.872024   -0.909949
     47          1           0       -6.369017   -1.027376    0.878905
     48          5           0       -5.742345    0.997486   -1.033843
     49          9           0       -5.066651    2.229582   -1.175196
     50          9           0       -6.960097    1.172544   -0.361618
     51          9           0       -5.953057    0.423546   -2.295025
 ---------------------------------------------------------------------
 Rotational constants (GHZ):      0.2929752      0.0650026      0.0579583
 Leave Link  202 at Fri Feb 19 09:30:07 2021, MaxMem=  5242880000 cpu:         0.3
 (Enter /opt/nce/packages/global/g09/l301.exe)
 Standard basis: def2TZVP (5D, 7F)
 Ernie: Thresh=  0.10000D-02 Tol=  0.10000D-05 Strict=F.
  1106 basis functions,  1784 primitive gaussians,  1266 cartesian basis functions
   111 alpha electrons      111 beta electrons
       nuclear repulsion energy      2965.7304009032 Hartrees.
 IExCor= 4235 DFT=T Ex+Corr=M06 ExCW=0 ScaHFX=  0.270000
 ScaDFX=  1.000000  1.000000  1.000000  1.000000 ScalE2=  1.000000  1.000000
 IRadAn=      5 IRanWt=     -1 IRanGd=            0 ICorTp=0 IEmpDi=  4
 NAtoms=   51 NActive=   51 NUniq=   51 SFac= 1.00D+00 NAtFMM=   60 NAOKFM=F Big=F
 Integral buffers will be    131072 words long.
 Raffenetti 2 integral format.
 Two-electron integral symmetry is turned off.
 ------------------------------------------------------------------------------
 Polarizable Continuum Model (PCM)
 =================================
 Model                : PCM (using non-symmetric T matrix).
 Atomic radii         : SMD-Coulomb.
 Polarization charges : Total charges.
 Charge compensation  : None.
 Solution method      : On-the-fly selection.
 Cavity type          : VdW (van der Waals Surface) (Alpha=1.000).
 Cavity algorithm     : GePol (No added spheres)
                        Default sphere list used, NSphG=   51.
                        Lebedev-Laikov grids with approx.  5.0 points / Ang**2.
                        Smoothing algorithm: York/Karplus (Gamma=1.0000).
                        Polarization charges: spherical gaussians, with
                                              point-specific exponents (IZeta= 3).
                        Self-potential: point-specific (ISelfS= 7).
                        Self-field    : sphere-specific E.n sum rule (ISelfD= 2).
 1st derivatives      : Analytical E(r).r(x)/FMM algorithm (CHGder, D1EAlg=3).
                        Cavity 1st derivative terms included.
 Solvent              : Acetonitrile, Eps=  35.688000 Eps(inf)=   1.806874
 ------------------------------------------------------------------------------
 GePol: Number of generator spheres                  =      51
 GePol: Total number of spheres                      =      51
 GePol: Number of exposed spheres                    =      51 (100.00%)
 GePol: Number of points                             =    3808
 GePol: Average weight of points                     =       0.12
 GePol: Minimum weight of points                     =   0.37D-09
 GePol: Maximum weight of points                     =    0.21559
 GePol: Number of points with low weight             =     215
 GePol: Fraction of low-weight points (<1% of avg)   =       5.65%
 GePol: Cavity surface area                          =    439.122 Ang**2
 GePol: Cavity volume                                =    430.984 Ang**3
 ------------------------------------------------------------------------------
 Atomic radii for non-electrostatic terms: SMD-CDS.
 ------------------------------------------------------------------------------
 PCM non-electrostatic energy =        -0.0068399174 Hartrees.
 Nuclear repulsion after PCM non-electrostatic terms =     2965.7235609858 Hartrees.
 Leave Link  301 at Fri Feb 19 09:30:09 2021, MaxMem=  5242880000 cpu:        13.8
 (Enter /opt/nce/packages/global/g09/l302.exe)
 NPDir=0 NMtPBC=     1 NCelOv=     1 NCel=       1 NClECP=     1 NCelD=      1
         NCelK=      1 NCelE2=     1 NClLst=     1 CellRange=     0.0.
 One-electron integrals computed using PRISM.
   1 Symmetry operations used in ECPInt.
 ECPInt:  NShTT=   91806 NPrTT=  285396 LenC2=   71439 LenP2D=  151316.
 LDataN:  DoStor=T MaxTD1= 6 Len=  172
 NBasis=  1106 RedAO= T EigKep=  5.29D-06  NBF=  1106
 NBsUse=  1106 1.00D-06 EigRej= -1.00D+00 NBFU=  1106
 Precomputing XC quadrature grid using
 IXCGrd= 4 IRadAn=           5 IRanWt=          -1 IRanGd=           0 AccXCQ= 0.00D+00.
 Generated NRdTot=       0 NPtTot=           0 NUsed=           0 NTot=          32
 NSgBfM=  1159  1159  1159  1163  1163 MxSgAt=    51 MxSgA2=    51.
 Leave Link  302 at Fri Feb 19 09:30:12 2021, MaxMem=  5242880000 cpu:        31.1
 (Enter /opt/nce/packages/global/g09/l303.exe)
 DipDrv:  MaxL=1.
 Leave Link  303 at Fri Feb 19 09:30:12 2021, MaxMem=  5242880000 cpu:         3.0
 (Enter /opt/nce/packages/global/g09/l401.exe)
 ExpMin= 6.06D-02 ExpMax= 3.55D+04 ExpMxC= 1.21D+03 IAcc=3 IRadAn=         5 AccDes= 0.00D+00
 Harris functional with IExCor= 1009 and IRadAn=       5 diagonalized for initial guess.
 HarFok:  IExCor= 1009 AccDes= 0.00D+00 IRadAn=         5 IDoV= 1 UseB2=F ITyADJ=14
 ICtDFT=  3500011 ScaDFX=  1.000000  1.000000  1.000000  1.000000
 FoFCou: FMM=F IPFlag=           0 FMFlag=      100000 FMFlg1=           0
         NFxFlg=           0 DoJE=T BraDBF=F KetDBF=T FulRan=T
         wScrn=  0.000000 ICntrl=     500 IOpCl=  0 I1Cent=   200000004 NGrid=           0
         NMat0=    1 NMatS0=      1 NMatT0=    0 NMatD0=    1 NMtDS0=    0 NMtDT0=    0
 Symmetry not used in FoFCou.
 Harris En= -1455.96002641613    
 JPrj=0 DoOrth=F DoCkMO=F.
 Leave Link  401 at Fri Feb 19 09:30:23 2021, MaxMem=  5242880000 cpu:       129.3
 (Enter /opt/nce/packages/global/g09/l502.exe)
 Closed shell SCF:
 Using DIIS extrapolation, IDIIS=  1040.
 Two-electron integral symmetry not used.
 IVT=     4849708 IEndB=     4849708 NGot=  5242880000 MDV=  5239650955
 LenX=  5239650955 LenY=  5238046933
 Requested convergence on RMS density matrix=1.00D-08 within 128 cycles.
 Requested convergence on MAX density matrix=1.00D-06.
 Requested convergence on             energy=1.00D-06.
 No special actions if energy rises.
 Fock matrices will be formed incrementally for  20 cycles.

 Cycle   1  Pass 1  IDiag  1:
 FoFJK:  IHMeth= 1 ICntrl=       0 DoSepK=F KAlg= 0 I1Cent=   0 FoldK=F
 IRaf= 660000000 NMat=   1 IRICut=       1 DoRegI=T DoRafI=F ISym2E= 0.
 FoFCou: FMM=F IPFlag=           0 FMFlag=      100000 FMFlg1=           0
         NFxFlg=           0 DoJE=F BraDBF=F KetDBF=F FulRan=T
         wScrn=  0.000000 ICntrl=       0 IOpCl=  0 I1Cent=           0 NGrid=           0
         NMat0=    1 NMatS0=      1 NMatT0=    0 NMatD0=    1 NMtDS0=    0 NMtDT0=    0
 Symmetry not used in FoFCou.
 Inv3:  Mode=1 IEnd=    43502592.
 Iteration    1 A*A^-1 deviation from unit magnitude is 7.33D-15 for   3808.
 Iteration    1 A*A^-1 deviation from orthogonality  is 2.66D-15 for   3239    419.
 Iteration    1 A^-1*A deviation from unit magnitude is 7.55D-15 for   3808.
 Iteration    1 A^-1*A deviation from orthogonality  is 2.35D-10 for   3221   3150.
 Iteration    2 A*A^-1 deviation from unit magnitude is 2.78D-15 for    417.
 Iteration    2 A*A^-1 deviation from orthogonality  is 2.66D-15 for   3003    315.
 Iteration    2 A^-1*A deviation from unit magnitude is 8.88D-16 for   1541.
 Iteration    2 A^-1*A deviation from orthogonality  is 3.33D-16 for   2490    335.
 E= -1455.82429707990    
 DIIS: error= 2.51D-02 at cycle   1 NSaved=   1.
 NSaved= 1 IEnMin= 1 EnMin= -1455.82429707990     IErMin= 1 ErrMin= 2.51D-02
 ErrMax= 2.51D-02  0.00D+00 EMaxC= 1.00D-01 BMatC= 5.64D-01 BMatP= 5.64D-01
 IDIUse=3 WtCom= 7.49D-01 WtEn= 2.51D-01
 Coeff-Com:  0.100D+01
 Coeff-En:   0.100D+01
 Coeff:      0.100D+01
 Gap=     0.127 Goal=   None    Shift=    0.000
 GapD=    0.127 DampG=1.000 DampE=0.500 DampFc=0.5000 IDamp=-1.
 Damping current iteration by 5.00D-01
 RMSDP=3.02D-03 MaxDP=4.58D-01              OVMax= 2.84D-01

 Cycle   2  Pass 1  IDiag  1:
 RMSU=  1.50D-03    CP:  1.03D+00
 E= -1456.03676636397     Delta-E=       -0.212469284073 Rises=F Damp=T
 DIIS: error= 6.19D-03 at cycle   2 NSaved=   2.
 NSaved= 2 IEnMin= 2 EnMin= -1456.03676636397     IErMin= 2 ErrMin= 6.19D-03
 ErrMax= 6.19D-03  0.00D+00 EMaxC= 1.00D-01 BMatC= 5.54D-02 BMatP= 5.64D-01
 IDIUse=3 WtCom= 9.38D-01 WtEn= 6.19D-02
 Coeff-Com:  0.986D-01 0.901D+00
 Coeff-En:   0.168D+00 0.832D+00
 Coeff:      0.103D+00 0.897D+00
 Gap=     0.163 Goal=   None    Shift=    0.000
 RMSDP=1.16D-03 MaxDP=9.22D-02 DE=-2.12D-01 OVMax= 3.30D-01

 Cycle   3  Pass 1  IDiag  1:
 RMSU=  1.16D-03    CP:  1.02D+00  9.79D-01
 E= -1456.30196796761     Delta-E=       -0.265201603635 Rises=F Damp=F
 DIIS: error= 6.96D-03 at cycle   3 NSaved=   3.
 NSaved= 3 IEnMin= 3 EnMin= -1456.30196796761     IErMin= 2 ErrMin= 6.19D-03
 ErrMax= 6.96D-03  0.00D+00 EMaxC= 1.00D-01 BMatC= 4.97D-02 BMatP= 5.54D-02
 IDIUse=3 WtCom= 9.30D-01 WtEn= 6.96D-02
 Coeff-Com: -0.109D-01 0.487D+00 0.523D+00
 Coeff-En:   0.000D+00 0.000D+00 0.100D+01
 Coeff:     -0.102D-01 0.454D+00 0.557D+00
 Gap=     0.137 Goal=   None    Shift=    0.000
 RMSDP=3.41D-04 MaxDP=3.83D-02 DE=-2.65D-01 OVMax= 1.12D-01

 Cycle   4  Pass 1  IDiag  1:
 RMSU=  3.30D-04    CP:  1.02D+00  9.26D-01  9.72D-01
 E= -1456.34295558222     Delta-E=       -0.040987614620 Rises=F Damp=F
 DIIS: error= 2.97D-03 at cycle   4 NSaved=   4.
 NSaved= 4 IEnMin= 4 EnMin= -1456.34295558222     IErMin= 4 ErrMin= 2.97D-03
 ErrMax= 2.97D-03  0.00D+00 EMaxC= 1.00D-01 BMatC= 1.04D-02 BMatP= 4.97D-02
 IDIUse=3 WtCom= 9.70D-01 WtEn= 2.97D-02
 Coeff-Com: -0.998D-02 0.123D+00 0.336D+00 0.551D+00
 Coeff-En:   0.000D+00 0.000D+00 0.185D+00 0.815D+00
 Coeff:     -0.968D-02 0.119D+00 0.332D+00 0.559D+00
 Gap=     0.130 Goal=   None    Shift=    0.000
 RMSDP=1.09D-04 MaxDP=1.32D-02 DE=-4.10D-02 OVMax= 4.26D-02

 Cycle   5  Pass 1  IDiag  1:
 RMSU=  9.15D-05    CP:  1.02D+00  9.33D-01  9.77D-01  8.24D-01
 E= -1456.35215418425     Delta-E=       -0.009198602027 Rises=F Damp=F
 DIIS: error= 7.37D-04 at cycle   5 NSaved=   5.
 NSaved= 5 IEnMin= 5 EnMin= -1456.35215418425     IErMin= 5 ErrMin= 7.37D-04
 ErrMax= 7.37D-04  0.00D+00 EMaxC= 1.00D-01 BMatC= 7.84D-04 BMatP= 1.04D-02
 IDIUse=3 WtCom= 9.93D-01 WtEn= 7.37D-03
 Coeff-Com: -0.259D-02 0.151D-01 0.130D+00 0.304D+00 0.554D+00
 Coeff-En:   0.000D+00 0.000D+00 0.000D+00 0.000D+00 0.100D+01
 Coeff:     -0.257D-02 0.150D-01 0.129D+00 0.302D+00 0.557D+00
 Gap=     0.133 Goal=   None    Shift=    0.000
 RMSDP=5.19D-05 MaxDP=5.24D-03 DE=-9.20D-03 OVMax= 1.02D-02

 Cycle   6  Pass 1  IDiag  1:
 RMSU=  4.32D-05    CP:  1.02D+00  9.39D-01  9.74D-01  7.96D-01  7.21D-01
 E= -1456.35285275250     Delta-E=       -0.000698568246 Rises=F Damp=F
 DIIS: error= 3.70D-04 at cycle   6 NSaved=   6.
 NSaved= 6 IEnMin= 6 EnMin= -1456.35285275250     IErMin= 6 ErrMin= 3.70D-04
 ErrMax= 3.70D-04  0.00D+00 EMaxC= 1.00D-01 BMatC= 9.51D-05 BMatP= 7.84D-04
 IDIUse=3 WtCom= 9.96D-01 WtEn= 3.70D-03
 Coeff-Com:  0.112D-03-0.264D-02 0.357D-01 0.971D-01 0.310D+00 0.559D+00
 Coeff-En:   0.000D+00 0.000D+00 0.000D+00 0.000D+00 0.883D-01 0.912D+00
 Coeff:      0.112D-03-0.263D-02 0.356D-01 0.967D-01 0.310D+00 0.561D+00
 Gap=     0.132 Goal=   None    Shift=    0.000
 RMSDP=1.56D-05 MaxDP=1.51D-03 DE=-6.99D-04 OVMax= 3.03D-03

 Cycle   7  Pass 1  IDiag  1:
 RMSU=  1.02D-05    CP:  1.02D+00  9.39D-01  9.77D-01  8.08D-01  8.16D-01
                    CP:  8.57D-01
 E= -1456.35294888609     Delta-E=       -0.000096133595 Rises=F Damp=F
 DIIS: error= 9.69D-05 at cycle   7 NSaved=   7.
 NSaved= 7 IEnMin= 7 EnMin= -1456.35294888609     IErMin= 7 ErrMin= 9.69D-05
 ErrMax= 9.69D-05  0.00D+00 EMaxC= 1.00D-01 BMatC= 8.78D-06 BMatP= 9.51D-05
 IDIUse=1 WtCom= 1.00D+00 WtEn= 0.00D+00
 Coeff-Com:  0.545D-03-0.320D-02 0.185D-02 0.827D-02 0.952D-01 0.283D+00
 Coeff-Com:  0.614D+00
 Coeff:      0.545D-03-0.320D-02 0.185D-02 0.827D-02 0.952D-01 0.283D+00
 Coeff:      0.614D+00
 Gap=     0.133 Goal=   None    Shift=    0.000
 RMSDP=5.05D-06 MaxDP=3.05D-04 DE=-9.61D-05 OVMax= 9.39D-04

 Cycle   8  Pass 1  IDiag  1:
 RMSU=  3.63D-06    CP:  1.02D+00  9.38D-01  9.78D-01  8.13D-01  8.34D-01
                    CP:  9.07D-01  9.73D-01
 E= -1456.35295655166     Delta-E=       -0.000007665563 Rises=F Damp=F
 DIIS: error= 2.27D-05 at cycle   8 NSaved=   8.
 NSaved= 8 IEnMin= 8 EnMin= -1456.35295655166     IErMin= 8 ErrMin= 2.27D-05
 ErrMax= 2.27D-05  0.00D+00 EMaxC= 1.00D-01 BMatC= 7.79D-07 BMatP= 8.78D-06
 IDIUse=1 WtCom= 1.00D+00 WtEn= 0.00D+00
 Coeff-Com:  0.290D-03-0.118D-02-0.414D-02-0.113D-01-0.560D-03 0.364D-01
 Coeff-Com:  0.240D+00 0.740D+00
 Coeff:      0.290D-03-0.118D-02-0.414D-02-0.113D-01-0.560D-03 0.364D-01
 Coeff:      0.240D+00 0.740D+00
 Gap=     0.133 Goal=   None    Shift=    0.000
 RMSDP=2.53D-06 MaxDP=2.28D-04 DE=-7.67D-06 OVMax= 2.71D-04

 Cycle   9  Pass 1  IDiag  1:
 RMSU=  1.62D-06    CP:  1.02D+00  9.38D-01  9.79D-01  8.15D-01  8.43D-01
                    CP:  9.21D-01  1.08D+00  1.09D+00
 E= -1456.35295729643     Delta-E=       -0.000000744772 Rises=F Damp=F
 DIIS: error= 1.17D-05 at cycle   9 NSaved=   9.
 NSaved= 9 IEnMin= 9 EnMin= -1456.35295729643     IErMin= 9 ErrMin= 1.17D-05
 ErrMax= 1.17D-05  0.00D+00 EMaxC= 1.00D-01 BMatC= 1.47D-07 BMatP= 7.79D-07
 IDIUse=1 WtCom= 1.00D+00 WtEn= 0.00D+00
 Coeff-Com:  0.112D-03-0.319D-03-0.210D-02-0.647D-02-0.779D-02-0.885D-02
 Coeff-Com:  0.561D-01 0.367D+00 0.603D+00
 Coeff:      0.112D-03-0.319D-03-0.210D-02-0.647D-02-0.779D-02-0.885D-02
 Coeff:      0.561D-01 0.367D+00 0.603D+00
 Gap=     0.133 Goal=   None    Shift=    0.000
 RMSDP=8.13D-07 MaxDP=7.46D-05 DE=-7.45D-07 OVMax= 1.34D-04

 Cycle  10  Pass 1  IDiag  1:
 RMSU=  5.69D-07    CP:  1.02D+00  9.38D-01  9.79D-01  8.16D-01  8.46D-01
                    CP:  9.23D-01  1.10D+00  1.17D+00  9.35D-01
 E= -1456.35295745081     Delta-E=       -0.000000154384 Rises=F Damp=F
 DIIS: error= 3.99D-06 at cycle  10 NSaved=  10.
 NSaved=10 IEnMin=10 EnMin= -1456.35295745081     IErMin=10 ErrMin= 3.99D-06
 ErrMax= 3.99D-06  0.00D+00 EMaxC= 1.00D-01 BMatC= 2.24D-08 BMatP= 1.47D-07
 IDIUse=1 WtCom= 1.00D+00 WtEn= 0.00D+00
 Coeff-Com: -0.432D-05 0.846D-04-0.134D-03-0.926D-03-0.335D-02-0.126D-01
 Coeff-Com: -0.244D-01 0.195D-01 0.296D+00 0.726D+00
 Coeff:     -0.432D-05 0.846D-04-0.134D-03-0.926D-03-0.335D-02-0.126D-01
 Coeff:     -0.244D-01 0.195D-01 0.296D+00 0.726D+00
 Gap=     0.133 Goal=   None    Shift=    0.000
 RMSDP=3.95D-07 MaxDP=3.30D-05 DE=-1.54D-07 OVMax= 4.83D-05

 Cycle  11  Pass 1  IDiag  1:
 RMSU=  2.20D-07    CP:  1.02D+00  9.38D-01  9.79D-01  8.16D-01  8.47D-01
                    CP:  9.24D-01  1.11D+00  1.21D+00  1.03D+00  9.31D-01
 E= -1456.35295747482     Delta-E=       -0.000000024004 Rises=F Damp=F
 DIIS: error= 1.00D-06 at cycle  11 NSaved=  11.
 NSaved=11 IEnMin=11 EnMin= -1456.35295747482     IErMin=11 ErrMin= 1.00D-06
 ErrMax= 1.00D-06  0.00D+00 EMaxC= 1.00D-01 BMatC= 2.37D-09 BMatP= 2.24D-08
 IDIUse=1 WtCom= 1.00D+00 WtEn= 0.00D+00
 Coeff-Com: -0.139D-04 0.769D-04 0.162D-03 0.226D-03-0.665D-03-0.529D-02
 Coeff-Com: -0.177D-01-0.299D-01 0.869D-01 0.343D+00 0.624D+00
 Coeff:     -0.139D-04 0.769D-04 0.162D-03 0.226D-03-0.665D-03-0.529D-02
 Coeff:     -0.177D-01-0.299D-01 0.869D-01 0.343D+00 0.624D+00
 Gap=     0.133 Goal=   None    Shift=    0.000
 RMSDP=1.01D-07 MaxDP=6.31D-06 DE=-2.40D-08 OVMax= 2.19D-05

 Cycle  12  Pass 1  IDiag  1:
 RMSU=  7.41D-08    CP:  1.02D+00  9.38D-01  9.79D-01  8.16D-01  8.47D-01
                    CP:  9.24D-01  1.11D+00  1.22D+00  1.04D+00  1.01D+00
                    CP:  1.07D+00
 E= -1456.35295747723     Delta-E=       -0.000000002411 Rises=F Damp=F
 DIIS: error= 3.83D-07 at cycle  12 NSaved=  12.
 NSaved=12 IEnMin=12 EnMin= -1456.35295747723     IErMin=12 ErrMin= 3.83D-07
 ErrMax= 3.83D-07  0.00D+00 EMaxC= 1.00D-01 BMatC= 2.74D-10 BMatP= 2.37D-09
 IDIUse=1 WtCom= 1.00D+00 WtEn= 0.00D+00
 Coeff-Com: -0.629D-05 0.219D-04 0.864D-04 0.209D-03 0.212D-03-0.586D-03
 Coeff-Com: -0.384D-02-0.153D-01-0.459D-03 0.384D-01 0.265D+00 0.716D+00
 Coeff:     -0.629D-05 0.219D-04 0.864D-04 0.209D-03 0.212D-03-0.586D-03
 Coeff:     -0.384D-02-0.153D-01-0.459D-03 0.384D-01 0.265D+00 0.716D+00
 Gap=     0.133 Goal=   None    Shift=    0.000
 RMSDP=4.72D-08 MaxDP=4.75D-06 DE=-2.41D-09 OVMax= 8.58D-06

 Cycle  13  Pass 1  IDiag  1:
 RMSU=  3.42D-08    CP:  1.02D+00  9.38D-01  9.79D-01  8.16D-01  8.47D-01
                    CP:  9.24D-01  1.11D+00  1.22D+00  1.05D+00  1.02D+00
                    CP:  1.16D+00  1.13D+00
 E= -1456.35295747748     Delta-E=       -0.000000000251 Rises=F Damp=F
 DIIS: error= 1.50D-07 at cycle  13 NSaved=  13.
 NSaved=13 IEnMin=13 EnMin= -1456.35295747748     IErMin=13 ErrMin= 1.50D-07
 ErrMax= 1.50D-07  0.00D+00 EMaxC= 1.00D-01 BMatC= 4.52D-11 BMatP= 2.74D-10
 IDIUse=1 WtCom= 1.00D+00 WtEn= 0.00D+00
 Coeff-Com: -0.124D-05 0.207D-05 0.206D-04 0.604D-04 0.181D-03 0.370D-03
 Coeff-Com:  0.552D-03-0.342D-02-0.962D-02-0.275D-01 0.377D-01 0.328D+00
 Coeff-Com:  0.673D+00
 Coeff:     -0.124D-05 0.207D-05 0.206D-04 0.604D-04 0.181D-03 0.370D-03
 Coeff:      0.552D-03-0.342D-02-0.962D-02-0.275D-01 0.377D-01 0.328D+00
 Coeff:      0.673D+00
 Gap=     0.133 Goal=   None    Shift=    0.000
 RMSDP=1.96D-08 MaxDP=2.60D-06 DE=-2.51D-10 OVMax= 3.59D-06

 Cycle  14  Pass 1  IDiag  1:
 RMSU=  1.20D-08    CP:  1.02D+00  9.38D-01  9.79D-01  8.16D-01  8.47D-01
                    CP:  9.24D-01  1.11D+00  1.22D+00  1.05D+00  1.03D+00
                    CP:  1.19D+00  1.22D+00  1.00D+00
 E= -1456.35295747753     Delta-E=       -0.000000000052 Rises=F Damp=F
 DIIS: error= 6.74D-08 at cycle  14 NSaved=  14.
 NSaved=14 IEnMin=14 EnMin= -1456.35295747753     IErMin=14 ErrMin= 6.74D-08
 ErrMax= 6.74D-08  0.00D+00 EMaxC= 1.00D-01 BMatC= 6.83D-12 BMatP= 4.52D-11
 IDIUse=1 WtCom= 1.00D+00 WtEn= 0.00D+00
 Coeff-Com:  0.394D-06-0.246D-05-0.317D-05-0.914D-05 0.493D-04 0.241D-03
 Coeff-Com:  0.838D-03 0.676D-03-0.349D-02-0.187D-01-0.262D-01 0.364D-01
 Coeff-Com:  0.306D+00 0.704D+00
 Coeff:      0.394D-06-0.246D-05-0.317D-05-0.914D-05 0.493D-04 0.241D-03
 Coeff:      0.838D-03 0.676D-03-0.349D-02-0.187D-01-0.262D-01 0.364D-01
 Coeff:      0.306D+00 0.704D+00
 Gap=     0.133 Goal=   None    Shift=    0.000
 RMSDP=7.95D-09 MaxDP=1.11D-06 DE=-5.18D-11 OVMax= 1.77D-06

 Cycle  15  Pass 1  IDiag  1:
 RMSU=  4.58D-09    CP:  1.02D+00  9.38D-01  9.79D-01  8.16D-01  8.47D-01
                    CP:  9.24D-01  1.11D+00  1.22D+00  1.05D+00  1.03D+00
                    CP:  1.21D+00  1.27D+00  1.09D+00  1.06D+00
 E= -1456.35295747750     Delta-E=        0.000000000025 Rises=F Damp=F
 DIIS: error= 3.09D-08 at cycle  15 NSaved=  15.
 NSaved=15 IEnMin=14 EnMin= -1456.35295747753     IErMin=15 ErrMin= 3.09D-08
 ErrMax= 3.09D-08  0.00D+00 EMaxC= 1.00D-01 BMatC= 9.26D-13 BMatP= 6.83D-12
 IDIUse=1 WtCom= 1.00D+00 WtEn= 0.00D+00
 Coeff-Com:  0.372D-06-0.148D-05-0.385D-05-0.135D-04-0.483D-06 0.535D-04
 Coeff-Com:  0.295D-03 0.694D-03-0.149D-04-0.463D-02-0.160D-01-0.266D-01
 Coeff-Com:  0.422D-01 0.315D+00 0.689D+00
 Coeff:      0.372D-06-0.148D-05-0.385D-05-0.135D-04-0.483D-06 0.535D-04
 Coeff:      0.295D-03 0.694D-03-0.149D-04-0.463D-02-0.160D-01-0.266D-01
 Coeff:      0.422D-01 0.315D+00 0.689D+00
 Gap=     0.133 Goal=   None    Shift=    0.000
 RMSDP=2.43D-09 MaxDP=2.44D-07 DE= 2.46D-11 OVMax= 4.65D-07

 Error on total polarization charges =  0.05681
 SCF Done:  E(RM06) =  -1456.35295748     A.U. after   15 cycles
            NFock= 15  Conv=0.24D-08     -V/T= 2.0052
 KE= 1.448856771785D+03 PE=-9.333013417940D+03 EE= 3.462080127691D+03
 SMD-CDS (non-electrostatic) energy       (kcal/mol) =      -4.29
 (included in total energy above)
 Leave Link  502 at Fri Feb 19 10:07:39 2021, MaxMem=  5242880000 cpu:     26722.3
 (Enter /opt/nce/packages/global/g09/l601.exe)
 Copying SCF densities to generalized density rwf, IOpCl= 0 IROHF=0.

 **********************************************************************

            Population analysis using the SCF density.

 **********************************************************************

 Alpha  occ. eigenvalues --  -24.71401 -24.71389 -24.71162 -19.24971 -14.48368
 Alpha  occ. eigenvalues --  -10.32694 -10.32690 -10.31685 -10.31270 -10.28930
 Alpha  occ. eigenvalues --  -10.28561 -10.28528 -10.28497 -10.26772 -10.26745
 Alpha  occ. eigenvalues --  -10.26378 -10.26317 -10.26143 -10.25959 -10.25926
 Alpha  occ. eigenvalues --  -10.25895 -10.25848 -10.25560 -10.25497 -10.24942
 Alpha  occ. eigenvalues --  -10.24865 -10.24841 -10.24130 -10.24077 -10.23814
 Alpha  occ. eigenvalues --  -10.21129  -6.83983  -1.20600  -1.16831  -1.16583
 Alpha  occ. eigenvalues --   -1.10317  -1.03525  -0.90681  -0.89346  -0.87593
 Alpha  occ. eigenvalues --   -0.86438  -0.83572  -0.79674  -0.78708  -0.78139
 Alpha  occ. eigenvalues --   -0.77359  -0.76194  -0.75320  -0.75211  -0.71342
 Alpha  occ. eigenvalues --   -0.69304  -0.67122  -0.66015  -0.63800  -0.62698
 Alpha  occ. eigenvalues --   -0.61640  -0.61300  -0.59493  -0.57939  -0.57614
 Alpha  occ. eigenvalues --   -0.56261  -0.55195  -0.54420  -0.52752  -0.52150
 Alpha  occ. eigenvalues --   -0.50714  -0.49676  -0.49481  -0.49274  -0.49159
 Alpha  occ. eigenvalues --   -0.48955  -0.48519  -0.47126  -0.46663  -0.46417
 Alpha  occ. eigenvalues --   -0.46281  -0.45961  -0.45541  -0.44935  -0.44809
 Alpha  occ. eigenvalues --   -0.44393  -0.42945  -0.42601  -0.41937  -0.41062
 Alpha  occ. eigenvalues --   -0.40933  -0.40468  -0.40205  -0.40096  -0.39191
 Alpha  occ. eigenvalues --   -0.38719  -0.38563  -0.38232  -0.38059  -0.37648
 Alpha  occ. eigenvalues --   -0.37177  -0.36930  -0.36570  -0.36400  -0.34665
 Alpha  occ. eigenvalues --   -0.34497  -0.34461  -0.33568  -0.29592  -0.28983
 Alpha  occ. eigenvalues --   -0.28247  -0.28007  -0.26851  -0.26123  -0.24859
 Alpha  occ. eigenvalues --   -0.24584
 Alpha virt. eigenvalues --   -0.11324  -0.04480  -0.03006  -0.02614  -0.01524
 Alpha virt. eigenvalues --   -0.01231  -0.00351   0.00389   0.03550   0.04329
 Alpha virt. eigenvalues --    0.04781   0.05161   0.05632   0.06035   0.06627
 Alpha virt. eigenvalues --    0.07221   0.07302   0.07795   0.08259   0.08492
 Alpha virt. eigenvalues --    0.08874   0.09302   0.09580   0.09956   0.10306
 Alpha virt. eigenvalues --    0.10465   0.10993   0.11470   0.11675   0.11955
 Alpha virt. eigenvalues --    0.12148   0.12376   0.12812   0.13344   0.13714
 Alpha virt. eigenvalues --    0.13960   0.14526   0.15249   0.16115   0.17177
 Alpha virt. eigenvalues --    0.17413   0.17867   0.18135   0.18547   0.18752
 Alpha virt. eigenvalues --    0.19107   0.20345   0.20555   0.20686   0.21089
 Alpha virt. eigenvalues --    0.21188   0.21674   0.21881   0.21981   0.22191
 Alpha virt. eigenvalues --    0.22447   0.22702   0.22966   0.23236   0.23600
 Alpha virt. eigenvalues --    0.23767   0.24198   0.24439   0.24813   0.25339
 Alpha virt. eigenvalues --    0.25569   0.25985   0.26117   0.26306   0.27052
 Alpha virt. eigenvalues --    0.27228   0.27511   0.27962   0.28005   0.28354
 Alpha virt. eigenvalues --    0.28488   0.28893   0.29377   0.29776   0.29828
 Alpha virt. eigenvalues --    0.30137   0.30544   0.31234   0.31589   0.32055
 Alpha virt. eigenvalues --    0.32342   0.32492   0.32804   0.32920   0.33322
 Alpha virt. eigenvalues --    0.33452   0.33579   0.34179   0.34243   0.34524
 Alpha virt. eigenvalues --    0.34819   0.34907   0.35293   0.35489   0.35816
 Alpha virt. eigenvalues --    0.36186   0.36280   0.36529   0.36730   0.36845
 Alpha virt. eigenvalues --    0.37362   0.37556   0.38123   0.38701   0.38788
 Alpha virt. eigenvalues --    0.39012   0.39179   0.39474   0.39543   0.39760
 Alpha virt. eigenvalues --    0.39875   0.40994   0.41315   0.41530   0.42033
 Alpha virt. eigenvalues --    0.42276   0.42338   0.42655   0.43026   0.43318
 Alpha virt. eigenvalues --    0.43460   0.43657   0.44112   0.44253   0.44449
 Alpha virt. eigenvalues --    0.44907   0.45336   0.45675   0.45765   0.46179
 Alpha virt. eigenvalues --    0.46680   0.47258   0.47418   0.47660   0.47909
 Alpha virt. eigenvalues --    0.48236   0.48336   0.48534   0.49280   0.49677
 Alpha virt. eigenvalues --    0.50856   0.51299   0.52083   0.52620   0.53020
 Alpha virt. eigenvalues --    0.53529   0.54212   0.54863   0.55408   0.55851
 Alpha virt. eigenvalues --    0.56501   0.57237   0.57495   0.58180   0.58388
 Alpha virt. eigenvalues --    0.58681   0.59184   0.59917   0.60226   0.60459
 Alpha virt. eigenvalues --    0.60650   0.60994   0.61778   0.61957   0.62446
 Alpha virt. eigenvalues --    0.62582   0.63100   0.63212   0.63604   0.63991
 Alpha virt. eigenvalues --    0.64310   0.64655   0.64879   0.65316   0.65515
 Alpha virt. eigenvalues --    0.65852   0.66156   0.66540   0.66802   0.67012
 Alpha virt. eigenvalues --    0.67335   0.67443   0.67856   0.68515   0.68873
 Alpha virt. eigenvalues --    0.69180   0.69419   0.69731   0.69904   0.70603
 Alpha virt. eigenvalues --    0.70716   0.71094   0.71286   0.71511   0.71873
 Alpha virt. eigenvalues --    0.72349   0.72924   0.73206   0.73486   0.73497
 Alpha virt. eigenvalues --    0.74166   0.74560   0.75044   0.75515   0.76118
 Alpha virt. eigenvalues --    0.76291   0.76704   0.76885   0.77045   0.77882
 Alpha virt. eigenvalues --    0.78262   0.78645   0.79280   0.79537   0.80245
 Alpha virt. eigenvalues --    0.80581   0.81014   0.81401   0.81745   0.82169
 Alpha virt. eigenvalues --    0.83048   0.83307   0.83511   0.84039   0.84516
 Alpha virt. eigenvalues --    0.84671   0.85320   0.85788   0.86408   0.86566
 Alpha virt. eigenvalues --    0.87079   0.87884   0.89000   0.89390   0.89671
 Alpha virt. eigenvalues --    0.90647   0.91268   0.91851   0.92023   0.92584
 Alpha virt. eigenvalues --    0.93455   0.93735   0.94000   0.94859   0.95339
 Alpha virt. eigenvalues --    0.95515   0.96870   0.97450   0.97623   0.98705
 Alpha virt. eigenvalues --    0.98998   1.00351   1.01078   1.01310   1.02115
 Alpha virt. eigenvalues --    1.02703   1.03041   1.03214   1.04315   1.05367
 Alpha virt. eigenvalues --    1.05800   1.05985   1.06755   1.07170   1.07478
 Alpha virt. eigenvalues --    1.07771   1.08066   1.08797   1.09137   1.10279
 Alpha virt. eigenvalues --    1.10849   1.11550   1.11767   1.12413   1.14214
 Alpha virt. eigenvalues --    1.14300   1.14850   1.15359   1.16321   1.16708
 Alpha virt. eigenvalues --    1.17437   1.17922   1.18350   1.19270   1.19564
 Alpha virt. eigenvalues --    1.19678   1.20657   1.21132   1.21504   1.22027
 Alpha virt. eigenvalues --    1.22194   1.22780   1.23107   1.23519   1.24071
 Alpha virt. eigenvalues --    1.24461   1.25532   1.25808   1.26038   1.26536
 Alpha virt. eigenvalues --    1.27564   1.28112   1.28331   1.28467   1.28618
 Alpha virt. eigenvalues --    1.28920   1.30215   1.30675   1.31079   1.31758
 Alpha virt. eigenvalues --    1.32325   1.33467   1.34457   1.35221   1.35738
 Alpha virt. eigenvalues --    1.36441   1.37074   1.39061   1.39175   1.39351
 Alpha virt. eigenvalues --    1.40292   1.40708   1.41637   1.41890   1.42516
 Alpha virt. eigenvalues --    1.42959   1.43433   1.43898   1.44404   1.44956
 Alpha virt. eigenvalues --    1.45387   1.45867   1.46367   1.46722   1.47438
 Alpha virt. eigenvalues --    1.47904   1.48699   1.48958   1.49611   1.49956
 Alpha virt. eigenvalues --    1.50422   1.51033   1.51399   1.51598   1.52155
 Alpha virt. eigenvalues --    1.52726   1.52912   1.53616   1.53694   1.54405
 Alpha virt. eigenvalues --    1.55438   1.55487   1.55983   1.56362   1.56715
 Alpha virt. eigenvalues --    1.56836   1.57137   1.58471   1.59007   1.59391
 Alpha virt. eigenvalues --    1.59855   1.60750   1.61305   1.62046   1.62625
 Alpha virt. eigenvalues --    1.63230   1.63491   1.63827   1.64997   1.65412
 Alpha virt. eigenvalues --    1.65762   1.66220   1.66593   1.67215   1.67361
 Alpha virt. eigenvalues --    1.67726   1.68589   1.69285   1.69580   1.70066
 Alpha virt. eigenvalues --    1.70766   1.71456   1.72707   1.73250   1.73368
 Alpha virt. eigenvalues --    1.74006   1.74141   1.74658   1.75147   1.75442
 Alpha virt. eigenvalues --    1.76304   1.77172   1.78180   1.78587   1.79652
 Alpha virt. eigenvalues --    1.81555   1.81777   1.82353   1.82567   1.83116
 Alpha virt. eigenvalues --    1.83425   1.84100   1.84595   1.85421   1.85478
 Alpha virt. eigenvalues --    1.86494   1.86970   1.87393   1.87699   1.88398
 Alpha virt. eigenvalues --    1.89159   1.89414   1.90952   1.92022   1.92088
 Alpha virt. eigenvalues --    1.92804   1.93412   1.93755   1.93873   1.94960
 Alpha virt. eigenvalues --    1.95431   1.97064   1.97469   1.98051   1.98242
 Alpha virt. eigenvalues --    1.99406   1.99826   2.00362   2.01383   2.01950
 Alpha virt. eigenvalues --    2.03074   2.03673   2.04235   2.04900   2.05513
 Alpha virt. eigenvalues --    2.06168   2.06666   2.07917   2.08310   2.08407
 Alpha virt. eigenvalues --    2.09523   2.09854   2.10369   2.11143   2.11243
 Alpha virt. eigenvalues --    2.11957   2.13150   2.13690   2.14079   2.14420
 Alpha virt. eigenvalues --    2.14855   2.15207   2.16044   2.16598   2.17321
 Alpha virt. eigenvalues --    2.17785   2.18307   2.18784   2.19281   2.19516
 Alpha virt. eigenvalues --    2.20465   2.20965   2.21093   2.21714   2.23116
 Alpha virt. eigenvalues --    2.23905   2.24266   2.24943   2.25671   2.26069
 Alpha virt. eigenvalues --    2.26628   2.26899   2.28064   2.29647   2.30772
 Alpha virt. eigenvalues --    2.31105   2.31870   2.32565   2.33412   2.35121
 Alpha virt. eigenvalues --    2.35310   2.35699   2.36479   2.37399   2.38681
 Alpha virt. eigenvalues --    2.38856   2.40602   2.40621   2.41508   2.42455
 Alpha virt. eigenvalues --    2.43193   2.44477   2.45312   2.45844   2.46525
 Alpha virt. eigenvalues --    2.46880   2.48057   2.48541   2.49035   2.49710
 Alpha virt. eigenvalues --    2.50406   2.51001   2.51621   2.51889   2.52321
 Alpha virt. eigenvalues --    2.53055   2.53482   2.53803   2.55108   2.55831
 Alpha virt. eigenvalues --    2.56574   2.56961   2.57772   2.58059   2.58363
 Alpha virt. eigenvalues --    2.58799   2.59252   2.60112   2.60723   2.61076
 Alpha virt. eigenvalues --    2.61329   2.62005   2.62483   2.63363   2.63627
 Alpha virt. eigenvalues --    2.64236   2.64470   2.64853   2.65071   2.66066
 Alpha virt. eigenvalues --    2.66406   2.66603   2.66979   2.67315   2.67921
 Alpha virt. eigenvalues --    2.68506   2.68922   2.69066   2.69333   2.69694
 Alpha virt. eigenvalues --    2.70237   2.70509   2.70961   2.71522   2.71808
 Alpha virt. eigenvalues --    2.72458   2.73166   2.73453   2.73987   2.74089
 Alpha virt. eigenvalues --    2.74452   2.74645   2.75214   2.75963   2.76567
 Alpha virt. eigenvalues --    2.76802   2.77127   2.77644   2.77964   2.78482
 Alpha virt. eigenvalues --    2.79361   2.79572   2.79972   2.80640   2.80745
 Alpha virt. eigenvalues --    2.81198   2.81590   2.81722   2.82312   2.82975
 Alpha virt. eigenvalues --    2.83020   2.83955   2.83964   2.84728   2.85022
 Alpha virt. eigenvalues --    2.85539   2.85663   2.86242   2.86678   2.87478
 Alpha virt. eigenvalues --    2.87727   2.88351   2.88840   2.89178   2.89695
 Alpha virt. eigenvalues --    2.90120   2.91065   2.91347   2.92045   2.92478
 Alpha virt. eigenvalues --    2.92496   2.93517   2.94187   2.94950   2.95576
 Alpha virt. eigenvalues --    2.95962   2.96521   2.96655   2.97802   2.98697
 Alpha virt. eigenvalues --    2.99264   2.99585   2.99659   3.00092   3.00753
 Alpha virt. eigenvalues --    3.01034   3.01606   3.01956   3.02281   3.02707
 Alpha virt. eigenvalues --    3.02771   3.03290   3.04196   3.04471   3.05489
 Alpha virt. eigenvalues --    3.06114   3.06364   3.06492   3.07335   3.07655
 Alpha virt. eigenvalues --    3.08050   3.09100   3.09631   3.09831   3.10459
 Alpha virt. eigenvalues --    3.10573   3.11029   3.11177   3.11536   3.11844
 Alpha virt. eigenvalues --    3.12279   3.12517   3.13472   3.14004   3.14354
 Alpha virt. eigenvalues --    3.14750   3.15310   3.15815   3.16619   3.16880
 Alpha virt. eigenvalues --    3.17032   3.17122   3.18104   3.18396   3.19108
 Alpha virt. eigenvalues --    3.19774   3.20507   3.20787   3.21606   3.22376
 Alpha virt. eigenvalues --    3.22605   3.23737   3.24112   3.24489   3.24930
 Alpha virt. eigenvalues --    3.25247   3.25363   3.25634   3.26283   3.27146
 Alpha virt. eigenvalues --    3.27323   3.27560   3.28006   3.28215   3.29534
 Alpha virt. eigenvalues --    3.29770   3.29994   3.30331   3.30598   3.31386
 Alpha virt. eigenvalues --    3.31492   3.32105   3.32453   3.32960   3.33660
 Alpha virt. eigenvalues --    3.34158   3.34219   3.34697   3.35753   3.35850
 Alpha virt. eigenvalues --    3.36175   3.36478   3.36969   3.37508   3.37988
 Alpha virt. eigenvalues --    3.38514   3.39171   3.39338   3.39931   3.40644
 Alpha virt. eigenvalues --    3.40842   3.41444   3.41987   3.42260   3.42437
 Alpha virt. eigenvalues --    3.43027   3.43728   3.44309   3.44452   3.44765
 Alpha virt. eigenvalues --    3.45276   3.46271   3.46531   3.46805   3.47382
 Alpha virt. eigenvalues --    3.47683   3.48542   3.48868   3.48949   3.49477
 Alpha virt. eigenvalues --    3.49842   3.50147   3.50343   3.50647   3.51697
 Alpha virt. eigenvalues --    3.52238   3.52671   3.53075   3.53767   3.54350
 Alpha virt. eigenvalues --    3.55376   3.55541   3.55759   3.56325   3.57901
 Alpha virt. eigenvalues --    3.58711   3.59809   3.60693   3.61058   3.61814
 Alpha virt. eigenvalues --    3.62187   3.62551   3.63327   3.64048   3.64606
 Alpha virt. eigenvalues --    3.64778   3.65794   3.67008   3.68014   3.68611
 Alpha virt. eigenvalues --    3.69755   3.70875   3.71087   3.72626   3.72938
 Alpha virt. eigenvalues --    3.72998   3.73890   3.75216   3.76447   3.77069
 Alpha virt. eigenvalues --    3.77703   3.78348   3.78543   3.79495   3.80341
 Alpha virt. eigenvalues --    3.81381   3.82248   3.82525   3.83436   3.84937
 Alpha virt. eigenvalues --    3.85212   3.85972   3.86794   3.87443   3.88519
 Alpha virt. eigenvalues --    3.89475   3.90142   3.90865   3.91575   3.92840
 Alpha virt. eigenvalues --    3.93238   3.93422   3.95479   3.96548   3.98157
 Alpha virt. eigenvalues --    3.98617   3.98770   3.99049   4.00445   4.01674
 Alpha virt. eigenvalues --    4.02158   4.03956   4.04656   4.04997   4.05202
 Alpha virt. eigenvalues --    4.05525   4.06485   4.06888   4.07852   4.08361
 Alpha virt. eigenvalues --    4.08855   4.10338   4.11139   4.11550   4.12050
 Alpha virt. eigenvalues --    4.12546   4.12774   4.13551   4.13744   4.14949
 Alpha virt. eigenvalues --    4.15298   4.15688   4.16189   4.16467   4.16926
 Alpha virt. eigenvalues --    4.17274   4.17759   4.18290   4.19211   4.19601
 Alpha virt. eigenvalues --    4.20026   4.20904   4.22264   4.22774   4.23373
 Alpha virt. eigenvalues --    4.24155   4.26362   4.26804   4.27536   4.28426
 Alpha virt. eigenvalues --    4.29113   4.29756   4.32892   4.34206   4.34976
 Alpha virt. eigenvalues --    4.35546   4.36988   4.38379   4.38789   4.39536
 Alpha virt. eigenvalues --    4.41052   4.42017   4.42470   4.44438   4.46575
 Alpha virt. eigenvalues --    4.48183   4.48888   4.50429   4.50678   4.51537
 Alpha virt. eigenvalues --    4.53778   4.54356   4.54909   4.55761   4.56533
 Alpha virt. eigenvalues --    4.58288   4.59659   4.60572   4.60723   4.61287
 Alpha virt. eigenvalues --    4.62210   4.65374   4.66488   4.67742   4.68549
 Alpha virt. eigenvalues --    4.71677   4.75302   4.77178   4.79426   4.80422
 Alpha virt. eigenvalues --    4.82293   4.83429   4.85588   4.85963   4.89063
 Alpha virt. eigenvalues --    4.89776   4.90293   4.90615   4.91932   4.94148
 Alpha virt. eigenvalues --    4.95353   4.99156   5.00005   5.00438   5.02040
 Alpha virt. eigenvalues --    5.02699   5.02989   5.07910   5.09043   5.10404
 Alpha virt. eigenvalues --    5.11175   5.13871   5.16307   5.17527   5.20442
 Alpha virt. eigenvalues --    5.20461   5.22482   5.29141   5.30405   5.33291
 Alpha virt. eigenvalues --    5.34302   5.34593   5.35773   5.42580   5.44075
 Alpha virt. eigenvalues --    5.44471   5.48057   5.49048   5.49479   5.50599
 Alpha virt. eigenvalues --    5.55440   5.55899   5.63822   5.66012   5.69005
 Alpha virt. eigenvalues --    5.73128   5.74810   5.75348   5.76599   5.92024
 Alpha virt. eigenvalues --    5.96250   5.97212   6.03042   6.18012   6.32485
 Alpha virt. eigenvalues --    6.32763   6.51217   6.69313   6.83881   6.90671
 Alpha virt. eigenvalues --    6.91760   6.94454   6.94598   6.94793   6.95166
 Alpha virt. eigenvalues --    6.95239   6.95684   6.96105   6.96591   7.06110
 Alpha virt. eigenvalues --    7.09620   7.10377   7.13113   7.14240   7.14551
 Alpha virt. eigenvalues --    7.18518   7.29927   7.31610   7.32103   7.34545
 Alpha virt. eigenvalues --    7.45271   7.45526   7.45751   8.45256   8.48693
 Alpha virt. eigenvalues --    8.49040   8.61837   8.62516   8.67368   8.92427
 Alpha virt. eigenvalues --    8.93620   8.94853   8.95914   8.99961   9.00420
 Alpha virt. eigenvalues --    9.01046   9.05878   9.08104  15.64869  22.18660
 Alpha virt. eigenvalues --   22.30462  22.32200  22.40130  22.43378  22.58134
 Alpha virt. eigenvalues --   22.59750  22.61122  22.61623  22.63442  22.65521
 Alpha virt. eigenvalues --   22.67947  22.70146  22.74139  22.76623  22.80252
 Alpha virt. eigenvalues --   22.86897  22.90476  22.92915  22.99036  23.05340
 Alpha virt. eigenvalues --   23.11858  23.25050  23.29485  23.35065  23.66976
 Alpha virt. eigenvalues --   33.29919  44.20834  57.04883  57.11448  57.17650
          Condensed to atoms (all electrons):
 Mulliken charges:
               1
     1  C   -0.096923
     2  C   -0.148661
     3  C    0.209759
     4  C   -0.035617
     5  C   -0.177435
     6  C   -0.128895
     7  C    0.331053
     8  C   -0.038243
     9  C    0.208796
    10  C   -0.151193
    11  H    0.185148
    12  C   -0.094683
    13  C   -0.127517
    14  C   -0.164973
    15  H    0.150876
    16  H    0.185181
    17  H    0.236462
    18  H    0.141889
    19  H    0.151437
    20  H    0.142832
    21  H    0.219625
    22  N    0.040135
    23  C    0.012228
    24  C   -0.417556
    25  C   -0.306091
    26  C   -0.057907
    27  C   -0.098345
    28  C   -0.203846
    29  H    0.127681
    30  H    0.168571
    31  C   -0.103251
    32  C   -0.271708
    33  C   -0.238511
    34  C   -0.157493
    35  H    0.154273
    36  C   -0.117081
    37  H    0.148772
    38  C    0.431593
    39  H    0.164677
    40  H    0.143670
    41  O   -0.381237
    42  C   -0.143468
    43  H    0.138249
    44  H    0.127007
    45  H    0.127222
    46  H    0.188174
    47  H    0.125321
    48  B    0.610776
    49  F   -0.408802
    50  F   -0.400884
    51  F   -0.401090
 Sum of Mulliken charges =  -0.00000
 Mulliken charges with hydrogens summed into heavy atoms:
               1
     1  C    0.053953
     2  C    0.036520
     3  C    0.209759
     4  C   -0.035617
     5  C    0.059028
     6  C    0.012994
     7  C    0.331053
     8  C   -0.038243
[...]
 Alpha virt. eigenvalues --    0.67953   0.68184   0.68321   0.68623   0.69190
 Alpha virt. eigenvalues --    0.69450   0.69938   0.70155   0.70691   0.71104
 Alpha virt. eigenvalues --    0.71287   0.71510   0.71742   0.72051   0.72829
 Alpha virt. eigenvalues --    0.73037   0.73154   0.73641   0.73879   0.74189
 Alpha virt. eigenvalues --    0.74224   0.74917   0.75424   0.75614   0.76327
 Alpha virt. eigenvalues --    0.76544   0.77343   0.77677   0.77814   0.78310
 Alpha virt. eigenvalues --    0.78786   0.79164   0.79498   0.80246   0.80876
 Alpha virt. eigenvalues --    0.81175   0.81313   0.81459   0.81732   0.82719
 Alpha virt. eigenvalues --    0.83126   0.83335   0.84161   0.84244   0.84959
 Alpha virt. eigenvalues --    0.85287   0.85555   0.86474   0.86701   0.87071
 Alpha virt. eigenvalues --    0.87423   0.87955   0.88788   0.89653   0.90205
 Alpha virt. eigenvalues --    0.91358   0.91424   0.91988   0.92371   0.92799
 Alpha virt. eigenvalues --    0.93782   0.93949   0.94458   0.95023   0.95328
 Alpha virt. eigenvalues --    0.95925   0.96620   0.97555   0.98499   0.99492
 Alpha virt. eigenvalues --    0.99637   1.00919   1.01397   1.02118   1.02481
 Alpha virt. eigenvalues --    1.02598   1.03313   1.03968   1.05393   1.05976
 Alpha virt. eigenvalues --    1.06270   1.06758   1.06797   1.07435   1.07638
 Alpha virt. eigenvalues --    1.08112   1.08918   1.09231   1.09395   1.10486
 Alpha virt. eigenvalues --    1.11593   1.12141   1.13163   1.13991   1.14402
 Alpha virt. eigenvalues --    1.14578   1.15521   1.15682   1.16141   1.17466
 Alpha virt. eigenvalues --    1.17744   1.18114   1.18963   1.20001   1.20329
 Alpha virt. eigenvalues --    1.20891   1.21003   1.21815   1.22067   1.22394
 Alpha virt. eigenvalues --    1.23009   1.23287   1.23905   1.24414   1.24882
 Alpha virt. eigenvalues --    1.25599   1.25848   1.26305   1.26729   1.27962
 Alpha virt. eigenvalues --    1.28352   1.28575   1.28863   1.29608   1.29837
 Alpha virt. eigenvalues --    1.30181   1.31190   1.31785   1.32140   1.33253
 Alpha virt. eigenvalues --    1.33717   1.35090   1.35107   1.36214   1.36789
 Alpha virt. eigenvalues --    1.37488   1.37896   1.38624   1.39408   1.39914
 Alpha virt. eigenvalues --    1.40162   1.41470   1.41875   1.42314   1.42865
 Alpha virt. eigenvalues --    1.43495   1.43917   1.44196   1.44428   1.45907
 Alpha virt. eigenvalues --    1.46265   1.46904   1.47243   1.48182   1.48564
 Alpha virt. eigenvalues --    1.49266   1.49418   1.49848   1.50267   1.50350
 Alpha virt. eigenvalues --    1.51024   1.51667   1.51943   1.52347   1.52894
 Alpha virt. eigenvalues --    1.53355   1.53477   1.54017   1.54764   1.55591
 Alpha virt. eigenvalues --    1.56054   1.56344   1.56701   1.56905   1.57185
 Alpha virt. eigenvalues --    1.57254   1.57942   1.58035   1.59894   1.60783
 Alpha virt. eigenvalues --    1.60946   1.61345   1.62270   1.62526   1.62979
 Alpha virt. eigenvalues --    1.63709   1.64198   1.64649   1.64881   1.65772
 Alpha virt. eigenvalues --    1.66127   1.66804   1.67523   1.68246   1.68398
 Alpha virt. eigenvalues --    1.69046   1.69325   1.69353   1.70368   1.71426
 Alpha virt. eigenvalues --    1.71803   1.72208   1.73543   1.73625   1.74328
 Alpha virt. eigenvalues --    1.74583   1.74945   1.75455   1.75835   1.76654
 Alpha virt. eigenvalues --    1.77379   1.77432   1.78332   1.79119   1.79635
 Alpha virt. eigenvalues --    1.81182   1.81738   1.82299   1.83404   1.83758
 Alpha virt. eigenvalues --    1.84349   1.84499   1.85624   1.86279   1.86728
 Alpha virt. eigenvalues --    1.86918   1.87917   1.87972   1.88343   1.88742
 Alpha virt. eigenvalues --    1.89512   1.90609   1.91118   1.92657   1.93157
 Alpha virt. eigenvalues --    1.93497   1.94040   1.94278   1.94687   1.95814
 Alpha virt. eigenvalues --    1.96486   1.97728   1.98594   1.99018   1.99212
 Alpha virt. eigenvalues --    2.00015   2.00738   2.01772   2.02795   2.02977
 Alpha virt. eigenvalues --    2.03376   2.03985   2.04011   2.05478   2.05850
 Alpha virt. eigenvalues --    2.06692   2.07777   2.07964   2.09259   2.09444
 Alpha virt. eigenvalues --    2.10547   2.10730   2.11286   2.12260   2.12632
 Alpha virt. eigenvalues --    2.13467   2.14062   2.14178   2.14501   2.14941
 Alpha virt. eigenvalues --    2.15422   2.16045   2.16718   2.18687   2.18839
 Alpha virt. eigenvalues --    2.19338   2.19761   2.20078   2.20127   2.21320
 Alpha virt. eigenvalues --    2.21708   2.22184   2.22708   2.23835   2.24411
 Alpha virt. eigenvalues --    2.25527   2.25820   2.26553   2.27003   2.27403
 Alpha virt. eigenvalues --    2.27750   2.29403   2.29975   2.31140   2.32163
 Alpha virt. eigenvalues --    2.32482   2.32794   2.33525   2.34495   2.36091
 Alpha virt. eigenvalues --    2.37057   2.37297   2.37899   2.38406   2.39371
 Alpha virt. eigenvalues --    2.40046   2.41312   2.41921   2.42071   2.42531
 Alpha virt. eigenvalues --    2.44104   2.45539   2.46199   2.46691   2.47386
 Alpha virt. eigenvalues --    2.47899   2.48815   2.49098   2.50171   2.50495
 Alpha virt. eigenvalues --    2.50618   2.52329   2.52741   2.53240   2.53362
 Alpha virt. eigenvalues --    2.53797   2.54406   2.55342   2.56167   2.57041
 Alpha virt. eigenvalues --    2.57599   2.58374   2.58500   2.59179   2.59460
 Alpha virt. eigenvalues --    2.60043   2.60460   2.61292   2.61910   2.62494
 Alpha virt. eigenvalues --    2.62821   2.63519   2.63725   2.64444   2.64769
 Alpha virt. eigenvalues --    2.65050   2.65271   2.65590   2.66786   2.67220
 Alpha virt. eigenvalues --    2.67650   2.67756   2.68134   2.69182   2.69532
 Alpha virt. eigenvalues --    2.69866   2.70010   2.70204   2.70540   2.71014
 Alpha virt. eigenvalues --    2.71367   2.71614   2.71732   2.72625   2.73204
 Alpha virt. eigenvalues --    2.73717   2.74078   2.74406   2.74642   2.74930
 Alpha virt. eigenvalues --    2.75093   2.75452   2.75856   2.76369   2.76707
 Alpha virt. eigenvalues --    2.77470   2.78210   2.78704   2.78928   2.79234
 Alpha virt. eigenvalues --    2.79983   2.80557   2.80989   2.81731   2.81746
 Alpha virt. eigenvalues --    2.81892   2.82958   2.83255   2.83490   2.84004
 Alpha virt. eigenvalues --    2.84183   2.84599   2.85320   2.85657   2.86013
 Alpha virt. eigenvalues --    2.86950   2.87069   2.87281   2.88364   2.88808
 Alpha virt. eigenvalues --    2.89241   2.89598   2.89784   2.90641   2.91031
 Alpha virt. eigenvalues --    2.91387   2.91863   2.92390   2.93106   2.93221
 Alpha virt. eigenvalues --    2.93638   2.94001   2.95111   2.95286   2.95756
 Alpha virt. eigenvalues --    2.96239   2.96605   2.97802   2.98312   2.98422
 Alpha virt. eigenvalues --    2.99093   2.99599   3.00727   3.01158   3.01374
 Alpha virt. eigenvalues --    3.01770   3.02214   3.02487   3.02946   3.03477
 Alpha virt. eigenvalues --    3.04304   3.04455   3.05448   3.05956   3.06412
 Alpha virt. eigenvalues --    3.06690   3.07258   3.07444   3.07880   3.08358
 Alpha virt. eigenvalues --    3.08621   3.09435   3.09596   3.10041   3.10712
 Alpha virt. eigenvalues --    3.11319   3.11497   3.11794   3.12083   3.12436
 Alpha virt. eigenvalues --    3.12897   3.14382   3.14887   3.15068   3.15247
 Alpha virt. eigenvalues --    3.15834   3.16229   3.16965   3.17473   3.18032
 Alpha virt. eigenvalues --    3.18166   3.18952   3.19259   3.20071   3.20617
 Alpha virt. eigenvalues --    3.20679   3.21336   3.21650   3.22571   3.23337
 Alpha virt. eigenvalues --    3.23599   3.23996   3.24822   3.25201   3.25774
 Alpha virt. eigenvalues --    3.26160   3.26247   3.26868   3.27567   3.27789
 Alpha virt. eigenvalues --    3.28300   3.28519   3.29294   3.30021   3.30220
 Alpha virt. eigenvalues --    3.30564   3.31125   3.31522   3.32266   3.32613
 Alpha virt. eigenvalues --    3.32915   3.33600   3.33862   3.34411   3.34849
 Alpha virt. eigenvalues --    3.35450   3.35637   3.35908   3.36461   3.36723
 Alpha virt. eigenvalues --    3.37352   3.37950   3.38450   3.38602   3.39472
 Alpha virt. eigenvalues --    3.39800   3.40012   3.40689   3.41563   3.41799
 Alpha virt. eigenvalues --    3.41946   3.42525   3.42701   3.43169   3.43549
 Alpha virt. eigenvalues --    3.43994   3.45087   3.45358   3.45987   3.46215
 Alpha virt. eigenvalues --    3.46707   3.47821   3.47973   3.48214   3.48872
 Alpha virt. eigenvalues --    3.48958   3.49731   3.49978   3.50641   3.50887
 Alpha virt. eigenvalues --    3.51165   3.51478   3.51887   3.52041   3.52738
 Alpha virt. eigenvalues --    3.53035   3.54222   3.54374   3.54780   3.55458
 Alpha virt. eigenvalues --    3.56237   3.56432   3.57189   3.58001   3.60542
 Alpha virt. eigenvalues --    3.60926   3.61335   3.61732   3.62602   3.63173
 Alpha virt. eigenvalues --    3.63356   3.64535   3.65427   3.65845   3.66005
 Alpha virt. eigenvalues --    3.66925   3.67912   3.68535   3.69082   3.69801
 Alpha virt. eigenvalues --    3.71504   3.72457   3.72693   3.73287   3.74433
 Alpha virt. eigenvalues --    3.74736   3.75866   3.77072   3.77777   3.78709
 Alpha virt. eigenvalues --    3.79144   3.79783   3.80959   3.81555   3.82896
 Alpha virt. eigenvalues --    3.83681   3.84739   3.85030   3.85445   3.87517
 Alpha virt. eigenvalues --    3.88342   3.88456   3.88841   3.89127   3.89567
 Alpha virt. eigenvalues --    3.91093   3.91805   3.92811   3.93670   3.94915
 Alpha virt. eigenvalues --    3.95584   3.96283   3.97200   3.98765   3.99689
 Alpha virt. eigenvalues --    4.00084   4.00681   4.01078   4.03266   4.03899
 Alpha virt. eigenvalues --    4.05446   4.05894   4.06572   4.06915   4.07637
 Alpha virt. eigenvalues --    4.07944   4.08648   4.09381   4.10175   4.10242
 Alpha virt. eigenvalues --    4.11042   4.11515   4.12647   4.14164   4.14602
 Alpha virt. eigenvalues --    4.14834   4.15322   4.16236   4.17206   4.17732
 Alpha virt. eigenvalues --    4.18206   4.18609   4.18725   4.18970   4.19285
 Alpha virt. eigenvalues --    4.19900   4.20731   4.21212   4.21561   4.22035
 Alpha virt. eigenvalues --    4.23059   4.25283   4.25311   4.25778   4.25840
 Alpha virt. eigenvalues --    4.27090   4.28875   4.29679   4.30344   4.30617
 Alpha virt. eigenvalues --    4.32702   4.33237   4.36073   4.36823   4.38849
 Alpha virt. eigenvalues --    4.39308   4.39885   4.40688   4.41367   4.42245
 Alpha virt. eigenvalues --    4.43158   4.44210   4.45195   4.45748   4.50133
 Alpha virt. eigenvalues --    4.51332   4.52153   4.53529   4.54527   4.55325
 Alpha virt. eigenvalues --    4.57294   4.57475   4.57913   4.59376   4.59583
 Alpha virt. eigenvalues --    4.60924   4.62389   4.63100   4.63522   4.64727
 Alpha virt. eigenvalues --    4.66434   4.68252   4.69980   4.70770   4.72827
 Alpha virt. eigenvalues --    4.73644   4.77188   4.79815   4.80538   4.83153
 Alpha virt. eigenvalues --    4.83277   4.85144   4.88029   4.88147   4.91163
 Alpha virt. eigenvalues --    4.91686   4.92141   4.94673   4.94877   4.96199
 Alpha virt. eigenvalues --    4.97654   5.02867   5.03638   5.04258   5.04855
 Alpha virt. eigenvalues --    5.06205   5.06581   5.09681   5.12255   5.14230
 Alpha virt. eigenvalues --    5.15291   5.18257   5.20941   5.21534   5.22734
 Alpha virt. eigenvalues --    5.24311   5.27555   5.31109   5.31977   5.34045
 Alpha virt. eigenvalues --    5.35983   5.36068   5.37569   5.42682   5.44016
 Alpha virt. eigenvalues --    5.48181   5.48695   5.49974   5.51735   5.53059
 Alpha virt. eigenvalues --    5.57863   5.58556   5.67395   5.69564   5.71434
 Alpha virt. eigenvalues --    5.74897   5.76695   5.80152   5.80510   5.92431
 Alpha virt. eigenvalues --    5.98674   6.00514   6.05120   6.21663   6.34336
 Alpha virt. eigenvalues --    6.39074   6.53445   6.70179   6.84763   6.90659
 Alpha virt. eigenvalues --    6.92147   6.94752   6.95054   6.95176   6.95404
 Alpha virt. eigenvalues --    6.95549   6.95817   6.96184   6.96882   7.07161
 Alpha virt. eigenvalues --    7.07934   7.09485   7.13835   7.15386   7.16096
 Alpha virt. eigenvalues --    7.19274   7.27965   7.31899   7.32995   7.35697
 Alpha virt. eigenvalues --    7.45849   7.46067   7.47471   8.46673   8.48298
 Alpha virt. eigenvalues --    8.49016   8.62444   8.63659   8.69349   8.89084
 Alpha virt. eigenvalues --    8.90826   8.93319   8.96843   8.99840   9.00386
 Alpha virt. eigenvalues --    9.01959   9.08592   9.10331  15.63296  22.23269
 Alpha virt. eigenvalues --   22.30477  22.36234  22.42834  22.49091  22.64567
 Alpha virt. eigenvalues --   22.65236  22.66757  22.68098  22.71708  22.73668
 Alpha virt. eigenvalues --   22.74348  22.77159  22.80000  22.84475  22.85656
 Alpha virt. eigenvalues --   22.95084  22.97764  23.01096  23.05319  23.13692
 Alpha virt. eigenvalues --   23.22283  23.33978  23.37733  23.44370  23.77995
 Alpha virt. eigenvalues --   33.32991  44.21210  57.01804  57.11848  57.19413
          Condensed to atoms (all electrons):
 Mulliken charges:
               1
     1  C   -0.083141
     2  C   -0.140293
     3  C    0.210315
     4  C   -0.019912
     5  C   -0.095839
     6  C   -0.139780
     7  C    0.286161
     8  C   -0.008007
     9  C    0.207145
    10  C   -0.138572
    11  H    0.181022
    12  C   -0.084170
    13  C   -0.134529
    14  C   -0.106587
    15  H    0.146559
    16  H    0.181215
    17  H    0.205964
    18  H    0.136897
    19  H    0.146588
    20  H    0.137015
    21  H    0.201330
    22  N    0.041202
    23  C   -0.185796
    24  C   -0.311546
    25  C   -0.206440
    26  C   -0.042200
    27  C   -0.117721
    28  C   -0.190500
    29  H    0.120352
    30  H    0.144593
    31  C   -0.092206
    32  C   -0.276398
    33  C   -0.246600
    34  C   -0.149016
    35  H    0.149384
    36  C   -0.108415
    37  H    0.144332
    38  C    0.447379
    39  H    0.161494
    40  H    0.139202
    41  O   -0.383533
    42  C   -0.139670
    43  H    0.136428
    44  H    0.125917
    45  H    0.125703
    46  H    0.150556
    47  H    0.121474
    48  B    0.597452
    49  F   -0.413727
    50  F   -0.413476
    51  F   -0.417605
 Sum of Mulliken charges =  -0.00000
 Mulliken charges with hydrogens summed into heavy atoms:
               1
     1  C    0.063418
     2  C    0.040922
     3  C    0.210315
     4  C   -0.019912
     5  C    0.110125
     6  C   -0.002883
     7  C    0.286161
     8  C   -0.008007
     9  C    0.207145
    10  C    0.042450
    12  C    0.062418
    13  C    0.002486
    14  C    0.094743
    22  N    0.041202
    23  C   -0.185796
    24  C   -0.160990
    25  C   -0.061846
    26  C   -0.042200
    27  C    0.002631
    28  C   -0.069026
    31  C   -0.092206
    32  C   -0.127014
    33  C   -0.102268
    34  C    0.012478
    36  C    0.030788
    38  C    0.447379
    41  O   -0.383533
    42  C    0.248378
    48  B    0.597452
    49  F   -0.413727
    50  F   -0.413476
    51  F   -0.417605
 Electronic spatial extent (au):  <R**2>=          17298.4665
 Charge=             -0.0000 electrons
 Dipole moment (field-independent basis, Debye):
    X=             31.9535    Y=              4.0688    Z=             -6.3935  Tot=             32.8398
 Quadrupole moment (field-independent basis, Debye-Ang):
   XX=           -282.3080   YY=           -155.3267   ZZ=           -184.1773
   XY=            -25.1993   XZ=             56.9597   YZ=              5.7566
 Traceless Quadrupole moment (field-independent basis, Debye-Ang):
   XX=            -75.0374   YY=             51.9440   ZZ=             23.0933
   XY=            -25.1993   XZ=             56.9597   YZ=              5.7566
 Octapole moment (field-independent basis, Debye-Ang**2):
  XXX=           1191.4357  YYY=             14.4463  ZZZ=              2.1331  XYY=             39.8682
  XXY=            103.6282  XXZ=           -125.4418  XZZ=            103.1081  YZZ=              0.3950
  YYZ=            -11.7563  XYZ=            -25.7798
 Hexadecapole moment (field-independent basis, Debye-Ang**3):
 XXXX=         -21165.5653 YYYY=          -2725.2208 ZZZZ=          -1392.4947 XXXY=           -995.7652
 XXXZ=           2202.0972 YYYX=             29.2284 YYYZ=            144.8654 ZZZX=            102.7296
 ZZZY=            -61.3158 XXYY=          -3631.3754 XXZZ=          -3243.2521 YYZZ=           -811.4148
 XXYZ=              8.1700 YYXZ=             60.0121 ZZXY=            -55.2126
 N-N= 2.981112724855D+03 E-N=-9.364378573150D+03  KE= 1.449963425386D+03
 Leave Link  601 at Sat Feb 20 10:54:29 2021, MaxMem=  5242880000 cpu:        11.9
 (Enter /opt/nce/packages/global/g09/l9999.exe)
 1\1\GINC-CN019\SP\RM06 TD-FC\Gen\C26H19B1F3N1O1\PNG4RJV\20-Feb-2021\0\
 \#p m06 chkbasis geom=allcheck Guess=Read int=ultrafine scrf=(SMD,solv
 ent=Acetonitrile) td=(NStates=30)\\Title\\0,1\C,0,0.7711728463,3.30304
 01562,1.1275124086\C,0,1.5481519068,2.2410559007,0.7644858795\C,0,0.95
 85771242,0.984944175,0.5387602402\C,0,-0.4486015464,0.8341712337,0.673
 9189862\C,0,-1.2081559067,1.9624593057,1.0752122432\C,0,-0.6174296304,
 3.1670826737,1.2944815098\C,0,-1.039250114,-0.4182550129,0.4400539648\
 C,0,-0.2252400256,-1.5044477761,0.079756429\C,0,1.1811336533,-1.325518
 0466,-0.0258805373\C,0,1.9965139288,-2.4178825291,-0.3704745124\H,0,3.
 0678737984,-2.2914334278,-0.4407455906\C,0,1.4338314403,-3.6360338756,
 -0.6207531527\C,0,0.042935216,-3.8247324151,-0.552588338\C,0,-0.762521
 4366,-2.7838445239,-0.2123322628\H,0,1.2398872461,4.2650458497,1.29828
 7646\H,0,2.6162635705,2.3646985641,0.65267398\H,0,-2.2751389643,1.8465
 058899,1.2121634551\H,0,-1.2107580647,4.0190646327,1.6016686506\H,0,2.
 0748749179,-4.4683459799,-0.886355513\H,0,-0.3824637502,-4.7949073737,
 -0.7763790301\H,0,-1.8352988522,-2.9175406717,-0.1686392583\N,0,1.7250
 636262,-0.0936560444,0.2010052308\C,0,-2.4971565748,-0.5912833058,0.57
 56156862\C,0,-3.3678500931,0.0388575965,-0.3085246717\C,0,-3.014362022
 9,-1.3839385733,1.5968687199\C,0,-4.7501381317,-0.1027705059,-0.210303
 7399\C,0,-4.3840813876,-1.5229552325,1.7248465366\C,0,-5.2356483855,-0
 .892412442,0.8296275634\H,0,-4.7879139291,-2.128322824,2.529084458\H,0
 ,-2.3410785649,-1.875509602,2.2914009594\C,0,3.1550368842,0.0723377342
 ,0.087363398\C,0,3.708171296,0.400572662,-1.1318370384\C,0,3.951626652
 2,-0.1006514783,1.2077576232\C,0,5.0792764338,0.5601155622,-1.24867218
 78\H,0,3.0654452555,0.5316177981,-1.9956563479\C,0,5.3149504722,0.0566
 091659,1.098735234\H,0,3.4961496156,-0.3570195969,2.15811324\C,0,5.888
 9884877,0.3870914119,-0.129888647\H,0,5.503793356,0.8176159796,-2.2096
 60563\H,0,5.9613859289,-0.0727909561,1.9588161967\O,0,7.2248610151,0.5
 175124112,-0.1377665515\C,0,7.8593273747,0.8465081074,-1.3564867361\H,
 0,8.9257574312,0.8996242243,-1.1448027116\H,0,7.6845484845,0.081117369
 6,-2.118858927\H,0,7.5222707987,1.8163339819,-1.735294918\H,0,-2.94695
 10038,0.6537607045,-1.101216726\H,0,-6.3080796666,-1.0175553678,0.9460
 910073\B,0,-5.7173148682,0.6117981623,-1.2923372993\F,0,-5.3011351614,
 1.9375091346,-1.5466583832\F,0,-7.0538875916,0.6487117073,-0.850357098
 5\F,0,-5.6856720888,-0.0846525337,-2.5244345043\\Version=ES64L-G09RevE
 .01\State=1-A\HF=-1456.3621114\RMSD=4.886e-09\PG=C01 [X(C26H19B1F3N1O1
 )]\\@


 I (ERNEST RUTHERFORD) CAME INTO THE ROOM, WHICH WAS HALF DARK, AND PRESENTLY
 SPOTTED LORD KELVIN IN THE AUDIENCE AND REALIZED I WAS IN TROUBLE AT
 THE LAST PART OF MY SPEECH DEALING THE AGE OF THE EARTH, WHERE MY VIEWS
 CONFLICTED WITH HIS.  TO MY RELIEF KELVIN FELL FAST ASLEEP, BUT AS I CAME
 TO THE IMPORTANT POINT, I SAW THE OLD BIRD SIT UP AND COCK A BALEFUL GLANCE
 AT ME! THEN A SUDDEN INSPIRATION CAME AND I SAID LORD KELVIN HAD LIMITED
 THE AGE OF THE EARTH PROVIDED NO NEW SOURCE WAS DISCOVERED. THAT
 PROPHETIC UTTERANCE REFERS TO WHAT WE ARE NOW CONSIDERING TONIGHT, RADIUM!
 BEHOLD!  THE OLD BOY BEAMED UPON ME.
 Job cpu time:       2 days 22 hours 48 minutes 51.9 seconds.
 File lengths (MBytes):  RWF=   6131 Int=      0 D2E=      0 Chk=   1099 Scr=      1
 Normal termination of Gaussian 09 at Sat Feb 20 10:54:31 2021.
