 Entering Gaussian System, Link 0=g09
 Input=/home/png4rjv/fotokatalizis/benchmark/OPCs/BF3-Acr_m_PBE-D3_def2TZVP.gjf
 Output=/home/png4rjv/fotokatalizis/benchmark/OPCs/BF3-Acr_m_PBE-D3_def2TZVP.log
 Initial command:
 /opt/nce/packages/global/g09/l1.exe "/home/png4rjv/fotokatalizis/benchmark/OPCs/BF3-Acr_m_PBE-D3_def2TZVP/Gau-65092.inp" -scrdir="/home/png4rjv/fotokatalizis/benchmark/OPCs/BF3-Acr_m_PBE-D3_def2TZVP/"
 Default is to use a total of  12 processors:
                               12 via shared-memory
                                1 via Linda
 Entering Link 1 = /opt/nce/packages/global/g09/l1.exe PID=     65093.
  
 Copyright (c) 1988,1990,1992,1993,1995,1998,2003,2009,2015,
            Gaussian, Inc.  All Rights Reserved.
  
 This is part of the Gaussian(R) 09 program.  It is based on
 the Gaussian(R) 03 system (copyright 2003, Gaussian, Inc.),
 the Gaussian(R) 98 system (copyright 1998, Gaussian, Inc.),
 the Gaussian(R) 94 system (copyright 1995, Gaussian, Inc.),
 the Gaussian 92(TM) system (copyright 1992, Gaussian, Inc.),
 the Gaussian 90(TM) system (copyright 1990, Gaussian, Inc.),
 the Gaussian 88(TM) system (copyright 1988, Gaussian, Inc.),
 the Gaussian 86(TM) system (copyright 1986, Carnegie Mellon
 University), and the Gaussian 82(TM) system (copyright 1983,
 Carnegie Mellon University). Gaussian is a federally registered
 trademark of Gaussian, Inc.
  
 This software contains proprietary and confidential information,
 including trade secrets, belonging to Gaussian, Inc.
  
 This software is provided under written license and may be
 used, copied, transmitted, or stored only in accord with that
 written license.
  
 The following legend is applicable only to US Government
 contracts under FAR:
  
                    RESTRICTED RIGHTS LEGEND
  
 Use, reproduction and disclosure by the US Government is
 subject to restrictions as set forth in subparagraphs (a)
 and (c) of the Commercial Computer Software - Restricted
 Rights clause in FAR 52.227-19.
  
 Gaussian, Inc.
 340 Quinnipiac St., Bldg. 40, Wallingford CT 06492
  
  
 ---------------------------------------------------------------
 Warning -- This program may not be used in any manner that
 competes with the business of Gaussian, Inc. or will provide
 assistance to any competitor of Gaussian, Inc.  The licensee
 of this program is prohibited from giving any competitor of
 Gaussian, Inc. access to this program.  By using this program,
 the user acknowledges that Gaussian, Inc. is engaged in the
 business of creating and licensing software in the field of
 computational chemistry and represents and warrants to the
 licensee that it is not a competitor of Gaussian, Inc. and that
 it will not use this program in any manner prohibited above.
 ---------------------------------------------------------------
  

 Cite this work as:
 Gaussian 09, Revision E.01,
 M. J. Frisch, G. W. Trucks, H. B. Schlegel, G. E. Scuseria, 
 M. A. Robb, J. R. Cheeseman, G. Scalmani, V. Barone, B. Mennucci, 
 G. A. Petersson, H. Nakatsuji, M. Caricato, X. Li, H. P. Hratchian, 
 A. F. Izmaylov, J. Bloino, G. Zheng, J. L. Sonnenberg, M. Hada, 
 M. Ehara, K. Toyota, R. Fukuda, J. Hasegawa, M. Ishida, T. Nakajima, 
 Y. Honda, O. Kitao, H. Nakai, T. Vreven, J. A. Montgomery, Jr., 
 J. E. Peralta, F. Ogliaro, M. Bearpark, J. J. Heyd, E. Brothers, 
 K. N. Kudin, V. N. Staroverov, T. Keith, R. Kobayashi, J. Normand, 
 K. Raghavachari, A. Rendell, J. C. Burant, S. S. Iyengar, J. Tomasi, 
 M. Cossi, N. Rega, J. M. Millam, M. Klene, J. E. Knox, J. B. Cross, 
 V. Bakken, C. Adamo, J. Jaramillo, R. Gomperts, R. E. Stratmann, 
 O. Yazyev, A. J. Austin, R. Cammi, C. Pomelli, J. W. Ochterski, 
 R. L. Martin, K. Morokuma, V. G. Zakrzewski, G. A. Voth, 
 P. Salvador, J. J. Dannenberg, S. Dapprich, A. D. Daniels, 
 O. Farkas, J. B. Foresman, J. V. Ortiz, J. Cioslowski, 
 and D. J. Fox, Gaussian, Inc., Wallingford CT, 2013.
 
 ******************************************
 Gaussian 09:  ES64L-G09RevE.01 30-Nov-2015
                26-Mar-2021 
 ******************************************
 %chk=cp.chk
 Default route:  MaxDisk=500GB
 ----------------------------------------------------------------------
 #p PBEPBE/def2TZVP opt freq=noraman nosymm int=ultrafine scrf=(SMD,sol
 vent=Acetonitrile) EmpiricalDispersion=GD3BJ
 ----------------------------------------------------------------------
 1/14=-1,18=20,19=15,26=4,38=1/1,3;
 2/9=110,12=2,15=1,17=6,18=5,40=1/2;
 3/5=44,7=101,11=2,16=1,25=1,30=1,70=32201,71=1,72=2,74=1009,75=-5,124=41/1,2,3;
 4//1;
 5/5=2,38=5,53=2/2;
 6/7=2,8=2,9=2,10=2,28=1/1;
 7/30=1/1,2,3,16;
 1/14=-1,18=20,19=15,26=4/3(2);
 2/9=110,15=1/2;
 99//99;
 2/9=110,15=1/2;
 3/5=44,7=101,11=2,16=1,25=1,30=1,70=32205,71=1,72=2,74=1009,75=-5,124=41/1,2,3;
 4/5=5,16=3,69=1/1;
 5/5=2,38=5,53=2/2;
 7/30=1/1,2,3,16;
 1/14=-1,18=20,19=15,26=4/3(-5);
 2/9=110,15=1/2;
 6/7=2,8=2,9=2,10=2,19=2,28=1/1;
 99/9=1/99;
 Leave Link    1 at Fri Mar 26 23:18:51 2021, MaxMem=           0 cpu:         1.7
 (Enter /opt/nce/packages/global/g09/l101.exe)
 -----
 Title
 -----
 Symbolic Z-matrix:
 Charge =  0 Multiplicity = 1
 C                     0.68709   3.33347   0.92038 
 C                     1.49332   2.25239   0.61986 
 C                     0.92323   0.96694   0.46462 
 C                    -0.49285   0.7938    0.59548 
 C                    -1.27597   1.93268   0.95258 
 C                    -0.70378   3.17593   1.10138 
 C                    -1.07366  -0.50071   0.41361 
 C                    -0.20574  -1.59568   0.10858 
 C                     1.20914  -1.39253   0.03727 
 C                     2.06461  -2.48873  -0.23013 
 H                     3.1413   -2.33713  -0.26159 
 C                     1.53081  -3.74137  -0.46159 
 C                     0.1339   -3.94787  -0.46277 
 C                    -0.71113  -2.8952   -0.19165 
 H                     1.14132   4.32034   1.03492 
 H                     2.5668    2.38441   0.50473 
 H                    -2.346     1.80515   1.10343 
 H                    -1.32508   4.03317   1.36511 
 H                     2.20355  -4.57629  -0.67055 
 H                    -0.27417  -4.93306  -0.69469 
 H                    -1.79027  -3.03343  -0.22043 
 N                     1.72829  -0.12578   0.20683 
 C                    -2.51509  -0.69074   0.52444 
 C                    -3.39296   0.12888  -0.22075 
 C                    -3.05747  -1.67435   1.38585 
 C                    -4.78056   0.00704  -0.13377 
 C                    -4.43919  -1.78821   1.50439 
 C                    -5.28484  -0.95394   0.75858 
 H                    -4.86046  -2.51551   2.20383 
 H                    -2.39521  -2.28944   1.99912 
 C                     3.15423   0.06604   0.09787 
 C                     3.72366   0.34062  -1.14323 
 C                     3.95908  -0.02301   1.23979 
 C                     5.10298   0.5294   -1.25869 
 H                     3.08536   0.40901  -2.0263 
 C                     5.33095   0.16262   1.13385 
 H                     3.502    -0.23737   2.2077 
 C                     5.91708   0.44108  -0.11645 
 H                     5.52903   0.74414  -2.23764 
 H                     5.98117   0.099     2.00756 
 O                     7.25345   0.60627  -0.1196 
 C                     7.91561   0.89268  -1.33572 
 H                     8.98179   0.98513  -1.09415 
 H                     7.78122   0.08075  -2.07152 
 H                     7.56166   1.8409   -1.77643 
 H                    -2.98529   0.87202  -0.90995 
 H                    -6.36902  -1.02738   0.87891 
 B                    -5.74235   0.99749  -1.03384 
 F                    -5.06665   2.22958  -1.1752 
 F                    -6.9601    1.17254  -0.36162 
 F                    -5.95306   0.42355  -2.29503 
 
 NAtoms=     51 NQM=       51 NQMF=       0 NMMI=      0 NMMIF=      0
                NMic=       0 NMicF=      0.
                    Isotopes and Nuclear Properties:
 (Nuclear quadrupole moments (NQMom) in fm**2, nuclear magnetic moments (NMagM)
  in nuclear magnetons)

  Atom         1           2           3           4           5           6           7           8           9          10
 IAtWgt=          12          12          12          12          12          12          12          12          12          12
 AtmWgt=  12.0000000  12.0000000  12.0000000  12.0000000  12.0000000  12.0000000  12.0000000  12.0000000  12.0000000  12.0000000
 NucSpn=           0           0           0           0           0           0           0           0           0           0
 AtZEff=   0.0000000   0.0000000   0.0000000   0.0000000   0.0000000   0.0000000   0.0000000   0.0000000   0.0000000   0.0000000
 NQMom=    0.0000000   0.0000000   0.0000000   0.0000000   0.0000000   0.0000000   0.0000000   0.0000000   0.0000000   0.0000000
 NMagM=    0.0000000   0.0000000   0.0000000   0.0000000   0.0000000   0.0000000   0.0000000   0.0000000   0.0000000   0.0000000
 AtZNuc=   6.0000000   6.0000000   6.0000000   6.0000000   6.0000000   6.0000000   6.0000000   6.0000000   6.0000000   6.0000000

  Atom        11          12          13          14          15          16          17          18          19          20
 IAtWgt=           1          12          12          12           1           1           1           1           1           1
 AtmWgt=   1.0078250  12.0000000  12.0000000  12.0000000   1.0078250   1.0078250   1.0078250   1.0078250   1.0078250   1.0078250
 NucSpn=           1           0           0           0           1           1           1           1           1           1
 AtZEff=   0.0000000   0.0000000   0.0000000   0.0000000   0.0000000   0.0000000   0.0000000   0.0000000   0.0000000   0.0000000
 NQMom=    0.0000000   0.0000000   0.0000000   0.0000000   0.0000000   0.0000000   0.0000000   0.0000000   0.0000000   0.0000000
 NMagM=    2.7928460   0.0000000   0.0000000   0.0000000   2.7928460   2.7928460   2.7928460   2.7928460   2.7928460   2.7928460
 AtZNuc=   1.0000000   6.0000000   6.0000000   6.0000000   1.0000000   1.0000000   1.0000000   1.0000000   1.0000000   1.0000000

  Atom        21          22          23          24          25          26          27          28          29          30
 IAtWgt=           1          14          12          12          12          12          12          12           1           1
 AtmWgt=   1.0078250  14.0030740  12.0000000  12.0000000  12.0000000  12.0000000  12.0000000  12.0000000   1.0078250   1.0078250
 NucSpn=           1           2           0           0           0           0           0           0           1           1
 AtZEff=   0.0000000   0.0000000   0.0000000   0.0000000   0.0000000   0.0000000   0.0000000   0.0000000   0.0000000   0.0000000
 NQMom=    0.0000000   2.0440000   0.0000000   0.0000000   0.0000000   0.0000000   0.0000000   0.0000000   0.0000000   0.0000000
 NMagM=    2.7928460   0.4037610   0.0000000   0.0000000   0.0000000   0.0000000   0.0000000   0.0000000   2.7928460   2.7928460
 AtZNuc=   1.0000000   7.0000000   6.0000000   6.0000000   6.0000000   6.0000000   6.0000000   6.0000000   1.0000000   1.0000000

  Atom        31          32          33          34          35          36          37          38          39          40
 IAtWgt=          12          12          12          12           1          12           1          12           1           1
 AtmWgt=  12.0000000  12.0000000  12.0000000  12.0000000   1.0078250  12.0000000   1.0078250  12.0000000   1.0078250   1.0078250
 NucSpn=           0           0           0           0           1           0           1           0           1           1
 AtZEff=   0.0000000   0.0000000   0.0000000   0.0000000   0.0000000   0.0000000   0.0000000   0.0000000   0.0000000   0.0000000
 NQMom=    0.0000000   0.0000000   0.0000000   0.0000000   0.0000000   0.0000000   0.0000000   0.0000000   0.0000000   0.0000000
 NMagM=    0.0000000   0.0000000   0.0000000   0.0000000   2.7928460   0.0000000   2.7928460   0.0000000   2.7928460   2.7928460
 AtZNuc=   6.0000000   6.0000000   6.0000000   6.0000000   1.0000000   6.0000000   1.0000000   6.0000000   1.0000000   1.0000000

  Atom        41          42          43          44          45          46          47          48          49          50
 IAtWgt=          16          12           1           1           1           1           1          11          19          19
 AtmWgt=  15.9949146  12.0000000   1.0078250   1.0078250   1.0078250   1.0078250   1.0078250  11.0093053  18.9984033  18.9984033
 NucSpn=           0           0           1           1           1           1           1           3           1           1
 AtZEff=   0.0000000   0.0000000   0.0000000   0.0000000   0.0000000   0.0000000   0.0000000   0.0000000   0.0000000   0.0000000
 NQMom=    0.0000000   0.0000000   0.0000000   0.0000000   0.0000000   0.0000000   0.0000000   4.0590000   0.0000000   0.0000000
 NMagM=    0.0000000   0.0000000   2.7928460   2.7928460   2.7928460   2.7928460   2.7928460   2.6886370   2.6288670   2.6288670
 AtZNuc=   8.0000000   6.0000000   1.0000000   1.0000000   1.0000000   1.0000000   1.0000000   5.0000000   9.0000000   9.0000000

  Atom        51
 IAtWgt=          19
 AtmWgt=  18.9984033
 NucSpn=           1
 AtZEff=   0.0000000
 NQMom=    0.0000000
 NMagM=    2.6288670
 AtZNuc=   9.0000000
 Leave Link  101 at Fri Mar 26 23:18:51 2021, MaxMem=  5242880000 cpu:         4.5
 (Enter /opt/nce/packages/global/g09/l103.exe)

 GradGradGradGradGradGradGradGradGradGradGradGradGradGradGradGradGradGrad
 Berny optimization.
 Initialization pass.
                           ----------------------------
                           !    Initial Parameters    !
                           ! (Angstroms and Degrees)  !
 --------------------------                            --------------------------
 ! Name  Definition              Value          Derivative Info.                !
 --------------------------------------------------------------------------------
 ! R1    R(1,2)                  1.3817         estimate D2E/DX2                !
 ! R2    R(1,6)                  1.4114         estimate D2E/DX2                !
 ! R3    R(1,15)                 1.0924         estimate D2E/DX2                !
 ! R4    R(2,3)                  1.4147         estimate D2E/DX2                !
 ! R5    R(2,16)                 1.0877         estimate D2E/DX2                !
 ! R6    R(3,4)                  1.4326         estimate D2E/DX2                !
 ! R7    R(3,22)                 1.3815         estimate D2E/DX2                !
 ! R8    R(4,5)                  1.4275         estimate D2E/DX2                !
 ! R9    R(4,7)                  1.4304         estimate D2E/DX2                !
 ! R10   R(5,6)                  1.3767         estimate D2E/DX2                !
 ! R11   R(5,17)                 1.0881         estimate D2E/DX2                !
 ! R12   R(6,18)                 1.0911         estimate D2E/DX2                !
 ! R13   R(7,8)                  1.4301         estimate D2E/DX2                !
 ! R14   R(7,23)                 1.4581         estimate D2E/DX2                !
 ! R15   R(8,9)                  1.4312         estimate D2E/DX2                !
 ! R16   R(8,14)                 1.4263         estimate D2E/DX2                !
 ! R17   R(9,10)                 1.416          estimate D2E/DX2                !
 ! R18   R(9,22)                 1.3795         estimate D2E/DX2                !
 ! R19   R(10,11)                1.0878         estimate D2E/DX2                !
 ! R20   R(10,12)                1.3812         estimate D2E/DX2                !
 ! R21   R(12,13)                1.4121         estimate D2E/DX2                !
 ! R22   R(12,19)                1.0924         estimate D2E/DX2                !
 ! R23   R(13,14)                1.3768         estimate D2E/DX2                !
 ! R24   R(13,20)                1.0913         estimate D2E/DX2                !
 ! R25   R(14,21)                1.0883         estimate D2E/DX2                !
 ! R26   R(22,31)                1.4429         estimate D2E/DX2                !
 ! R27   R(23,24)                1.4134         estimate D2E/DX2                !
 ! R28   R(23,25)                1.4155         estimate D2E/DX2                !
 ! R29   R(24,26)                1.3957         estimate D2E/DX2                !
 ! R30   R(24,46)                1.0925         estimate D2E/DX2                !
 ! R31   R(25,27)                1.3915         estimate D2E/DX2                !
 ! R32   R(25,30)                1.0923         estimate D2E/DX2                !
 ! R33   R(26,28)                1.405          estimate D2E/DX2                !
 ! R34   R(26,48)                1.6481         estimate D2E/DX2                !
 ! R35   R(27,28)                1.4026         estimate D2E/DX2                !
 ! R36   R(27,29)                1.0935         estimate D2E/DX2                !
 ! R37   R(28,47)                1.0933         estimate D2E/DX2                !
 ! R38   R(31,32)                1.3928         estimate D2E/DX2                !
 ! R39   R(31,33)                1.3999         estimate D2E/DX2                !
 ! R40   R(32,34)                1.397          estimate D2E/DX2                !
 ! R41   R(32,35)                1.0918         estimate D2E/DX2                !
 ! R42   R(33,36)                1.3884         estimate D2E/DX2                !
 ! R43   R(33,37)                1.0917         estimate D2E/DX2                !
 ! R44   R(34,38)                1.4054         estimate D2E/DX2                !
 ! R45   R(34,39)                1.089          estimate D2E/DX2                !
 ! R46   R(36,38)                1.4087         estimate D2E/DX2                !
 ! R47   R(36,40)                1.091          estimate D2E/DX2                !
 ! R48   R(38,41)                1.3465         estimate D2E/DX2                !
 ! R49   R(41,42)                1.414          estimate D2E/DX2                !
 ! R50   R(42,43)                1.0971         estimate D2E/DX2                !
 ! R51   R(42,44)                1.104          estimate D2E/DX2                !
 ! R52   R(42,45)                1.1039         estimate D2E/DX2                !
 ! R53   R(48,49)                1.4123         estimate D2E/DX2                !
 ! R54   R(48,50)                1.4019         estimate D2E/DX2                !
 ! R55   R(48,51)                1.4016         estimate D2E/DX2                !
 ! A1    A(2,1,6)              121.0361         estimate D2E/DX2                !
 ! A2    A(2,1,15)             119.145          estimate D2E/DX2                !
 ! A3    A(6,1,15)             119.8109         estimate D2E/DX2                !
 ! A4    A(1,2,3)              119.978          estimate D2E/DX2                !
 ! A5    A(1,2,16)             120.261          estimate D2E/DX2                !
 ! A6    A(3,2,16)             119.7607         estimate D2E/DX2                !
 ! A7    A(2,3,4)              119.874          estimate D2E/DX2                !
 ! A8    A(2,3,22)             120.2865         estimate D2E/DX2                !
 ! A9    A(4,3,22)             119.8326         estimate D2E/DX2                !
 ! A10   A(3,4,5)              117.949          estimate D2E/DX2                !
 ! A11   A(3,4,7)              119.9405         estimate D2E/DX2                !
 ! A12   A(5,4,7)              122.0762         estimate D2E/DX2                !
 ! A13   A(4,5,6)              121.2996         estimate D2E/DX2                !
 ! A14   A(4,5,17)             118.7272         estimate D2E/DX2                !
 ! A15   A(6,5,17)             119.9726         estimate D2E/DX2                !
 ! A16   A(1,6,5)              119.7699         estimate D2E/DX2                !
 ! A17   A(1,6,18)             120.2957         estimate D2E/DX2                !
 ! A18   A(5,6,18)             119.933          estimate D2E/DX2                !
 ! A19   A(4,7,8)              118.2673         estimate D2E/DX2                !
 ! A20   A(4,7,23)             120.6413         estimate D2E/DX2                !
 ! A21   A(8,7,23)             121.0887         estimate D2E/DX2                !
 ! A22   A(7,8,9)              120.1271         estimate D2E/DX2                !
 ! A23   A(7,8,14)             121.8329         estimate D2E/DX2                !
 ! A24   A(9,8,14)             117.979          estimate D2E/DX2                !
 ! A25   A(8,9,10)             119.7881         estimate D2E/DX2                !
 ! A26   A(8,9,22)             119.7546         estimate D2E/DX2                !
 ! A27   A(10,9,22)            120.4479         estimate D2E/DX2                !
 ! A28   A(9,10,11)            119.7069         estimate D2E/DX2                !
 ! A29   A(9,10,12)            120.0186         estimate D2E/DX2                !
 ! A30   A(11,10,12)           120.2719         estimate D2E/DX2                !
 ! A31   A(10,12,13)           121.0038         estimate D2E/DX2                !
 ! A32   A(10,12,19)           119.1584         estimate D2E/DX2                !
 ! A33   A(13,12,19)           119.8206         estimate D2E/DX2                !
 ! A34   A(12,13,14)           119.6811         estimate D2E/DX2                !
 ! A35   A(12,13,20)           120.1395         estimate D2E/DX2                !
 ! A36   A(14,13,20)           120.1707         estimate D2E/DX2                !
 ! A37   A(8,14,13)            121.3711         estimate D2E/DX2                !
 ! A38   A(8,14,21)            118.2053         estimate D2E/DX2                !
 ! A39   A(13,14,21)           120.4137         estimate D2E/DX2                !
 ! A40   A(3,22,9)             122.002          estimate D2E/DX2                !
 ! A41   A(3,22,31)            119.0011         estimate D2E/DX2                !
 ! A42   A(9,22,31)            118.9937         estimate D2E/DX2                !
 ! A43   A(7,23,24)            119.8902         estimate D2E/DX2                !
 ! A44   A(7,23,25)            121.0371         estimate D2E/DX2                !
 ! A45   A(24,23,25)           119.0658         estimate D2E/DX2                !
 ! A46   A(23,24,26)           122.278          estimate D2E/DX2                !
 ! A47   A(23,24,46)           119.6898         estimate D2E/DX2                !
 ! A48   A(26,24,46)           118.0167         estimate D2E/DX2                !
 ! A49   A(23,25,27)           119.2871         estimate D2E/DX2                !
 ! A50   A(23,25,30)           120.0448         estimate D2E/DX2                !
 ! A51   A(27,25,30)           120.5412         estimate D2E/DX2                !
 ! A52   A(24,26,28)           117.1384         estimate D2E/DX2                !
 ! A53   A(24,26,48)           119.5846         estimate D2E/DX2                !
 ! A54   A(28,26,48)           123.2606         estimate D2E/DX2                !
 ! A55   A(25,27,28)           120.3118         estimate D2E/DX2                !
 ! A56   A(25,27,29)           119.4386         estimate D2E/DX2                !
 ! A57   A(28,27,29)           120.2297         estimate D2E/DX2                !
 ! A58   A(26,28,27)           121.8795         estimate D2E/DX2                !
 ! A59   A(26,28,47)           118.1486         estimate D2E/DX2                !
 ! A60   A(27,28,47)           119.96           estimate D2E/DX2                !
 ! A61   A(22,31,32)           119.836          estimate D2E/DX2                !
 ! A62   A(22,31,33)           119.8757         estimate D2E/DX2                !
 ! A63   A(32,31,33)           120.2883         estimate D2E/DX2                !
 ! A64   A(31,32,34)           120.2618         estimate D2E/DX2                !
 ! A65   A(31,32,35)           119.6085         estimate D2E/DX2                !
 ! A66   A(34,32,35)           120.1297         estimate D2E/DX2                !
 ! A67   A(31,33,36)           119.824          estimate D2E/DX2                !
 ! A68   A(31,33,37)           119.6707         estimate D2E/DX2                !
 ! A69   A(36,33,37)           120.5053         estimate D2E/DX2                !
 ! A70   A(32,34,38)           119.7536         estimate D2E/DX2                !
 ! A71   A(32,34,39)           119.158          estimate D2E/DX2                !
 ! A72   A(38,34,39)           121.0884         estimate D2E/DX2                !
 ! A73   A(33,36,38)           120.3499         estimate D2E/DX2                !
 ! A74   A(33,36,40)           121.3322         estimate D2E/DX2                !
 ! A75   A(38,36,40)           118.3179         estimate D2E/DX2                !
 ! A76   A(34,38,36)           119.5224         estimate D2E/DX2                !
 ! A77   A(34,38,41)           124.4201         estimate D2E/DX2                !
 ! A78   A(36,38,41)           116.0575         estimate D2E/DX2                !
 ! A79   A(38,41,42)           119.4465         estimate D2E/DX2                !
 ! A80   A(41,42,43)           106.4265         estimate D2E/DX2                !
 ! A81   A(41,42,44)           111.5471         estimate D2E/DX2                !
 ! A82   A(41,42,45)           111.5427         estimate D2E/DX2                !
 ! A83   A(43,42,44)           109.0888         estimate D2E/DX2                !
 ! A84   A(43,42,45)           109.0932         estimate D2E/DX2                !
 ! A85   A(44,42,45)           109.0643         estimate D2E/DX2                !
 ! A86   A(26,48,49)           107.4423         estimate D2E/DX2                !
 ! A87   A(26,48,50)           108.6677         estimate D2E/DX2                !
 ! A88   A(26,48,51)           109.4554         estimate D2E/DX2                !
 ! A89   A(49,48,50)           110.7708         estimate D2E/DX2                !
 ! A90   A(49,48,51)           109.8229         estimate D2E/DX2                !
 ! A91   A(50,48,51)           110.6105         estimate D2E/DX2                !
 ! D1    D(6,1,2,3)              1.1744         estimate D2E/DX2                !
 ! D2    D(6,1,2,16)          -178.641          estimate D2E/DX2                !
 ! D3    D(15,1,2,3)          -179.8564         estimate D2E/DX2                !
 ! D4    D(15,1,2,16)            0.3281         estimate D2E/DX2                !
 ! D5    D(2,1,6,5)             -1.2472         estimate D2E/DX2                !
 ! D6    D(2,1,6,18)           178.3312         estimate D2E/DX2                !
 ! D7    D(15,1,6,5)           179.7904         estimate D2E/DX2                !
 ! D8    D(15,1,6,18)           -0.6312         estimate D2E/DX2                !
 ! D9    D(1,2,3,4)              1.1382         estimate D2E/DX2                !
 ! D10   D(1,2,3,22)          -177.9053         estimate D2E/DX2                !
 ! D11   D(16,2,3,4)          -179.0454         estimate D2E/DX2                !
 ! D12   D(16,2,3,22)            1.9111         estimate D2E/DX2                !
 ! D13   D(2,3,4,5)             -3.2768         estimate D2E/DX2                !
 ! D14   D(2,3,4,7)            178.8092         estimate D2E/DX2                !
 ! D15   D(22,3,4,5)           175.771          estimate D2E/DX2                !
 ! D16   D(22,3,4,7)            -2.1429         estimate D2E/DX2                !
 ! D17   D(2,3,22,9)          -179.4023         estimate D2E/DX2                !
 ! D18   D(2,3,22,31)           -0.0586         estimate D2E/DX2                !
 ! D19   D(4,3,22,9)             1.5539         estimate D2E/DX2                !
 ! D20   D(4,3,22,31)         -179.1025         estimate D2E/DX2                !
 ! D21   D(3,4,5,6)              3.2501         estimate D2E/DX2                !
 ! D22   D(3,4,5,17)          -177.0235         estimate D2E/DX2                !
 ! D23   D(7,4,5,6)           -178.8833         estimate D2E/DX2                !
 ! D24   D(7,4,5,17)             0.8432         estimate D2E/DX2                !
 ! D25   D(3,4,7,8)              0.2843         estimate D2E/DX2                !
 ! D26   D(3,4,7,23)          -179.1214         estimate D2E/DX2                !
 ! D27   D(5,4,7,8)           -177.5409         estimate D2E/DX2                !
 ! D28   D(5,4,7,23)             3.0534         estimate D2E/DX2                !
 ! D29   D(4,5,6,1)             -1.0325         estimate D2E/DX2                !
 ! D30   D(4,5,6,18)           179.3876         estimate D2E/DX2                !
 ! D31   D(17,5,6,1)           179.2444         estimate D2E/DX2                !
 ! D32   D(17,5,6,18)           -0.3355         estimate D2E/DX2                !
 ! D33   D(4,7,8,9)              2.1429         estimate D2E/DX2                !
 ! D34   D(4,7,8,14)          -174.9602         estimate D2E/DX2                !
 ! D35   D(23,7,8,9)          -178.4542         estimate D2E/DX2                !
 ! D36   D(23,7,8,14)            4.4427         estimate D2E/DX2                !
 ! D37   D(4,7,23,24)           51.9706         estimate D2E/DX2                !
 ! D38   D(4,7,23,25)         -127.0601         estimate D2E/DX2                !
 ! D39   D(8,7,23,24)         -127.4182         estimate D2E/DX2                !
 ! D40   D(8,7,23,25)           53.5511         estimate D2E/DX2                !
 ! D41   D(7,8,9,10)           178.3234         estimate D2E/DX2                !
 ! D42   D(7,8,9,22)            -2.7847         estimate D2E/DX2                !
 ! D43   D(14,8,9,10)           -4.4635         estimate D2E/DX2                !
 ! D44   D(14,8,9,22)          174.4285         estimate D2E/DX2                !
 ! D45   D(7,8,14,13)         -178.9335         estimate D2E/DX2                !
 ! D46   D(7,8,14,21)            2.2093         estimate D2E/DX2                !
 ! D47   D(9,8,14,13)            3.9036         estimate D2E/DX2                !
 ! D48   D(9,8,14,21)         -174.9535         estimate D2E/DX2                !
 ! D49   D(8,9,10,11)         -178.6105         estimate D2E/DX2                !
 ! D50   D(8,9,10,12)            1.9739         estimate D2E/DX2                !
 ! D51   D(22,9,10,11)           2.5054         estimate D2E/DX2                !
 ! D52   D(22,9,10,12)        -176.9103         estimate D2E/DX2                !
 ! D53   D(8,9,22,3)             0.9065         estimate D2E/DX2                !
 ! D54   D(8,9,22,31)         -178.4372         estimate D2E/DX2                !
 ! D55   D(10,9,22,3)          179.791          estimate D2E/DX2                !
 ! D56   D(10,9,22,31)           0.4473         estimate D2E/DX2                !
 ! D57   D(9,10,12,13)           1.2593         estimate D2E/DX2                !
 ! D58   D(9,10,12,19)         179.7501         estimate D2E/DX2                !
 ! D59   D(11,10,12,13)       -178.153          estimate D2E/DX2                !
 ! D60   D(11,10,12,19)          0.3378         estimate D2E/DX2                !
 ! D61   D(10,12,13,14)         -1.8823         estimate D2E/DX2                !
 ! D62   D(10,12,13,20)        177.0486         estimate D2E/DX2                !
 ! D63   D(19,12,13,14)        179.6368         estimate D2E/DX2                !
 ! D64   D(19,12,13,20)         -1.4323         estimate D2E/DX2                !
 ! D65   D(12,13,14,8)          -0.7819         estimate D2E/DX2                !
 ! D66   D(12,13,14,21)        178.0503         estimate D2E/DX2                !
 ! D67   D(20,13,14,8)        -179.7124         estimate D2E/DX2                !
 ! D68   D(20,13,14,21)         -0.8803         estimate D2E/DX2                !
 ! D69   D(3,22,31,32)         -90.5564         estimate D2E/DX2                !
 ! D70   D(3,22,31,33)          89.3683         estimate D2E/DX2                !
 ! D71   D(9,22,31,32)          88.8072         estimate D2E/DX2                !
 ! D72   D(9,22,31,33)         -91.268          estimate D2E/DX2                !
 ! D73   D(7,23,24,26)        -178.7772         estimate D2E/DX2                !
 ! D74   D(7,23,24,46)           2.682          estimate D2E/DX2                !
 ! D75   D(25,23,24,26)          0.2725         estimate D2E/DX2                !
 ! D76   D(25,23,24,46)       -178.2682         estimate D2E/DX2                !
 ! D77   D(7,23,25,27)         177.4132         estimate D2E/DX2                !
 ! D78   D(7,23,25,30)           1.4854         estimate D2E/DX2                !
 ! D79   D(24,23,25,27)         -1.6253         estimate D2E/DX2                !
 ! D80   D(24,23,25,30)       -177.5531         estimate D2E/DX2                !
 ! D81   D(23,24,26,28)          1.4587         estimate D2E/DX2                !
 ! D82   D(23,24,26,48)       -179.9668         estimate D2E/DX2                !
 ! D83   D(46,24,26,28)       -179.9772         estimate D2E/DX2                !
 ! D84   D(46,24,26,48)         -1.4027         estimate D2E/DX2                !
 ! D85   D(23,25,27,28)          1.209          estimate D2E/DX2                !
 ! D86   D(23,25,27,29)       -177.1717         estimate D2E/DX2                !
 ! D87   D(30,25,27,28)        177.1161         estimate D2E/DX2                !
 ! D88   D(30,25,27,29)         -1.2646         estimate D2E/DX2                !
 ! D89   D(24,26,28,27)         -1.9026         estimate D2E/DX2                !
 ! D90   D(24,26,28,47)        176.8448         estimate D2E/DX2                !
 ! D91   D(48,26,28,27)        179.58           estimate D2E/DX2                !
 ! D92   D(48,26,28,47)         -1.6727         estimate D2E/DX2                !
 ! D93   D(24,26,48,49)        -31.6748         estimate D2E/DX2                !
 ! D94   D(24,26,48,50)       -151.5766         estimate D2E/DX2                !
 ! D95   D(24,26,48,51)         87.5325         estimate D2E/DX2                !
 ! D96   D(28,26,48,49)        146.8081         estimate D2E/DX2                !
 ! D97   D(28,26,48,50)         26.9063         estimate D2E/DX2                !
 ! D98   D(28,26,48,51)        -93.9846         estimate D2E/DX2                !
 ! D99   D(25,27,28,26)          0.5955         estimate D2E/DX2                !
 ! D100  D(25,27,28,47)       -178.1296         estimate D2E/DX2                !
 ! D101  D(29,27,28,26)        178.9633         estimate D2E/DX2                !
 ! D102  D(29,27,28,47)          0.2381         estimate D2E/DX2                !
 ! D103  D(22,31,32,34)        179.9272         estimate D2E/DX2                !
 ! D104  D(22,31,32,35)          0.0119         estimate D2E/DX2                !
 ! D105  D(33,31,32,34)          0.0028         estimate D2E/DX2                !
 ! D106  D(33,31,32,35)       -179.9126         estimate D2E/DX2                !
 ! D107  D(22,31,33,36)       -179.9579         estimate D2E/DX2                !
 ! D108  D(22,31,33,37)         -0.0059         estimate D2E/DX2                !
 ! D109  D(32,31,33,36)         -0.0335         estimate D2E/DX2                !
 ! D110  D(32,31,33,37)        179.9185         estimate D2E/DX2                !
 ! D111  D(31,32,34,38)          0.0135         estimate D2E/DX2                !
 ! D112  D(31,32,34,39)       -179.9405         estimate D2E/DX2                !
 ! D113  D(35,32,34,38)        179.9284         estimate D2E/DX2                !
 ! D114  D(35,32,34,39)         -0.0257         estimate D2E/DX2                !
 ! D115  D(31,33,36,38)          0.0477         estimate D2E/DX2                !
 ! D116  D(31,33,36,40)        179.9825         estimate D2E/DX2                !
 ! D117  D(37,33,36,38)       -179.9038         estimate D2E/DX2                !
 ! D118  D(37,33,36,40)          0.0309         estimate D2E/DX2                !
 ! D119  D(32,34,38,36)          0.0007         estimate D2E/DX2                !
 ! D120  D(32,34,38,41)       -179.9882         estimate D2E/DX2                !
 ! D121  D(39,34,38,36)        179.9538         estimate D2E/DX2                !
 ! D122  D(39,34,38,41)         -0.0351         estimate D2E/DX2                !
 ! D123  D(33,36,38,34)         -0.0314         estimate D2E/DX2                !
 ! D124  D(33,36,38,41)        179.9584         estimate D2E/DX2                !
 ! D125  D(40,36,38,34)       -179.9682         estimate D2E/DX2                !
 ! D126  D(40,36,38,41)          0.0217         estimate D2E/DX2                !
 ! D127  D(34,38,41,42)          0.1816         estimate D2E/DX2                !
 ! D128  D(36,38,41,42)       -179.8077         estimate D2E/DX2                !
 ! D129  D(38,41,42,43)        179.9058         estimate D2E/DX2                !
 ! D130  D(38,41,42,44)        -61.2142         estimate D2E/DX2                !
 ! D131  D(38,41,42,45)         61.0228         estimate D2E/DX2                !
 --------------------------------------------------------------------------------
 Trust Radius=3.00D-01 FncErr=1.00D-07 GrdErr=1.00D-06
 Number of steps in this run=    287 maximum allowed number of steps=    306.
 GradGradGradGradGradGradGradGradGradGradGradGradGradGradGradGradGradGrad

 Leave Link  103 at Fri Mar 26 23:18:51 2021, MaxMem=  5242880000 cpu:         0.3
 (Enter /opt/nce/packages/global/g09/l202.exe)
 Symmetry turned off by external request.
 Stoichiometry    C26H19BF3NO
 Framework group  C1[X(C26H19BF3NO)]
 Deg. of freedom   147
 Full point group                 C1      NOp   1
                          Input orientation:                          
 ---------------------------------------------------------------------
 Center     Atomic      Atomic             Coordinates (Angstroms)
 Number     Number       Type             X           Y           Z
 ---------------------------------------------------------------------
      1          6           0        0.687089    3.333469    0.920380
      2          6           0        1.493318    2.252387    0.619856
      3          6           0        0.923232    0.966936    0.464615
      4          6           0       -0.492854    0.793804    0.595479
      5          6           0       -1.275966    1.932682    0.952582
      6          6           0       -0.703778    3.175934    1.101384
      7          6           0       -1.073664   -0.500706    0.413608
      8          6           0       -0.205739   -1.595680    0.108576
      9          6           0        1.209141   -1.392528    0.037266
     10          6           0        2.064607   -2.488733   -0.230132
     11          1           0        3.141303   -2.337127   -0.261586
     12          6           0        1.530814   -3.741369   -0.461594
     13          6           0        0.133895   -3.947872   -0.462769
     14          6           0       -0.711128   -2.895203   -0.191647
     15          1           0        1.141323    4.320344    1.034923
     16          1           0        2.566799    2.384414    0.504729
     17          1           0       -2.346002    1.805153    1.103425
     18          1           0       -1.325083    4.033166    1.365114
     19          1           0        2.203554   -4.576292   -0.670549
     20          1           0       -0.274167   -4.933057   -0.694688
     21          1           0       -1.790270   -3.033435   -0.220429
     22          7           0        1.728294   -0.125780    0.206832
     23          6           0       -2.515094   -0.690735    0.524442
     24          6           0       -3.392961    0.128880   -0.220752
     25          6           0       -3.057465   -1.674350    1.385845
     26          6           0       -4.780559    0.007037   -0.133765
     27          6           0       -4.439195   -1.788214    1.504392
     28          6           0       -5.284839   -0.953937    0.758582
     29          1           0       -4.860462   -2.515507    2.203830
     30          1           0       -2.395207   -2.289439    1.999122
     31          6           0        3.154230    0.066039    0.097870
     32          6           0        3.723657    0.340620   -1.143230
     33          6           0        3.959078   -0.023010    1.239791
     34          6           0        5.102979    0.529396   -1.258687
     35          1           0        3.085356    0.409006   -2.026305
     36          6           0        5.330952    0.162622    1.133853
     37          1           0        3.501995   -0.237374    2.207702
     38          6           0        5.917078    0.441080   -0.116446
     39          1           0        5.529025    0.744144   -2.237642
     40          1           0        5.981172    0.098999    2.007559
     41          8           0        7.253448    0.606272   -0.119602
     42          6           0        7.915605    0.892680   -1.335715
     43          1           0        8.981795    0.985133   -1.094148
     44          1           0        7.781223    0.080746   -2.071523
     45          1           0        7.561664    1.840901   -1.776426
     46          1           0       -2.985285    0.872024   -0.909949
     47          1           0       -6.369017   -1.027376    0.878905
     48          5           0       -5.742345    0.997486   -1.033843
     49          9           0       -5.066651    2.229582   -1.175196
     50          9           0       -6.960097    1.172544   -0.361618
     51          9           0       -5.953057    0.423546   -2.295025
 ---------------------------------------------------------------------
 Rotational constants (GHZ):      0.2929752      0.0650026      0.0579583
 Leave Link  202 at Fri Mar 26 23:18:51 2021, MaxMem=  5242880000 cpu:         0.3
 (Enter /opt/nce/packages/global/g09/l301.exe)
 Standard basis: def2TZVP (5D, 7F)
 Ernie: Thresh=  0.10000D-02 Tol=  0.10000D-05 Strict=F.
  1106 basis functions,  1784 primitive gaussians,  1266 cartesian basis functions
   111 alpha electrons      111 beta electrons
       nuclear repulsion energy      2965.7304009032 Hartrees.
 IExCor= 1009 DFT=T Ex=PBE Corr=PBE ExCW=0 ScaHFX=  0.000000
 ScaDFX=  1.000000  1.000000  1.000000  1.000000 ScalE2=  1.000000  1.000000
 IRadAn=      5 IRanWt=     -1 IRanGd=            0 ICorTp=0 IEmpDi=141
 NAtoms=   51 NActive=   51 NUniq=   51 SFac= 1.00D+00 NAtFMM=   60 NAOKFM=F Big=F
 Integral buffers will be    131072 words long.
 Raffenetti 2 integral format.
 Two-electron integral symmetry is turned off.
 R6Disp:  Grimme-D3(BJ) Dispersion energy=       -0.0767544495 Hartrees.
 Nuclear repulsion after empirical dispersion term =     2965.6536464537 Hartrees.
 ------------------------------------------------------------------------------
 Polarizable Continuum Model (PCM)
 =================================
 Model                : PCM (using non-symmetric T matrix).
 Atomic radii         : SMD-Coulomb.
 Polarization charges : Total charges.
 Charge compensation  : None.
 Solution method      : On-the-fly selection.
 Cavity type          : VdW (van der Waals Surface) (Alpha=1.000).
 Cavity algorithm     : GePol (No added spheres)
                        Default sphere list used, NSphG=   51.
                        Lebedev-Laikov grids with approx.  5.0 points / Ang**2.
                        Smoothing algorithm: York/Karplus (Gamma=1.0000).
                        Polarization charges: spherical gaussians, with
                                              point-specific exponents (IZeta= 3).
                        Self-potential: point-specific (ISelfS= 7).
                        Self-field    : sphere-specific E.n sum rule (ISelfD= 2).
 1st derivatives      : Analytical E(r).r(x)/FMM algorithm (CHGder, D1EAlg=3).
                        Cavity 1st derivative terms included.
 Solvent              : Acetonitrile, Eps=  35.688000 Eps(inf)=   1.806874
 ------------------------------------------------------------------------------
 GePol: Number of generator spheres                  =      51
 GePol: Total number of spheres                      =      51
 GePol: Number of exposed spheres                    =      51 (100.00%)
 GePol: Number of points                             =    3808
 GePol: Average weight of points                     =       0.12
 GePol: Minimum weight of points                     =   0.37D-09
 GePol: Maximum weight of points                     =    0.21559
 GePol: Number of points with low weight             =     215
 GePol: Fraction of low-weight points (<1% of avg)   =       5.65%
 GePol: Cavity surface area                          =    439.122 Ang**2
 GePol: Cavity volume                                =    430.984 Ang**3
 ------------------------------------------------------------------------------
 Atomic radii for non-electrostatic terms: SMD-CDS.
 ------------------------------------------------------------------------------
 PCM non-electrostatic energy =        -0.0068399174 Hartrees.
 Nuclear repulsion after PCM non-electrostatic terms =     2965.6468065363 Hartrees.
 Leave Link  301 at Fri Mar 26 23:18:54 2021, MaxMem=  5242880000 cpu:        19.6
 (Enter /opt/nce/packages/global/g09/l302.exe)
 NPDir=0 NMtPBC=     1 NCelOv=     1 NCel=       1 NClECP=     1 NCelD=      1
         NCelK=      1 NCelE2=     1 NClLst=     1 CellRange=     0.0.
 One-electron integrals computed using PRISM.
   1 Symmetry operations used in ECPInt.
 ECPInt:  NShTT=   91806 NPrTT=  285396 LenC2=   71439 LenP2D=  151316.
 LDataN:  DoStor=T MaxTD1= 6 Len=  172
 NBasis=  1106 RedAO= T EigKep=  5.29D-06  NBF=  1106
 NBsUse=  1106 1.00D-06 EigRej= -1.00D+00 NBFU=  1106
 Precomputing XC quadrature grid using
 IXCGrd= 4 IRadAn=           5 IRanWt=          -1 IRanGd=           0 AccXCQ= 0.00D+00.
 Generated NRdTot=       0 NPtTot=           0 NUsed=           0 NTot=          32
 NSgBfM=  1159  1159  1159  1163  1163 MxSgAt=    51 MxSgA2=    51.
 Leave Link  302 at Fri Mar 26 23:18:57 2021, MaxMem=  5242880000 cpu:        33.4
 (Enter /opt/nce/packages/global/g09/l303.exe)
 DipDrv:  MaxL=1.
 Leave Link  303 at Fri Mar 26 23:18:58 2021, MaxMem=  5242880000 cpu:         5.2
 (Enter /opt/nce/packages/global/g09/l401.exe)
 ExpMin= 6.06D-02 ExpMax= 3.55D+04 ExpMxC= 1.21D+03 IAcc=3 IRadAn=         5 AccDes= 0.00D+00
 Harris functional with IExCor= 1009 and IRadAn=       5 diagonalized for initial guess.
 HarFok:  IExCor= 1009 AccDes= 0.00D+00 IRadAn=         5 IDoV= 1 UseB2=F ITyADJ=14
 ICtDFT=  3500011 ScaDFX=  1.000000  1.000000  1.000000  1.000000
 FoFCou: FMM=F IPFlag=           0 FMFlag=      100000 FMFlg1=           0
         NFxFlg=           0 DoJE=T BraDBF=F KetDBF=T FulRan=T
         wScrn=  0.000000 ICntrl=     500 IOpCl=  0 I1Cent=   200000004 NGrid=           0
         NMat0=    1 NMatS0=      1 NMatT0=    0 NMatD0=    1 NMtDS0=    0 NMtDT0=    0
 Symmetry not used in FoFCou.
 Harris En= -1456.03678086564    
 JPrj=0 DoOrth=F DoCkMO=F.
 Leave Link  401 at Fri Mar 26 23:19:09 2021, MaxMem=  5242880000 cpu:       130.6
 (Enter /opt/nce/packages/global/g09/l502.exe)
 Closed shell SCF:
 Using DIIS extrapolation, IDIIS=  1040.
 Two-electron integral symmetry not used.
 IVT=     4849708 IEndB=     4849708 NGot=  5242880000 MDV=  5239650955
 LenX=  5239650955 LenY=  5238046933
 Requested convergence on RMS density matrix=1.00D-08 within 128 cycles.
 Requested convergence on MAX density matrix=1.00D-06.
 Requested convergence on             energy=1.00D-06.
 No special actions if energy rises.
 Fock matrices will be formed incrementally for  20 cycles.

 Cycle   1  Pass 1  IDiag  1:
 FoFJK:  IHMeth= 1 ICntrl=     500 DoSepK=F KAlg= 0 I1Cent=   0 FoldK=F
 IRaf= 660000000 NMat=   1 IRICut=       1 DoRegI=T DoRafI=F ISym2E= 0.
 FoFCou: FMM=F IPFlag=           0 FMFlag=      100000 FMFlg1=           0
         NFxFlg=           0 DoJE=T BraDBF=F KetDBF=F FulRan=T
         wScrn=  0.000000 ICntrl=     500 IOpCl=  0 I1Cent=           0 NGrid=           0
         NMat0=    1 NMatS0=      1 NMatT0=    0 NMatD0=    1 NMtDS0=    0 NMtDT0=    0
 Symmetry not used in FoFCou.
 Inv3:  Mode=1 IEnd=    43502592.
 Iteration    1 A*A^-1 deviation from unit magnitude is 7.33D-15 for   3808.
 Iteration    1 A*A^-1 deviation from orthogonality  is 2.66D-15 for   3239    419.
 Iteration    1 A^-1*A deviation from unit magnitude is 7.55D-15 for   3808.
 Iteration    1 A^-1*A deviation from orthogonality  is 2.86D-10 for   3221   3150.
 Iteration    2 A*A^-1 deviation from unit magnitude is 3.00D-15 for    417.
 Iteration    2 A*A^-1 deviation from orthogonality  is 2.89D-15 for   3003    315.
 Iteration    2 A^-1*A deviation from unit magnitude is 8.88D-16 for    426.
 Iteration    2 A^-1*A deviation from orthogonality  is 3.60D-16 for   1635    568.
 E= -1455.12113360834    
 DIIS: error= 2.46D-02 at cycle   1 NSaved=   1.
 NSaved= 1 IEnMin= 1 EnMin= -1455.12113360834     IErMin= 1 ErrMin= 2.46D-02
 ErrMax= 2.46D-02  0.00D+00 EMaxC= 1.00D-01 BMatC= 5.64D-01 BMatP= 5.64D-01
 IDIUse=3 WtCom= 7.54D-01 WtEn= 2.46D-01
 Coeff-Com:  0.100D+01
 Coeff-En:   0.100D+01
 Coeff:      0.100D+01
 Gap=     0.057 Goal=   None    Shift=    0.000
 GapD=    0.057 DampG=0.500 DampE=0.500 DampFc=0.2500 IDamp=-1.
 Damping current iteration by 2.50D-01
 RMSDP=4.41D-03 MaxDP=6.04D-01              OVMax= 4.62D-01

 Cycle   2  Pass 1  IDiag  1:
 RMSU=  1.10D-03    CP:  1.02D+00
 E= -1455.29976977880     Delta-E=       -0.178636170459 Rises=F Damp=T
 DIIS: error= 7.72D-03 at cycle   2 NSaved=   2.
 NSaved= 2 IEnMin= 2 EnMin= -1455.29976977880     IErMin= 2 ErrMin= 7.72D-03
 ErrMax= 7.72D-03  0.00D+00 EMaxC= 1.00D-01 BMatC= 1.12D-01 BMatP= 5.64D-01
 IDIUse=3 WtCom= 9.23D-01 WtEn= 7.72D-02
 Coeff-Com: -0.449D+00 0.145D+01
 Coeff-En:   0.000D+00 0.100D+01
 Coeff:     -0.414D+00 0.141D+01
 Gap=     0.086 Goal=   None    Shift=    0.000
 RMSDP=9.36D-04 MaxDP=8.89D-02 DE=-1.79D-01 OVMax= 5.74D-01

 Cycle   3  Pass 1  IDiag  1:
 RMSU=  9.07D-04    CP:  1.00D+00  1.19D+00
 E= -1455.50210358035     Delta-E=       -0.202333801548 Rises=F Damp=F
 DIIS: error= 1.28D-02 at cycle   3 NSaved=   3.
 NSaved= 3 IEnMin= 3 EnMin= -1455.50210358035     IErMin= 2 ErrMin= 7.72D-03
 ErrMax= 1.28D-02  0.00D+00 EMaxC= 1.00D-01 BMatC= 1.34D-01 BMatP= 1.12D-01
 IDIUse=2 WtCom= 0.00D+00 WtEn= 1.00D+00
 Coeff-En:   0.000D+00 0.000D+00 0.100D+01
 Coeff:      0.000D+00 0.000D+00 0.100D+01
 Gap=     0.098 Goal=   None    Shift=    0.000
 RMSDP=1.18D-03 MaxDP=1.62D-01 DE=-2.02D-01 OVMax= 4.27D-01

 Cycle   4  Pass 1  IDiag  1:
 RMSU=  9.43D-04    CP:  1.02D+00  1.39D+00  2.55D-01
 E= -1454.46968610748     Delta-E=        1.032417472865 Rises=F Damp=F
 DIIS: error= 4.36D-02 at cycle   4 NSaved=   4.
 NSaved= 4 IEnMin= 3 EnMin= -1455.50210358035     IErMin= 2 ErrMin= 7.72D-03
 ErrMax= 4.36D-02  0.00D+00 EMaxC= 1.00D-01 BMatC= 1.08D+00 BMatP= 1.12D-01
 IDIUse=2 WtCom= 0.00D+00 WtEn= 1.00D+00
 Coeff-En:   0.000D+00 0.000D+00 0.823D+00 0.177D+00
 Coeff:      0.000D+00 0.000D+00 0.823D+00 0.177D+00
 Gap=     0.057 Goal=   None    Shift=    0.000
 RMSDP=6.70D-04 MaxDP=7.90D-02 DE= 1.03D+00 OVMax= 3.16D-01

 Cycle   5  Pass 1  IDiag  1:
 RMSU=  2.37D-04    CP:  1.01D+00  1.10D+00  5.16D-01  4.89D-01
 E= -1455.54884006438     Delta-E=       -1.079153956892 Rises=F Damp=F
 DIIS: error= 1.08D-02 at cycle   5 NSaved=   5.
 NSaved= 5 IEnMin= 5 EnMin= -1455.54884006438     IErMin= 2 ErrMin= 7.72D-03
 ErrMax= 1.08D-02  0.00D+00 EMaxC= 1.00D-01 BMatC= 9.93D-02 BMatP= 1.12D-01
 IDIUse=3 WtCom= 8.92D-01 WtEn= 1.08D-01
 Coeff-Com: -0.789D-01 0.202D+00 0.397D+00-0.473D-01 0.528D+00
 Coeff-En:   0.000D+00 0.000D+00 0.437D+00 0.000D+00 0.563D+00
 Coeff:     -0.704D-01 0.180D+00 0.401D+00-0.422D-01 0.531D+00
 Gap=     0.065 Goal=   None    Shift=    0.000
 RMSDP=3.07D-04 MaxDP=4.72D-02 DE=-1.08D+00 OVMax= 1.90D-01

 Cycle   6  Pass 1  IDiag  1:
 RMSU=  9.65D-05    CP:  1.01D+00  1.15D+00  7.22D-01  2.76D-01  6.39D-01
 E= -1455.65317585143     Delta-E=       -0.104335787054 Rises=F Damp=F
 DIIS: error= 1.37D-03 at cycle   6 NSaved=   6.
 NSaved= 6 IEnMin= 6 EnMin= -1455.65317585143     IErMin= 6 ErrMin= 1.37D-03
 ErrMax= 1.37D-03  0.00D+00 EMaxC= 1.00D-01 BMatC= 3.52D-03 BMatP= 9.93D-02
 IDIUse=3 WtCom= 9.86D-01 WtEn= 1.37D-02
 Coeff-Com: -0.336D-01 0.660D-01 0.198D+00-0.557D-01 0.383D+00 0.442D+00
 Coeff-En:   0.000D+00 0.000D+00 0.000D+00 0.000D+00 0.000D+00 0.100D+01
 Coeff:     -0.331D-01 0.651D-01 0.196D+00-0.549D-01 0.378D+00 0.449D+00
 Gap=     0.071 Goal=   None    Shift=    0.000
 RMSDP=8.08D-05 MaxDP=1.29D-02 DE=-1.04D-01 OVMax= 2.93D-02

 Cycle   7  Pass 1  IDiag  1:
 RMSU=  3.31D-05    CP:  1.01D+00  1.12D+00  7.10D-01  2.66D-01  7.42D-01
                    CP:  3.73D-01
 E= -1455.65610083301     Delta-E=       -0.002924981583 Rises=F Damp=F
 DIIS: error= 8.16D-04 at cycle   7 NSaved=   7.
 NSaved= 7 IEnMin= 7 EnMin= -1455.65610083301     IErMin= 7 ErrMin= 8.16D-04
 ErrMax= 8.16D-04  0.00D+00 EMaxC= 1.00D-01 BMatC= 4.56D-04 BMatP= 3.52D-03
 IDIUse=3 WtCom= 9.92D-01 WtEn= 8.16D-03
 Coeff-Com: -0.167D-01 0.317D-01 0.888D-01-0.277D-01 0.169D+00 0.294D+00
 Coeff-Com:  0.460D+00
 Coeff-En:   0.000D+00 0.000D+00 0.000D+00 0.000D+00 0.000D+00 0.141D+00
 Coeff-En:   0.859D+00
 Coeff:     -0.165D-01 0.315D-01 0.881D-01-0.274D-01 0.168D+00 0.293D+00
 Coeff:      0.464D+00
 Gap=     0.070 Goal=   None    Shift=    0.000
 RMSDP=2.71D-05 MaxDP=2.56D-03 DE=-2.92D-03 OVMax= 1.58D-02

 Cycle   8  Pass 1  IDiag  1:
 RMSU=  1.72D-05    CP:  1.01D+00  1.12D+00  7.11D-01  2.65D-01  7.27D-01
                    CP:  5.15D-01  5.68D-01
 E= -1455.65648357619     Delta-E=       -0.000382743175 Rises=F Damp=F
 DIIS: error= 3.69D-04 at cycle   8 NSaved=   8.
 NSaved= 8 IEnMin= 8 EnMin= -1455.65648357619     IErMin= 8 ErrMin= 3.69D-04
 ErrMax= 3.69D-04  0.00D+00 EMaxC= 1.00D-01 BMatC= 1.10D-04 BMatP= 4.56D-04
 IDIUse=3 WtCom= 9.96D-01 WtEn= 3.69D-03
 Coeff-Com: -0.718D-03 0.173D-02 0.109D-01-0.217D-02 0.806D-02 0.996D-01
 Coeff-Com:  0.371D+00 0.512D+00
 Coeff-En:   0.000D+00 0.000D+00 0.000D+00 0.000D+00 0.000D+00 0.000D+00
 Coeff-En:   0.229D+00 0.771D+00
 Coeff:     -0.715D-03 0.173D-02 0.109D-01-0.216D-02 0.803D-02 0.993D-01
 Coeff:      0.370D+00 0.513D+00
 Gap=     0.071 Goal=   None    Shift=    0.000
 RMSDP=1.17D-05 MaxDP=1.27D-03 DE=-3.83D-04 OVMax= 3.92D-03

 Cycle   9  Pass 1  IDiag  1:
 RMSU=  5.10D-06    CP:  1.01D+00  1.12D+00  7.16D-01  2.65D-01  7.17D-01
                    CP:  5.08D-01  6.72D-01  5.06D-01
 E= -1455.65660223646     Delta-E=       -0.000118660270 Rises=F Damp=F
 DIIS: error= 5.03D-05 at cycle   9 NSaved=   9.
 NSaved= 9 IEnMin= 9 EnMin= -1455.65660223646     IErMin= 9 ErrMin= 5.03D-05
 ErrMax= 5.03D-05  0.00D+00 EMaxC= 1.00D-01 BMatC= 3.71D-06 BMatP= 1.10D-04
 IDIUse=1 WtCom= 1.00D+00 WtEn= 0.00D+00
 Coeff-Com:  0.199D-03-0.101D-03 0.356D-02-0.314D-03-0.142D-02 0.506D-01
 Coeff-Com:  0.207D+00 0.310D+00 0.431D+00
 Coeff:      0.199D-03-0.101D-03 0.356D-02-0.314D-03-0.142D-02 0.506D-01
 Coeff:      0.207D+00 0.310D+00 0.431D+00
 Gap=     0.071 Goal=   None    Shift=    0.000
 RMSDP=3.34D-06 MaxDP=7.17D-04 DE=-1.19D-04 OVMax= 5.91D-04

 Cycle  10  Pass 1  IDiag  1:
 RMSU=  1.75D-06    CP:  1.01D+00  1.12D+00  7.15D-01  2.64D-01  7.20D-01
                    CP:  5.02D-01  6.84D-01  5.67D-01  7.22D-01
 E= -1455.65660536249     Delta-E=       -0.000003126032 Rises=F Damp=F
 DIIS: error= 1.61D-05 at cycle  10 NSaved=  10.
 NSaved=10 IEnMin=10 EnMin= -1455.65660536249     IErMin=10 ErrMin= 1.61D-05
 ErrMax= 1.61D-05  0.00D+00 EMaxC= 1.00D-01 BMatC= 3.46D-07 BMatP= 3.71D-06
 IDIUse=1 WtCom= 1.00D+00 WtEn= 0.00D+00
 Coeff-Com:  0.193D-03-0.205D-03 0.113D-02 0.546D-04-0.183D-02 0.212D-01
 Coeff-Com:  0.890D-01 0.138D+00 0.273D+00 0.480D+00
 Coeff:      0.193D-03-0.205D-03 0.113D-02 0.546D-04-0.183D-02 0.212D-01
 Coeff:      0.890D-01 0.138D+00 0.273D+00 0.480D+00
 Gap=     0.071 Goal=   None    Shift=    0.000
 RMSDP=1.61D-06 MaxDP=3.73D-04 DE=-3.13D-06 OVMax= 2.70D-04

 Cycle  11  Pass 1  IDiag  1:
 RMSU=  5.79D-07    CP:  1.01D+00  1.12D+00  7.16D-01  2.64D-01  7.18D-01
                    CP:  5.07D-01  6.81D-01  5.50D-01  7.83D-01  6.00D-01
 E= -1455.65660564322     Delta-E=       -0.000000280732 Rises=F Damp=F
 DIIS: error= 6.61D-06 at cycle  11 NSaved=  11.
 NSaved=11 IEnMin=11 EnMin= -1455.65660564322     IErMin=11 ErrMin= 6.61D-06
 ErrMax= 6.61D-06  0.00D+00 EMaxC= 1.00D-01 BMatC= 3.67D-08 BMatP= 3.46D-07
 IDIUse=1 WtCom= 1.00D+00 WtEn= 0.00D+00
 Coeff-Com:  0.479D-04 0.566D-05 0.421D-03 0.322D-04-0.109D-02 0.955D-02
 Coeff-Com:  0.401D-01 0.630D-01 0.140D+00 0.306D+00 0.442D+00
 Coeff:      0.479D-04 0.566D-05 0.421D-03 0.322D-04-0.109D-02 0.955D-02
 Coeff:      0.401D-01 0.630D-01 0.140D+00 0.306D+00 0.442D+00
 Gap=     0.071 Goal=   None    Shift=    0.000
 RMSDP=5.31D-07 MaxDP=1.25D-04 DE=-2.81D-07 OVMax= 8.74D-05

 Cycle  12  Pass 1  IDiag  1:
 RMSU=  1.62D-07    CP:  1.01D+00  1.12D+00  7.16D-01  2.64D-01  7.19D-01
                    CP:  5.05D-01  6.84D-01  5.58D-01  7.63D-01  6.98D-01
                    CP:  6.99D-01
 E= -1455.65660567529     Delta-E=       -0.000000032065 Rises=F Damp=F
 DIIS: error= 1.05D-06 at cycle  12 NSaved=  12.
 NSaved=12 IEnMin=12 EnMin= -1455.65660567529     IErMin=12 ErrMin= 1.05D-06
 ErrMax= 1.05D-06  0.00D+00 EMaxC= 1.00D-01 BMatC= 2.08D-09 BMatP= 3.67D-08
 IDIUse=1 WtCom= 1.00D+00 WtEn= 0.00D+00
 Coeff-Com:  0.515D-05 0.210D-04 0.110D-03 0.129D-04-0.357D-03 0.270D-02
 Coeff-Com:  0.110D-01 0.175D-01 0.428D-01 0.107D+00 0.239D+00 0.581D+00
 Coeff:      0.515D-05 0.210D-04 0.110D-03 0.129D-04-0.357D-03 0.270D-02
 Coeff:      0.110D-01 0.175D-01 0.428D-01 0.107D+00 0.239D+00 0.581D+00
 Gap=     0.071 Goal=   None    Shift=    0.000
 RMSDP=1.08D-07 MaxDP=2.19D-05 DE=-3.21D-08 OVMax= 1.44D-05

 Cycle  13  Pass 1  IDiag  1:
 RMSU=  4.18D-08    CP:  1.01D+00  1.12D+00  7.16D-01  2.64D-01  7.19D-01
                    CP:  5.06D-01  6.83D-01  5.56D-01  7.70D-01  6.90D-01
                    CP:  7.47D-01  7.78D-01
 E= -1455.65660567681     Delta-E=       -0.000000001521 Rises=F Damp=F
 DIIS: error= 5.97D-07 at cycle  13 NSaved=  13.
 NSaved=13 IEnMin=13 EnMin= -1455.65660567681     IErMin=13 ErrMin= 5.97D-07
 ErrMax= 5.97D-07  0.00D+00 EMaxC= 1.00D-01 BMatC= 3.21D-10 BMatP= 2.08D-09
 IDIUse=1 WtCom= 1.00D+00 WtEn= 0.00D+00
 Coeff-Com:  0.424D-05-0.720D-06 0.247D-04 0.684D-05-0.109D-03 0.719D-03
 Coeff-Com:  0.277D-02 0.447D-02 0.120D-01 0.340D-01 0.957D-01 0.344D+00
 Coeff-Com:  0.506D+00
 Coeff:      0.424D-05-0.720D-06 0.247D-04 0.684D-05-0.109D-03 0.719D-03
 Coeff:      0.277D-02 0.447D-02 0.120D-01 0.340D-01 0.957D-01 0.344D+00
 Coeff:      0.506D+00
 Gap=     0.071 Goal=   None    Shift=    0.000
 RMSDP=2.17D-08 MaxDP=2.37D-06 DE=-1.52D-09 OVMax= 5.50D-06

 Cycle  14  Pass 1  IDiag  1:
 RMSU=  1.40D-08    CP:  1.01D+00  1.12D+00  7.16D-01  2.64D-01  7.19D-01
                    CP:  5.06D-01  6.84D-01  5.56D-01  7.71D-01  6.94D-01
                    CP:  7.43D-01  8.15D-01  7.70D-01
 E= -1455.65660567708     Delta-E=       -0.000000000271 Rises=F Damp=F
 DIIS: error= 1.55D-07 at cycle  14 NSaved=  14.
 NSaved=14 IEnMin=14 EnMin= -1455.65660567708     IErMin=14 ErrMin= 1.55D-07
 ErrMax= 1.55D-07  0.00D+00 EMaxC= 1.00D-01 BMatC= 4.39D-11 BMatP= 3.21D-10
 IDIUse=1 WtCom= 1.00D+00 WtEn= 0.00D+00
 Coeff-Com:  0.136D-05-0.158D-05 0.450D-05 0.190D-05-0.228D-04 0.143D-03
 Coeff-Com:  0.463D-03 0.775D-03 0.265D-02 0.955D-02 0.339D-01 0.155D+00
 Coeff-Com:  0.320D+00 0.478D+00
 Coeff:      0.136D-05-0.158D-05 0.450D-05 0.190D-05-0.228D-04 0.143D-03
 Coeff:      0.463D-03 0.775D-03 0.265D-02 0.955D-02 0.339D-01 0.155D+00
 Coeff:      0.320D+00 0.478D+00
 Gap=     0.071 Goal=   None    Shift=    0.000
 RMSDP=9.32D-09 MaxDP=1.31D-06 DE=-2.71D-10 OVMax= 2.39D-06

 Cycle  15  Pass 1  IDiag  1:
 RMSU=  5.16D-09    CP:  1.01D+00  1.12D+00  7.16D-01  2.64D-01  7.19D-01
                    CP:  5.06D-01  6.83D-01  5.56D-01  7.71D-01  6.94D-01
                    CP:  7.47D-01  8.20D-01  7.89D-01  6.70D-01
 E= -1455.65660567710     Delta-E=       -0.000000000025 Rises=F Damp=F
 DIIS: error= 4.28D-08 at cycle  15 NSaved=  15.
 NSaved=15 IEnMin=15 EnMin= -1455.65660567710     IErMin=15 ErrMin= 4.28D-08
 ErrMax= 4.28D-08  0.00D+00 EMaxC= 1.00D-01 BMatC= 3.19D-12 BMatP= 4.39D-11
 IDIUse=1 WtCom= 1.00D+00 WtEn= 0.00D+00
 Coeff-Com: -0.206D-06 0.106D-06-0.151D-05 0.227D-06-0.127D-05-0.834D-05
 Coeff-Com: -0.669D-04-0.942D-04 0.581D-04 0.131D-02 0.755D-02 0.445D-01
 Coeff-Com:  0.114D+00 0.265D+00 0.567D+00
 Coeff:     -0.206D-06 0.106D-06-0.151D-05 0.227D-06-0.127D-05-0.834D-05
 Coeff:     -0.669D-04-0.942D-04 0.581D-04 0.131D-02 0.755D-02 0.445D-01
 Coeff:      0.114D+00 0.265D+00 0.567D+00
 Gap=     0.071 Goal=   None    Shift=    0.000
 RMSDP=3.86D-09 MaxDP=7.67D-07 DE=-2.46D-11 OVMax= 5.81D-07

 Error on total polarization charges =  0.06148
 SCF Done:  E(RPBE-PBE) =  -1455.65660568     A.U. after   15 cycles
            NFock= 15  Conv=0.39D-08     -V/T= 2.0045
 KE= 1.449186029231D+03 PE=-9.333173888228D+03 EE= 3.462684446784D+03
 SMD-CDS (non-electrostatic) energy       (kcal/mol) =      -4.29
 (included in total energy above)
 Leave Link  502 at Fri Mar 26 23:34:13 2021, MaxMem=  5242880000 cpu:     10777.0
 (Enter /opt/nce/packages/global/g09/l601.exe)
 Copying SCF densities to generalized density rwf, IOpCl= 0 IROHF=0.

 **********************************************************************

            Population analysis using the SCF density.

 **********************************************************************

 Alpha  occ. eigenvalues --  -24.19634 -24.19614 -24.19379 -18.79206 -14.08351
 Alpha  occ. eigenvalues --   -9.96590  -9.96586  -9.95518  -9.94793  -9.93442
 Alpha  occ. eigenvalues --   -9.93010  -9.92978  -9.92574  -9.90893  -9.90864
 Alpha  occ. eigenvalues --   -9.90621  -9.90592  -9.90529  -9.90523  -9.90490
 Alpha  occ. eigenvalues --   -9.90232  -9.90202  -9.90031  -9.89967  -9.89456
 Alpha  occ. eigenvalues --   -9.89387  -9.89240  -9.88551  -9.88481  -9.88216
 Alpha  occ. eigenvalues --   -9.85773  -6.54021  -1.06477  -1.02611  -1.02360
 Alpha  occ. eigenvalues --   -0.99232  -0.94055  -0.81605  -0.80447  -0.78744
 Alpha  occ. eigenvalues --   -0.77619  -0.74897  -0.71502  -0.70632  -0.69807
 Alpha  occ. eigenvalues --   -0.69099  -0.67933  -0.67261  -0.66999  -0.63762
 Alpha  occ. eigenvalues --   -0.61624  -0.59937  -0.58664  -0.56597  -0.55502
 Alpha  occ. eigenvalues --   -0.54529  -0.54173  -0.52510  -0.51348  -0.50710
 Alpha  occ. eigenvalues --   -0.49914  -0.48224  -0.47386  -0.45680  -0.45541
 Alpha  occ. eigenvalues --   -0.44487  -0.43325  -0.42944  -0.42807  -0.41951
 Alpha  occ. eigenvalues --   -0.41746  -0.41089  -0.40846  -0.40306  -0.40266
 Alpha  occ. eigenvalues --   -0.39716  -0.39594  -0.39430  -0.38775  -0.38533
 Alpha  occ. eigenvalues --   -0.38237  -0.37042  -0.36678  -0.36209  -0.35359
 Alpha  occ. eigenvalues --   -0.34699  -0.34605  -0.33673  -0.33099  -0.32927
 Alpha  occ. eigenvalues --   -0.32810  -0.32418  -0.31943  -0.31885  -0.31539
 Alpha  occ. eigenvalues --   -0.31200  -0.30343  -0.29998  -0.29406  -0.29095
 Alpha  occ. eigenvalues --   -0.29050  -0.28731  -0.28363  -0.25810  -0.25025
 Alpha  occ. eigenvalues --   -0.24229  -0.23319  -0.22931  -0.22486  -0.21269
 Alpha  occ. eigenvalues --   -0.20782
 Alpha virt. eigenvalues --   -0.13728  -0.07450  -0.06211  -0.05827  -0.04846
 Alpha virt. eigenvalues --   -0.04506  -0.03791  -0.03237  -0.00393   0.02470
 Alpha virt. eigenvalues --    0.03173   0.03381   0.04308   0.04554   0.04903
 Alpha virt. eigenvalues --    0.05774   0.05950   0.06180   0.06937   0.07144
 Alpha virt. eigenvalues --    0.07470   0.07744   0.07961   0.08168   0.08811
 Alpha virt. eigenvalues --    0.08957   0.09252   0.09391   0.09729   0.10001
 Alpha virt. eigenvalues --    0.10341   0.10543   0.10696   0.11090   0.11661
 Alpha virt. eigenvalues --    0.11951   0.12526   0.13214   0.13951   0.14757
 Alpha virt. eigenvalues --    0.15041   0.15147   0.15576   0.15976   0.16359
 Alpha virt. eigenvalues --    0.16661   0.17605   0.18020   0.18246   0.18520
 Alpha virt. eigenvalues --    0.18574   0.18872   0.19058   0.19292   0.19432
 Alpha virt. eigenvalues --    0.19717   0.19821   0.20243   0.20707   0.20849
 Alpha virt. eigenvalues --    0.21239   0.21426   0.21953   0.22115   0.22697
 Alpha virt. eigenvalues --    0.22778   0.23265   0.23649   0.23878   0.24325
 Alpha virt. eigenvalues --    0.24749   0.24956   0.25168   0.25434   0.25712
 Alpha virt. eigenvalues --    0.25986   0.26253   0.26669   0.27098   0.27514
 Alpha virt. eigenvalues --    0.27624   0.27923   0.28495   0.28807   0.29170
 Alpha virt. eigenvalues --    0.29808   0.29938   0.30435   0.30648   0.30889
 Alpha virt. eigenvalues --    0.31141   0.31493   0.31532   0.31695   0.32608
 Alpha virt. eigenvalues --    0.32870   0.33183   0.33359   0.33515   0.33826
 Alpha virt. eigenvalues --    0.33955   0.34220   0.34572   0.34865   0.35164
 Alpha virt. eigenvalues --    0.35979   0.36615   0.37080   0.37398   0.37727
 Alpha virt. eigenvalues --    0.38065   0.38181   0.38726   0.39090   0.39286
 Alpha virt. eigenvalues --    0.39486   0.39700   0.39923   0.40140   0.40252
 Alpha virt. eigenvalues --    0.40664   0.40910   0.41290   0.41384   0.41641
 Alpha virt. eigenvalues --    0.41805   0.42367   0.42558   0.42921   0.43304
 Alpha virt. eigenvalues --    0.43453   0.43580   0.43947   0.44235   0.44536
 Alpha virt. eigenvalues --    0.44775   0.45478   0.45753   0.45933   0.46217
 Alpha virt. eigenvalues --    0.46573   0.46675   0.46951   0.47835   0.48027
 Alpha virt. eigenvalues --    0.48788   0.49142   0.50387   0.50607   0.51036
 Alpha virt. eigenvalues --    0.51182   0.52456   0.52607   0.53208   0.53498
 Alpha virt. eigenvalues --    0.54767   0.54941   0.55337   0.55770   0.55878
 Alpha virt. eigenvalues --    0.56624   0.56920   0.57304   0.57813   0.58065
 Alpha virt. eigenvalues --    0.58318   0.58460   0.59279   0.59838   0.60254
 Alpha virt. eigenvalues --    0.60561   0.61346   0.61583   0.61635   0.61917
 Alpha virt. eigenvalues --    0.62025   0.62204   0.62334   0.62774   0.63226
 Alpha virt. eigenvalues --    0.63427   0.63645   0.63839   0.64280   0.64810
 Alpha virt. eigenvalues --    0.65145   0.65492   0.65666   0.65919   0.66469
 Alpha virt. eigenvalues --    0.66710   0.67074   0.67214   0.68054   0.68505
 Alpha virt. eigenvalues --    0.68794   0.69340   0.69632   0.69748   0.70070
 Alpha virt. eigenvalues --    0.70278   0.70611   0.70709   0.71104   0.71770
 Alpha virt. eigenvalues --    0.71812   0.72519   0.72954   0.73470   0.73916
 Alpha virt. eigenvalues --    0.74142   0.74308   0.74523   0.74806   0.75916
 Alpha virt. eigenvalues --    0.76414   0.76947   0.77225   0.77534   0.77956
 Alpha virt. eigenvalues --    0.78496   0.78919   0.79129   0.79541   0.80438
 Alpha virt. eigenvalues --    0.80951   0.81242   0.81392   0.81715   0.82205
 Alpha virt. eigenvalues --    0.82657   0.82821   0.83447   0.84139   0.84524
 Alpha virt. eigenvalues --    0.85130   0.85795   0.86763   0.87056   0.87738
 Alpha virt. eigenvalues --    0.88132   0.88635   0.89074   0.90046   0.90316
 Alpha virt. eigenvalues --    0.90820   0.90868   0.92076   0.92437   0.92637
 Alpha virt. eigenvalues --    0.93598   0.94682   0.94747   0.95565   0.95889
 Alpha virt. eigenvalues --    0.96579   0.97280   0.97760   0.98662   0.99099
 Alpha virt. eigenvalues --    0.99664   1.00188   1.00657   1.01389   1.01735
 Alpha virt. eigenvalues --    1.02257   1.02719   1.03028   1.03710   1.04334
 Alpha virt. eigenvalues --    1.04678   1.05055   1.05679   1.06233   1.06907
 Alpha virt. eigenvalues --    1.07632   1.08150   1.08451   1.08945   1.10537
 Alpha virt. eigenvalues --    1.10967   1.11390   1.11637   1.13041   1.13640
 Alpha virt. eigenvalues --    1.13750   1.13985   1.15427   1.16224   1.16477
 Alpha virt. eigenvalues --    1.16975   1.17317   1.17885   1.18129   1.18278
 Alpha virt. eigenvalues --    1.19003   1.19349   1.19819   1.20143   1.20832
 Alpha virt. eigenvalues --    1.21368   1.22247   1.22806   1.23084   1.23551
 Alpha virt. eigenvalues --    1.24383   1.24425   1.24862   1.25237   1.25317
 Alpha virt. eigenvalues --    1.26061   1.26643   1.27305   1.27753   1.28555
 Alpha virt. eigenvalues --    1.28940   1.30132   1.30977   1.31616   1.32008
 Alpha virt. eigenvalues --    1.33017   1.33313   1.35275   1.35470   1.36180
 Alpha virt. eigenvalues --    1.36450   1.36621   1.36977   1.37292   1.37694
 Alpha virt. eigenvalues --    1.38220   1.39144   1.40830   1.40950   1.41771
 Alpha virt. eigenvalues --    1.42135   1.42646   1.42841   1.43114   1.43935
 Alpha virt. eigenvalues --    1.44579   1.44738   1.45167   1.45498   1.46499
 Alpha virt. eigenvalues --    1.46700   1.47096   1.47360   1.47875   1.47900
 Alpha virt. eigenvalues --    1.48473   1.49027   1.49866   1.50137   1.50737
 Alpha virt. eigenvalues --    1.50879   1.51200   1.52145   1.52344   1.52980
 Alpha virt. eigenvalues --    1.53608   1.53661   1.54691   1.55402   1.55500
 Alpha virt. eigenvalues --    1.56263   1.56685   1.57788   1.58182   1.58760
 Alpha virt. eigenvalues --    1.59003   1.59651   1.60305   1.60644   1.61085
 Alpha virt. eigenvalues --    1.61306   1.62074   1.62189   1.62666   1.63022
 Alpha virt. eigenvalues --    1.63271   1.64039   1.64649   1.65245   1.65697
 Alpha virt. eigenvalues --    1.66704   1.67203   1.67936   1.68401   1.68757
 Alpha virt. eigenvalues --    1.68992   1.69315   1.69916   1.70717   1.71022
 Alpha virt. eigenvalues --    1.71302   1.72199   1.72722   1.73518   1.74932
 Alpha virt. eigenvalues --    1.76555   1.76658   1.77496   1.77671   1.77851
 Alpha virt. eigenvalues --    1.78552   1.79180   1.79741   1.80590   1.81031
 Alpha virt. eigenvalues --    1.81797   1.82130   1.82647   1.82939   1.83591
 Alpha virt. eigenvalues --    1.84672   1.85135   1.85641   1.86780   1.87326
 Alpha virt. eigenvalues --    1.88325   1.88442   1.88808   1.89236   1.90471
 Alpha virt. eigenvalues --    1.90813   1.92355   1.92763   1.93107   1.93516
 Alpha virt. eigenvalues --    1.94363   1.95096   1.95812   1.96775   1.97393
 Alpha virt. eigenvalues --    1.98870   1.99121   1.99430   1.99948   2.00275
 Alpha virt. eigenvalues --    2.00349   2.01083   2.02024   2.03361   2.03612
 Alpha virt. eigenvalues --    2.03685   2.04262   2.05155   2.05658   2.06446
 Alpha virt. eigenvalues --    2.07387   2.08267   2.08842   2.08923   2.09399
 Alpha virt. eigenvalues --    2.09862   2.10202   2.10587   2.10717   2.11908
 Alpha virt. eigenvalues --    2.13096   2.14099   2.14383   2.14856   2.14929
 Alpha virt. eigenvalues --    2.15718   2.15919   2.17190   2.17549   2.18203
 Alpha virt. eigenvalues --    2.18536   2.19729   2.20424   2.20633   2.21016
 Alpha virt. eigenvalues --    2.22001   2.23038   2.23236   2.24183   2.24618
 Alpha virt. eigenvalues --    2.25333   2.26619   2.27119   2.27476   2.29483
 Alpha virt. eigenvalues --    2.30875   2.31012   2.31808   2.32198   2.32691
 Alpha virt. eigenvalues --    2.33233   2.34143   2.35327   2.35931   2.37857
 Alpha virt. eigenvalues --    2.38723   2.39831   2.40333   2.40387   2.41636
 Alpha virt. eigenvalues --    2.42149   2.43433   2.43742   2.44205   2.45697
 Alpha virt. eigenvalues --    2.46093   2.46629   2.47006   2.47080   2.47190
 Alpha virt. eigenvalues --    2.48128   2.48537   2.48783   2.50291   2.50926
 Alpha virt. eigenvalues --    2.51408   2.51724   2.52256   2.52697   2.53001
 Alpha virt. eigenvalues --    2.53690   2.54301   2.54444   2.55004   2.55643
 Alpha virt. eigenvalues --    2.55756   2.56283   2.56630   2.57334   2.58423
 Alpha virt. eigenvalues --    2.58615   2.58782   2.59348   2.59573   2.59936
 Alpha virt. eigenvalues --    2.60235   2.60627   2.61476   2.61714   2.62099
 Alpha virt. eigenvalues --    2.62408   2.62563   2.62829   2.63570   2.63827
 Alpha virt. eigenvalues --    2.64360   2.64924   2.65077   2.65436   2.66363
 Alpha virt. eigenvalues --    2.66730   2.67369   2.67878   2.68271   2.68982
 Alpha virt. eigenvalues --    2.69040   2.69623   2.69922   2.70550   2.70796
 Alpha virt. eigenvalues --    2.71265   2.71844   2.72161   2.72670   2.73269
 Alpha virt. eigenvalues --    2.73647   2.74024   2.74653   2.74862   2.75033
 Alpha virt. eigenvalues --    2.75483   2.76016   2.76437   2.76988   2.77646
 Alpha virt. eigenvalues --    2.77808   2.78461   2.79184   2.79419   2.80098
 Alpha virt. eigenvalues --    2.80476   2.81078   2.81387   2.81598   2.82003
 Alpha virt. eigenvalues --    2.82827   2.83345   2.83557   2.83835   2.84169
 Alpha virt. eigenvalues --    2.84866   2.85322   2.85933   2.86973   2.87306
 Alpha virt. eigenvalues --    2.88123   2.88672   2.88803   2.89487   2.90599
 Alpha virt. eigenvalues --    2.90841   2.91250   2.91779   2.92353   2.92953
 Alpha virt. eigenvalues --    2.93192   2.94326   2.94594   2.94955   2.95240
 Alpha virt. eigenvalues --    2.95361   2.96206   2.96424   2.97655   2.98363
 Alpha virt. eigenvalues --    2.98569   2.98693   2.99187   3.00578   3.01674
 Alpha virt. eigenvalues --    3.01991   3.02485   3.02924   3.03441   3.03755
 Alpha virt. eigenvalues --    3.04137   3.04965   3.05494   3.06102   3.06224
 Alpha virt. eigenvalues --    3.06878   3.07088   3.07716   3.07859   3.08114
 Alpha virt. eigenvalues --    3.08764   3.09154   3.10150   3.10542   3.10735
 Alpha virt. eigenvalues --    3.10951   3.12125   3.12481   3.12613   3.12932
 Alpha virt. eigenvalues --    3.13324   3.14045   3.14534   3.15109   3.15524
 Alpha virt. eigenvalues --    3.16340   3.16731   3.16984   3.17831   3.18583
 Alpha virt. eigenvalues --    3.18964   3.19869   3.20429   3.20622   3.21031
 Alpha virt. eigenvalues --    3.21547   3.21804   3.21983   3.22510   3.23108
 Alpha virt. eigenvalues --    3.23562   3.23798   3.24341   3.24366   3.25604
 Alpha virt. eigenvalues --    3.26028   3.26214   3.26838   3.26883   3.27285
 Alpha virt. eigenvalues --    3.27815   3.27999   3.28702   3.29329   3.29984
 Alpha virt. eigenvalues --    3.30019   3.30110   3.30846   3.32005   3.32120
 Alpha virt. eigenvalues --    3.32562   3.32684   3.33588   3.34106   3.34565
 Alpha virt. eigenvalues --    3.35089   3.35414   3.35620   3.36326   3.36843
 Alpha virt. eigenvalues --    3.37181   3.37301   3.38257   3.38440   3.38833
 Alpha virt. eigenvalues --    3.39233   3.40078   3.40215   3.40706   3.41233
 Alpha virt. eigenvalues --    3.41483   3.42180   3.42397   3.42556   3.43212
 Alpha virt. eigenvalues --    3.43825   3.44035   3.44575   3.44668   3.45513
 Alpha virt. eigenvalues --    3.45670   3.46070   3.46633   3.46781   3.46831
 Alpha virt. eigenvalues --    3.48141   3.48356   3.48851   3.49375   3.50166
 Alpha virt. eigenvalues --    3.50646   3.50777   3.51729   3.51764   3.52320
 Alpha virt. eigenvalues --    3.52991   3.53936   3.54358   3.55591   3.56486
 Alpha virt. eigenvalues --    3.57151   3.58003   3.58438   3.59317   3.60952
 Alpha virt. eigenvalues --    3.61618   3.62335   3.62743   3.63430   3.64555
 Alpha virt. eigenvalues --    3.65220   3.65606   3.66993   3.67325   3.69050
 Alpha virt. eigenvalues --    3.69410   3.70394   3.71694   3.72739   3.73769
 Alpha virt. eigenvalues --    3.74099   3.75655   3.75826   3.76652   3.77904
 Alpha virt. eigenvalues --    3.79514   3.79893   3.81325   3.81628   3.82365
 Alpha virt. eigenvalues --    3.83002   3.85477   3.86188   3.87333   3.87534
 Alpha virt. eigenvalues --    3.88435   3.89912   3.90172   3.90548   3.91357
 Alpha virt. eigenvalues --    3.91857   3.91950   3.94278   3.94601   3.95619
 Alpha virt. eigenvalues --    3.96116   3.96757   3.97509   3.97947   3.98744
 Alpha virt. eigenvalues --    3.99437   3.99808   4.01296   4.02118   4.03230
 Alpha virt. eigenvalues --    4.03871   4.04551   4.04867   4.05371   4.06037
 Alpha virt. eigenvalues --    4.06310   4.07299   4.07712   4.08332   4.09021
 Alpha virt. eigenvalues --    4.10314   4.10628   4.11775   4.12122   4.12209
 Alpha virt. eigenvalues --    4.13071   4.13468   4.13761   4.14026   4.14370
 Alpha virt. eigenvalues --    4.14758   4.15076   4.16154   4.17026   4.17162
 Alpha virt. eigenvalues --    4.18019   4.18852   4.19093   4.20399   4.21586
 Alpha virt. eigenvalues --    4.22187   4.23703   4.24081   4.24581   4.26174
 Alpha virt. eigenvalues --    4.26553   4.27475   4.27993   4.30372   4.31381
 Alpha virt. eigenvalues --    4.32358   4.33348   4.34001   4.34253   4.37040
 Alpha virt. eigenvalues --    4.37321   4.38305   4.40336   4.41374   4.42203
 Alpha virt. eigenvalues --    4.43244   4.45489   4.47297   4.48070   4.48500
 Alpha virt. eigenvalues --    4.49806   4.51573   4.52446   4.53116   4.53806
 Alpha virt. eigenvalues --    4.55753   4.56157   4.57350   4.57810   4.62580
 Alpha virt. eigenvalues --    4.63198   4.64840   4.66032   4.68233   4.68656
 Alpha virt. eigenvalues --    4.71211   4.73397   4.74332   4.74687   4.76401
 Alpha virt. eigenvalues --    4.76934   4.77769   4.78601   4.81744   4.84515
 Alpha virt. eigenvalues --    4.85529   4.86564   4.87369   4.89255   4.91141
 Alpha virt. eigenvalues --    4.93005   4.95099   4.96181   4.97275   5.00072
 Alpha virt. eigenvalues --    5.01337   5.02749   5.04967   5.06750   5.08564
 Alpha virt. eigenvalues --    5.09620   5.12696   5.14209   5.15400   5.15519
 Alpha virt. eigenvalues --    5.17426   5.17509   5.22336   5.23569   5.25546
 Alpha virt. eigenvalues --    5.25660   5.30204   5.31987   5.37445   5.38287
 Alpha virt. eigenvalues --    5.39188   5.39401   5.43735   5.44868   5.46005
 Alpha virt. eigenvalues --    5.48191   5.53922   5.58789   5.61598   5.63500
 Alpha virt. eigenvalues --    5.66921   5.68782   5.70103   5.72356   5.80444
 Alpha virt. eigenvalues --    5.88956   5.91145   5.98851   6.12329   6.24111
 Alpha virt. eigenvalues --    6.31014   6.42467   6.49863   6.64665   6.72831
 Alpha virt. eigenvalues --    6.74196   6.77125   6.77307   6.77527   6.77873
 Alpha virt. eigenvalues --    6.77963   6.78325   6.78748   6.79321   6.88206
 Alpha virt. eigenvalues --    6.92187   6.93186   6.95006   6.96103   6.96622
 Alpha virt. eigenvalues --    7.03630   7.12216   7.13906   7.14299   7.16758
 Alpha virt. eigenvalues --    7.26724   7.27000   7.28331   8.19780   8.23335
 Alpha virt. eigenvalues --    8.23699   8.36419   8.37117   8.41844   8.67512
 Alpha virt. eigenvalues --    8.68701   8.70299   8.70924   8.75085   8.75517
 Alpha virt. eigenvalues --    8.76066   8.80729   8.83018  15.46076  21.95269
 Alpha virt. eigenvalues --   22.07062  22.09260  22.16529  22.19816  22.34294
 Alpha virt. eigenvalues --   22.35871  22.37179  22.37565  22.39504  22.41639
 Alpha virt. eigenvalues --   22.43975  22.46225  22.50294  22.52552  22.56161
 Alpha virt. eigenvalues --   22.62861  22.66274  22.68667  22.74754  22.81081
 Alpha virt. eigenvalues --   22.87867  23.00523  23.05032  23.10564  23.42099
 Alpha virt. eigenvalues --   32.98576  43.83258  56.61469  56.68021  56.74194
          Condensed to atoms (all electrons):
 Mulliken charges:
               1
     1  C   -0.130254
     2  C   -0.167344
     3  C    0.077014
     4  C    0.123281
     5  C   -0.241864
     6  C   -0.133807
     7  C    0.225005
     8  C    0.106436
     9  C    0.078654
    10  C   -0.171785
    11  H    0.168200
    12  C   -0.125421
    13  C   -0.135505
    14  C   -0.237474
    15  H    0.158177
    16  H    0.168133
    17  H    0.185553
    18  H    0.155201
    19  H    0.158743
    20  H    0.155310
    21  H    0.180423
    22  N    0.326022
    23  C    0.126504
    24  C   -0.416813
    25  C   -0.281898
    26  C    0.024342
    27  C   -0.140265
    28  C   -0.219234
    29  H    0.137384
    30  H    0.160051
    31  C   -0.000613
    32  C   -0.208668
    33  C   -0.183716
    34  C   -0.241456
    35  H    0.150389
    36  C   -0.202070
    37  H    0.144650
    38  C    0.323155
    39  H    0.157824
    40  H    0.132380
    41  O   -0.196338
    42  C   -0.257877
    43  H    0.162992
    44  H    0.148923
    45  H    0.149059
    46  H    0.155039
    47  H    0.131821
    48  B    0.472417
    49  F   -0.389548
    50  F   -0.383095
[...]
 Alpha virt. eigenvalues --    0.54056   0.55041   0.55397   0.55646   0.55910
 Alpha virt. eigenvalues --    0.56770   0.56866   0.57127   0.57598   0.58109
 Alpha virt. eigenvalues --    0.58188   0.58607   0.59305   0.59914   0.60275
 Alpha virt. eigenvalues --    0.60408   0.60943   0.61278   0.61602   0.61847
 Alpha virt. eigenvalues --    0.62064   0.62214   0.62397   0.62749   0.62978
 Alpha virt. eigenvalues --    0.63282   0.63689   0.64091   0.64187   0.64643
 Alpha virt. eigenvalues --    0.64944   0.65352   0.65503   0.65720   0.66149
 Alpha virt. eigenvalues --    0.66635   0.66757   0.67203   0.68192   0.68236
 Alpha virt. eigenvalues --    0.68844   0.68910   0.69585   0.69819   0.70128
 Alpha virt. eigenvalues --    0.70388   0.70900   0.71020   0.71553   0.71922
 Alpha virt. eigenvalues --    0.72024   0.72314   0.72872   0.73319   0.73766
 Alpha virt. eigenvalues --    0.73995   0.74113   0.74558   0.75118   0.75200
 Alpha virt. eigenvalues --    0.76379   0.77021   0.77461   0.77822   0.78098
 Alpha virt. eigenvalues --    0.78282   0.78810   0.79107   0.79875   0.80024
 Alpha virt. eigenvalues --    0.80259   0.81239   0.81603   0.81783   0.82126
 Alpha virt. eigenvalues --    0.82539   0.82726   0.83137   0.83807   0.84367
 Alpha virt. eigenvalues --    0.84801   0.85366   0.86553   0.86759   0.87698
 Alpha virt. eigenvalues --    0.88483   0.88562   0.89305   0.89590   0.90331
 Alpha virt. eigenvalues --    0.90652   0.90995   0.91854   0.92117   0.93022
 Alpha virt. eigenvalues --    0.93671   0.94662   0.94676   0.95038   0.96366
 Alpha virt. eigenvalues --    0.96413   0.97297   0.98042   0.98748   0.99117
 Alpha virt. eigenvalues --    0.99537   1.00274   1.00596   1.01766   1.02002
 Alpha virt. eigenvalues --    1.02675   1.02819   1.02955   1.03550   1.04174
 Alpha virt. eigenvalues --    1.04881   1.05000   1.05492   1.05822   1.06848
 Alpha virt. eigenvalues --    1.07726   1.07918   1.08945   1.09732   1.10371
 Alpha virt. eigenvalues --    1.10565   1.11006   1.11684   1.12797   1.13128
 Alpha virt. eigenvalues --    1.13367   1.13992   1.15723   1.16233   1.16687
 Alpha virt. eigenvalues --    1.16792   1.17219   1.17701   1.18117   1.18536
 Alpha virt. eigenvalues --    1.18944   1.19407   1.19796   1.20142   1.20794
 Alpha virt. eigenvalues --    1.21388   1.21870   1.22674   1.23256   1.23548
 Alpha virt. eigenvalues --    1.24027   1.24307   1.25023   1.25332   1.25754
 Alpha virt. eigenvalues --    1.26244   1.26967   1.27501   1.28057   1.28670
 Alpha virt. eigenvalues --    1.29559   1.30389   1.30980   1.31745   1.31975
 Alpha virt. eigenvalues --    1.32687   1.33520   1.34562   1.35694   1.36013
 Alpha virt. eigenvalues --    1.36148   1.36404   1.36847   1.37129   1.37520
 Alpha virt. eigenvalues --    1.37802   1.38767   1.40650   1.41581   1.41955
 Alpha virt. eigenvalues --    1.42101   1.42591   1.42899   1.43347   1.43990
 Alpha virt. eigenvalues --    1.44744   1.44868   1.45318   1.45874   1.46536
 Alpha virt. eigenvalues --    1.46834   1.47203   1.47264   1.47455   1.47877
 Alpha virt. eigenvalues --    1.48491   1.49063   1.50266   1.50416   1.50527
 Alpha virt. eigenvalues --    1.50694   1.51031   1.51902   1.52218   1.52911
 Alpha virt. eigenvalues --    1.53204   1.53524   1.54403   1.55009   1.55957
 Alpha virt. eigenvalues --    1.56098   1.56798   1.57368   1.58291   1.58543
 Alpha virt. eigenvalues --    1.58692   1.59563   1.59816   1.60435   1.60877
 Alpha virt. eigenvalues --    1.61344   1.61816   1.62103   1.62515   1.62981
 Alpha virt. eigenvalues --    1.63157   1.63716   1.64180   1.65067   1.65716
 Alpha virt. eigenvalues --    1.66165   1.67067   1.67877   1.68022   1.68335
 Alpha virt. eigenvalues --    1.68725   1.68963   1.69693   1.70038   1.70882
 Alpha virt. eigenvalues --    1.71644   1.72029   1.72540   1.73895   1.74144
 Alpha virt. eigenvalues --    1.75658   1.76287   1.76855   1.77876   1.78171
 Alpha virt. eigenvalues --    1.78750   1.78998   1.80195   1.80533   1.81291
 Alpha virt. eigenvalues --    1.81552   1.82063   1.82438   1.82763   1.83293
 Alpha virt. eigenvalues --    1.83863   1.85273   1.85378   1.86578   1.87480
 Alpha virt. eigenvalues --    1.87551   1.87848   1.88889   1.89431   1.90352
 Alpha virt. eigenvalues --    1.90773   1.92081   1.92258   1.92873   1.93452
 Alpha virt. eigenvalues --    1.94201   1.95410   1.96346   1.97171   1.97510
 Alpha virt. eigenvalues --    1.98210   1.98893   1.99240   1.99796   2.00176
 Alpha virt. eigenvalues --    2.00511   2.01361   2.01852   2.03065   2.03355
 Alpha virt. eigenvalues --    2.03637   2.03960   2.05002   2.05507   2.05946
 Alpha virt. eigenvalues --    2.07068   2.08213   2.08567   2.08736   2.09017
 Alpha virt. eigenvalues --    2.09921   2.10201   2.10251   2.10545   2.11705
 Alpha virt. eigenvalues --    2.13367   2.14118   2.14345   2.15162   2.15649
 Alpha virt. eigenvalues --    2.15779   2.15937   2.17449   2.17683   2.17879
 Alpha virt. eigenvalues --    2.18384   2.19719   2.20394   2.20717   2.21645
 Alpha virt. eigenvalues --    2.22228   2.22445   2.23336   2.23829   2.24226
 Alpha virt. eigenvalues --    2.25086   2.27139   2.27627   2.28377   2.29839
 Alpha virt. eigenvalues --    2.30321   2.30779   2.31347   2.32107   2.32547
 Alpha virt. eigenvalues --    2.33292   2.34356   2.34587   2.35513   2.38051
 Alpha virt. eigenvalues --    2.38430   2.39398   2.40263   2.40619   2.41573
 Alpha virt. eigenvalues --    2.42167   2.42970   2.43684   2.44403   2.45247
 Alpha virt. eigenvalues --    2.46291   2.46478   2.46682   2.47019   2.48110
 Alpha virt. eigenvalues --    2.48345   2.48543   2.49255   2.50068   2.50718
 Alpha virt. eigenvalues --    2.50973   2.51359   2.52287   2.52604   2.52822
 Alpha virt. eigenvalues --    2.53328   2.53906   2.54109   2.54557   2.54944
 Alpha virt. eigenvalues --    2.55777   2.56383   2.56610   2.57417   2.57955
 Alpha virt. eigenvalues --    2.58405   2.58845   2.59003   2.59522   2.60187
 Alpha virt. eigenvalues --    2.60322   2.60553   2.61247   2.61705   2.62205
 Alpha virt. eigenvalues --    2.62436   2.62656   2.62879   2.63416   2.63564
 Alpha virt. eigenvalues --    2.64183   2.64791   2.65132   2.65378   2.65885
 Alpha virt. eigenvalues --    2.66277   2.67198   2.67698   2.67969   2.68580
 Alpha virt. eigenvalues --    2.68732   2.69203   2.69797   2.70209   2.70309
 Alpha virt. eigenvalues --    2.71088   2.71532   2.72202   2.72270   2.72773
 Alpha virt. eigenvalues --    2.73096   2.73474   2.74339   2.74762   2.74895
 Alpha virt. eigenvalues --    2.75345   2.75661   2.76169   2.76701   2.77293
 Alpha virt. eigenvalues --    2.77826   2.77962   2.78747   2.79181   2.79937
 Alpha virt. eigenvalues --    2.80281   2.80729   2.80842   2.81471   2.81746
 Alpha virt. eigenvalues --    2.82342   2.83201   2.83422   2.83753   2.84119
 Alpha virt. eigenvalues --    2.84814   2.85442   2.85954   2.86371   2.86679
 Alpha virt. eigenvalues --    2.87347   2.87969   2.89073   2.89297   2.89712
 Alpha virt. eigenvalues --    2.90570   2.90765   2.91292   2.92152   2.92619
 Alpha virt. eigenvalues --    2.93504   2.93856   2.94692   2.94925   2.95332
 Alpha virt. eigenvalues --    2.95493   2.96061   2.96641   2.97632   2.98359
 Alpha virt. eigenvalues --    2.98578   2.98905   2.99082   3.00657   3.01987
 Alpha virt. eigenvalues --    3.02054   3.02643   3.03216   3.03446   3.03929
 Alpha virt. eigenvalues --    3.04140   3.04563   3.05582   3.05649   3.06085
 Alpha virt. eigenvalues --    3.06263   3.07358   3.07663   3.07927   3.08067
 Alpha virt. eigenvalues --    3.08521   3.09307   3.10353   3.10527   3.10782
 Alpha virt. eigenvalues --    3.11466   3.11852   3.12422   3.12530   3.12883
 Alpha virt. eigenvalues --    3.13441   3.14202   3.14639   3.15312   3.15703
 Alpha virt. eigenvalues --    3.16223   3.16561   3.17038   3.17929   3.18713
 Alpha virt. eigenvalues --    3.19127   3.19447   3.20626   3.20694   3.20912
 Alpha virt. eigenvalues --    3.21343   3.21670   3.22339   3.22774   3.22932
 Alpha virt. eigenvalues --    3.23435   3.24015   3.24080   3.24648   3.25403
 Alpha virt. eigenvalues --    3.25826   3.26050   3.26780   3.27321   3.27581
 Alpha virt. eigenvalues --    3.27801   3.28271   3.28773   3.29502   3.29564
 Alpha virt. eigenvalues --    3.29705   3.30359   3.30922   3.31674   3.32041
 Alpha virt. eigenvalues --    3.32638   3.33015   3.33322   3.34423   3.34627
 Alpha virt. eigenvalues --    3.34894   3.34990   3.35642   3.36178   3.36602
 Alpha virt. eigenvalues --    3.36914   3.37372   3.37878   3.38022   3.38520
 Alpha virt. eigenvalues --    3.38718   3.39552   3.39645   3.40390   3.40845
 Alpha virt. eigenvalues --    3.41098   3.41733   3.42064   3.42135   3.42589
 Alpha virt. eigenvalues --    3.43223   3.43815   3.44130   3.44418   3.45034
 Alpha virt. eigenvalues --    3.45277   3.45622   3.45871   3.46155   3.46399
 Alpha virt. eigenvalues --    3.47575   3.48307   3.48494   3.49254   3.49494
 Alpha virt. eigenvalues --    3.49899   3.50233   3.50899   3.51742   3.52421
 Alpha virt. eigenvalues --    3.52893   3.53333   3.54366   3.55384   3.56216
 Alpha virt. eigenvalues --    3.56886   3.57620   3.58491   3.58628   3.59575
 Alpha virt. eigenvalues --    3.60937   3.62047   3.62286   3.63010   3.63926
 Alpha virt. eigenvalues --    3.64344   3.65321   3.66365   3.67347   3.69182
 Alpha virt. eigenvalues --    3.69640   3.70260   3.71917   3.72221   3.72502
 Alpha virt. eigenvalues --    3.73582   3.74920   3.75547   3.77044   3.77946
 Alpha virt. eigenvalues --    3.79512   3.79917   3.80731   3.81325   3.82242
 Alpha virt. eigenvalues --    3.83580   3.85138   3.85885   3.87020   3.87060
 Alpha virt. eigenvalues --    3.87889   3.89687   3.90135   3.90669   3.90976
 Alpha virt. eigenvalues --    3.91940   3.92131   3.93075   3.93790   3.95196
 Alpha virt. eigenvalues --    3.95435   3.96655   3.97229   3.97759   3.98841
 Alpha virt. eigenvalues --    3.99641   3.99979   4.00674   4.01608   4.03100
 Alpha virt. eigenvalues --    4.04198   4.04674   4.04885   4.05229   4.06236
 Alpha virt. eigenvalues --    4.06727   4.06860   4.07600   4.08593   4.09508
 Alpha virt. eigenvalues --    4.10499   4.11267   4.11882   4.12290   4.12470
 Alpha virt. eigenvalues --    4.12558   4.13330   4.13438   4.13966   4.14234
 Alpha virt. eigenvalues --    4.14650   4.15509   4.15689   4.16467   4.17199
 Alpha virt. eigenvalues --    4.17874   4.18488   4.19115   4.20027   4.20228
 Alpha virt. eigenvalues --    4.21791   4.23664   4.24087   4.24498   4.25505
 Alpha virt. eigenvalues --    4.26922   4.28400   4.28834   4.30360   4.32183
 Alpha virt. eigenvalues --    4.33246   4.33664   4.34393   4.34909   4.35465
 Alpha virt. eigenvalues --    4.36470   4.37181   4.40269   4.42088   4.43539
 Alpha virt. eigenvalues --    4.43728   4.45701   4.46978   4.48677   4.49037
 Alpha virt. eigenvalues --    4.50038   4.51149   4.52618   4.52997   4.53545
 Alpha virt. eigenvalues --    4.55469   4.56848   4.57121   4.58564   4.62502
 Alpha virt. eigenvalues --    4.62859   4.64594   4.67350   4.68196   4.68269
 Alpha virt. eigenvalues --    4.71209   4.73283   4.73906   4.75479   4.76993
 Alpha virt. eigenvalues --    4.77064   4.78335   4.79254   4.81514   4.84186
 Alpha virt. eigenvalues --    4.85145   4.86280   4.87166   4.88992   4.91266
 Alpha virt. eigenvalues --    4.92730   4.95409   4.96747   4.97165   5.00868
 Alpha virt. eigenvalues --    5.01678   5.03450   5.05327   5.06963   5.08690
 Alpha virt. eigenvalues --    5.09517   5.12352   5.14451   5.15098   5.16398
 Alpha virt. eigenvalues --    5.17449   5.18457   5.21877   5.23711   5.25249
 Alpha virt. eigenvalues --    5.25809   5.31359   5.31810   5.36201   5.37596
 Alpha virt. eigenvalues --    5.38808   5.40724   5.43789   5.45086   5.46383
 Alpha virt. eigenvalues --    5.48983   5.55245   5.59094   5.61022   5.62618
 Alpha virt. eigenvalues --    5.65896   5.68107   5.70576   5.72788   5.76191
 Alpha virt. eigenvalues --    5.86702   5.92168   5.98431   6.12598   6.21884
 Alpha virt. eigenvalues --    6.31470   6.38377   6.49762   6.64851   6.71121
 Alpha virt. eigenvalues --    6.74951   6.77564   6.77888   6.77987   6.78123
 Alpha virt. eigenvalues --    6.78180   6.78584   6.78623   6.79469   6.87562
 Alpha virt. eigenvalues --    6.89175   6.90143   6.94236   6.95383   6.95655
 Alpha virt. eigenvalues --    7.02635   7.09556   7.11716   7.12577   7.15325
 Alpha virt. eigenvalues --    7.23993   7.25016   7.28060   8.20388   8.22461
 Alpha virt. eigenvalues --    8.22692   8.35744   8.36138   8.42013   8.62374
 Alpha virt. eigenvalues --    8.64107   8.65145   8.68389   8.71971   8.75533
 Alpha virt. eigenvalues --    8.76356   8.80502   8.82227  15.28383  21.96751
 Alpha virt. eigenvalues --   22.04148  22.06232  22.16200  22.21068  22.34751
 Alpha virt. eigenvalues --   22.35979  22.36903  22.37487  22.40523  22.42444
 Alpha virt. eigenvalues --   22.44101  22.46492  22.50227  22.53619  22.56065
 Alpha virt. eigenvalues --   22.63971  22.65310  22.69217  22.74413  22.83448
 Alpha virt. eigenvalues --   22.90048  23.00854  23.03811  23.11897  23.44416
 Alpha virt. eigenvalues --   32.98655  43.81064  56.58555  56.65286  56.68549
          Condensed to atoms (all electrons):
 Mulliken charges:
               1
     1  C   -0.122715
     2  C   -0.168234
     3  C    0.077479
     4  C    0.112697
     5  C   -0.218999
     6  C   -0.131509
     7  C    0.229136
     8  C    0.112244
     9  C    0.073920
    10  C   -0.168057
    11  H    0.168456
    12  C   -0.123119
    13  C   -0.130056
    14  C   -0.227886
    15  H    0.159353
    16  H    0.168441
    17  H    0.174936
    18  H    0.155535
    19  H    0.159403
    20  H    0.155604
    21  H    0.174488
    22  N    0.333063
    23  C    0.079154
    24  C   -0.385751
    25  C   -0.255443
    26  C    0.048630
    27  C   -0.139367
    28  C   -0.215612
    29  H    0.138830
    30  H    0.147360
    31  C    0.002584
    32  C   -0.211466
    33  C   -0.184150
    34  C   -0.237058
    35  H    0.151552
    36  C   -0.204364
    37  H    0.146159
    38  C    0.324498
    39  H    0.158487
    40  H    0.133549
    41  O   -0.203490
    42  C   -0.258444
    43  H    0.163003
    44  H    0.152242
    45  H    0.152136
    46  H    0.133069
    47  H    0.131541
    48  B    0.468759
    49  F   -0.401814
    50  F   -0.399823
    51  F   -0.398951
 Sum of Mulliken charges =  -0.00000
 Mulliken charges with hydrogens summed into heavy atoms:
               1
     1  C    0.036638
     2  C    0.000207
     3  C    0.077479
     4  C    0.112697
     5  C   -0.044063
     6  C    0.024026
     7  C    0.229136
     8  C    0.112244
     9  C    0.073920
    10  C    0.000398
    12  C    0.036284
    13  C    0.025548
    14  C   -0.053398
    22  N    0.333063
    23  C    0.079154
    24  C   -0.252682
    25  C   -0.108083
    26  C    0.048630
    27  C   -0.000537
    28  C   -0.084071
    31  C    0.002584
    32  C   -0.059914
    33  C   -0.037991
    34  C   -0.078571
    36  C   -0.070815
    38  C    0.324498
    41  O   -0.203490
    42  C    0.208937
    48  B    0.468759
    49  F   -0.401814
    50  F   -0.399823
    51  F   -0.398951
 Electronic spatial extent (au):  <R**2>=          17548.6313
 Charge=              0.0000 electrons
 Dipole moment (field-independent basis, Debye):
    X=             32.4890    Y=              4.6403    Z=             -6.1259  Tot=             33.3855
 Quadrupole moment (field-independent basis, Debye-Ang):
   XX=           -280.4811   YY=           -156.4796   ZZ=           -184.4522
   XY=            -29.2911   XZ=             57.2392   YZ=              6.0218
 Traceless Quadrupole moment (field-independent basis, Debye-Ang):
   XX=            -73.3434   YY=             50.6580   ZZ=             22.6854
   XY=            -29.2911   XZ=             57.2392   YZ=              6.0218
 Octapole moment (field-independent basis, Debye-Ang**2):
  XXX=           1247.2716  YYY=             18.8602  ZZZ=              2.3114  XYY=             43.2710
  XXY=            122.6857  XXZ=           -119.5823  XZZ=            108.1118  YZZ=              0.3883
  YYZ=            -14.2700  XYZ=            -28.4160
 Hexadecapole moment (field-independent basis, Debye-Ang**3):
 XXXX=         -21464.7349 YYYY=          -2841.2134 ZZZZ=          -1382.4422 XXXY=          -1186.4411
 XXXZ=           2270.3318 YYYX=             22.2549 YYYZ=            153.9393 ZZZX=            110.6323
 ZZZY=            -60.6179 XXYY=          -3728.0110 XXZZ=          -3291.8722 YYZZ=           -823.4056
 XXYZ=              1.5148 YYXZ=             81.1139 ZZXY=            -63.9308
 N-N= 2.958406899292D+03 E-N=-9.318329899945D+03  KE= 1.449100582619D+03
 Leave Link  601 at Sat Mar 27 10:09:31 2021, MaxMem=  5242880000 cpu:         8.2
 (Enter /opt/nce/packages/global/g09/l9999.exe)
 1\1\GINC-CN030\SP\RPBEPBE TD-FC\Gen\C26H19B1F3N1O1\PNG4RJV\27-Mar-2021
 \0\\#p PBEPBE chkbasis geom=allcheck Guess=Read int=ultrafine scrf=(SM
 D,solvent=Acetonitrile) td=(NStates=30) EmpiricalDispersion=GD3BJ\\Tit
 le\\0,1\C,0,0.7601488702,3.3319669669,1.1043254888\C,0,1.5475779299,2.
 2583045586,0.7460345485\C,0,0.9565374648,0.9905106626,0.5395479328\C,0
 ,-0.463514224,0.8309623011,0.6790711873\C,0,-1.229354433,1.9646518733,
 1.0799881668\C,0,-0.6351029287,3.1865486224,1.2853057135\C,0,-1.054598
 8633,-0.4356592298,0.4489076221\C,0,-0.2247717914,-1.5286109213,0.0972
 600446\C,0,1.195622476,-1.3428832842,0.0015385293\C,0,2.0296825164,-2.
 4378537791,-0.3225130017\H,0,3.107176833,-2.298291122,-0.3793131759\C,
 0,1.4729498695,-3.6744982018,-0.571061497\C,0,0.0726767962,-3.86800087
 18,-0.5232541263\C,0,-0.7536011331,-2.8188944504,-0.1992190306\H,0,1.2
 277030215,4.3051987701,1.2617017103\H,0,2.6218619976,2.3804252203,0.62
 47794776\H,0,-2.3010668259,1.8421097003,1.2274704457\H,0,-1.2353170503
 ,4.0434779576,1.5927604448\H,0,2.1264443328,-4.511511489,-0.8216736523
 \H,0,-0.3485597971,-4.8478573962,-0.7503442218\H,0,-1.8331430421,-2.95
 7169525,-0.1731682198\N,0,1.7350507461,-0.0959776863,0.2155747318\C,0,
 -2.5162131765,-0.6128194179,0.5700581688\C,0,-3.3882369591,0.087189812
 ,-0.2823930247\C,0,-3.0486679555,-1.4815690341,1.5379903263\C,0,-4.781
 2491852,-0.0625862824,-0.2059532215\C,0,-4.4311048512,-1.6244790384,1.
 647438695\C,0,-5.2814562434,-0.9274570482,0.7832916428\H,0,-4.84505814
 55,-2.2839293944,2.4134064734\H,0,-2.3792640091,-2.0200268204,2.211142
 1374\C,0,3.1695943157,0.0778748084,0.0980477104\C,0,3.7243462109,0.381
 7619174,-1.1411761788\C,0,3.9741581728,-0.0632853647,1.2315584591\C,0,
 5.1048373802,0.5476342611,-1.2629441911\H,0,3.0788424238,0.4888388532,
 -2.0142891274\C,0,5.3482563313,0.1003791679,1.1171019488\H,0,3.5209333
 311,-0.3008944686,2.1951183755\C,0,5.9237021767,0.4056274407,-0.130509
 7307\H,0,5.5301324272,0.7856526376,-2.2363738574\H,0,5.9963166948,-0.0
 057013433,1.9882150413\O,0,7.2736541748,0.5437892764,-0.1424178072\C,0
 ,7.89911946,0.8499945329,-1.3979036525\H,0,8.9723394114,0.9128294217,-
 1.1855236588\H,0,7.7154708504,0.0550621451,-2.1375686714\H,0,7.5447587
 552,1.814626073,-1.7937393713\H,0,-2.9575714666,0.7541220423,-1.033724
 6893\H,0,-6.3622942801,-1.0555328178,0.8844801384\B,0,-5.7570637836,0.
 7117649813,-1.2467365284\F,0,-5.2502391908,2.0132104358,-1.5708387106\
 F,0,-7.0758566585,0.8722645001,-0.7133075367\F,0,-5.8748479762,-0.0219
 87953,-2.4787722775\\Version=ES64L-G09RevE.01\State=1-A\HF=-1455.66141
 85\RMSD=6.848e-09\PG=C01 [X(C26H19B1F3N1O1)]\\@


 EVERYTHING'S GOT A MORAL, IF ONLY YOU CAN FIND IT.

                                    -- LEWIS CARROL, ALICE IN WONDERLAND
 Job cpu time:       1 days 14 hours 47 minutes 31.3 seconds.
 File lengths (MBytes):  RWF=   4969 Int=      0 D2E=      0 Chk=   1099 Scr=      1
 Normal termination of Gaussian 09 at Sat Mar 27 10:09:33 2021.
