 Entering Gaussian System, Link 0=g09
 Input=/home/png4rjv/fotokatalizis/benchmark/OPCs/PDI_1_TPSS_def2TZVP.gjf
 Output=/home/png4rjv/fotokatalizis/benchmark/OPCs/PDI_1_TPSS_def2TZVP.log
 Initial command:
 /opt/nce/packages/global/g09/l1.exe "/home/png4rjv/fotokatalizis/benchmark/OPCs/PDI_1_TPSS_def2TZVP/Gau-59480.inp" -scrdir="/home/png4rjv/fotokatalizis/benchmark/OPCs/PDI_1_TPSS_def2TZVP/"
 Default is to use a total of  12 processors:
                               12 via shared-memory
                                1 via Linda
 Entering Link 1 = /opt/nce/packages/global/g09/l1.exe PID=     59481.
  
 Copyright (c) 1988,1990,1992,1993,1995,1998,2003,2009,2015,
            Gaussian, Inc.  All Rights Reserved.
  
 This is part of the Gaussian(R) 09 program.  It is based on
 the Gaussian(R) 03 system (copyright 2003, Gaussian, Inc.),
 the Gaussian(R) 98 system (copyright 1998, Gaussian, Inc.),
 the Gaussian(R) 94 system (copyright 1995, Gaussian, Inc.),
 the Gaussian 92(TM) system (copyright 1992, Gaussian, Inc.),
 the Gaussian 90(TM) system (copyright 1990, Gaussian, Inc.),
 the Gaussian 88(TM) system (copyright 1988, Gaussian, Inc.),
 the Gaussian 86(TM) system (copyright 1986, Carnegie Mellon
 University), and the Gaussian 82(TM) system (copyright 1983,
 Carnegie Mellon University). Gaussian is a federally registered
 trademark of Gaussian, Inc.
  
 This software contains proprietary and confidential information,
 including trade secrets, belonging to Gaussian, Inc.
  
 This software is provided under written license and may be
 used, copied, transmitted, or stored only in accord with that
 written license.
  
 The following legend is applicable only to US Government
 contracts under FAR:
  
                    RESTRICTED RIGHTS LEGEND
  
 Use, reproduction and disclosure by the US Government is
 subject to restrictions as set forth in subparagraphs (a)
 and (c) of the Commercial Computer Software - Restricted
 Rights clause in FAR 52.227-19.
  
 Gaussian, Inc.
 340 Quinnipiac St., Bldg. 40, Wallingford CT 06492
  
  
 ---------------------------------------------------------------
 Warning -- This program may not be used in any manner that
 competes with the business of Gaussian, Inc. or will provide
 assistance to any competitor of Gaussian, Inc.  The licensee
 of this program is prohibited from giving any competitor of
 Gaussian, Inc. access to this program.  By using this program,
 the user acknowledges that Gaussian, Inc. is engaged in the
 business of creating and licensing software in the field of
 computational chemistry and represents and warrants to the
 licensee that it is not a competitor of Gaussian, Inc. and that
 it will not use this program in any manner prohibited above.
 ---------------------------------------------------------------
  

 Cite this work as:
 Gaussian 09, Revision E.01,
 M. J. Frisch, G. W. Trucks, H. B. Schlegel, G. E. Scuseria, 
 M. A. Robb, J. R. Cheeseman, G. Scalmani, V. Barone, B. Mennucci, 
 G. A. Petersson, H. Nakatsuji, M. Caricato, X. Li, H. P. Hratchian, 
 A. F. Izmaylov, J. Bloino, G. Zheng, J. L. Sonnenberg, M. Hada, 
 M. Ehara, K. Toyota, R. Fukuda, J. Hasegawa, M. Ishida, T. Nakajima, 
 Y. Honda, O. Kitao, H. Nakai, T. Vreven, J. A. Montgomery, Jr., 
 J. E. Peralta, F. Ogliaro, M. Bearpark, J. J. Heyd, E. Brothers, 
 K. N. Kudin, V. N. Staroverov, T. Keith, R. Kobayashi, J. Normand, 
 K. Raghavachari, A. Rendell, J. C. Burant, S. S. Iyengar, J. Tomasi, 
 M. Cossi, N. Rega, J. M. Millam, M. Klene, J. E. Knox, J. B. Cross, 
 V. Bakken, C. Adamo, J. Jaramillo, R. Gomperts, R. E. Stratmann, 
 O. Yazyev, A. J. Austin, R. Cammi, C. Pomelli, J. W. Ochterski, 
 R. L. Martin, K. Morokuma, V. G. Zakrzewski, G. A. Voth, 
 P. Salvador, J. J. Dannenberg, S. Dapprich, A. D. Daniels, 
 O. Farkas, J. B. Foresman, J. V. Ortiz, J. Cioslowski, 
 and D. J. Fox, Gaussian, Inc., Wallingford CT, 2013.
 
 ******************************************
 Gaussian 09:  ES64L-G09RevE.01 30-Nov-2015
                30-Mar-2021 
 ******************************************
 %chk=cp.chk
 Default route:  MaxDisk=500GB
 ----------------------------------------------------------------------
 #p TPSSTPSS/def2TZVP opt freq=noraman nosymm int=ultrafine scrf=(SMD,s
 olvent=Dichloromethane)
 ----------------------------------------------------------------------
 1/14=-1,18=20,19=15,26=4,38=1/1,3;
 2/9=110,12=2,15=1,17=6,18=5,40=1/2;
 3/5=44,7=101,11=2,16=1,25=1,30=1,70=32201,71=1,72=9,74=2523,75=-5/1,2,3;
 4//1;
 5/5=2,38=5,53=9/2;
 6/7=2,8=2,9=2,10=2,28=1/1;
 7/30=1/1,2,3,16;
 1/14=-1,18=20,19=15,26=4/3(2);
 2/9=110,15=1/2;
 99//99;
 2/9=110,15=1/2;
 3/5=44,7=101,11=2,16=1,25=1,30=1,70=32205,71=1,72=9,74=2523,75=-5/1,2,3;
 4/5=5,16=3,69=1/1;
 5/5=2,38=5,53=9/2;
 7/30=1/1,2,3,16;
 1/14=-1,18=20,19=15,26=4/3(-5);
 2/9=110,15=1/2;
 6/7=2,8=2,9=2,10=2,19=2,28=1/1;
 99/9=1/99;
 Leave Link    1 at Tue Mar 30 22:10:22 2021, MaxMem=           0 cpu:         0.9
 (Enter /opt/nce/packages/global/g09/l101.exe)
 -----
 Title
 -----
 Symbolic Z-matrix:
 Charge =  0 Multiplicity = 1
 C                     0.00132   1.476     2.43555 
 C                     0.00061   0.7324    1.25204 
 C                    -0.00146   1.43172   0.00275 
 C                    -0.00279   2.8618    0.00555 
 C                    -0.00201   3.57346   1.23089 
 C                     0.00005   2.87646   2.42921 
 H                     0.0029    0.96857   3.39915 
 C                    -0.00225   0.7374   -1.2495 
 C                    -0.00492   3.57681  -1.2175 
 H                     0.00063   3.44368   3.36116 
 C                    -0.00573   2.88562  -2.41882 
 C                    -0.00441   1.48512  -2.43045 
 H                    -0.0074    3.45704  -3.3483 
 H                    -0.00513   0.981    -3.39579 
 C                     0.0019   -0.73741   1.2493 
 C                     0.00121  -1.43172  -0.00294 
 C                     0.00381  -1.48513   2.43026 
 C                    -0.00076  -0.73241  -1.25224 
 C                     0.00255  -2.86181  -0.00574 
 C                     0.00513  -2.88562   2.41862 
 H                     0.00434  -0.981     3.3956 
 C                    -0.00119  -1.476    -2.43575 
 C                     0.00193  -3.57346  -1.23109 
 C                     0.00453  -3.57681   1.21732 
 H                     0.00666  -3.45704   3.34811 
 C                     0.00011  -2.87646  -2.4294 
 H                    -0.00257  -0.96857  -3.39935 
 H                    -0.00031  -3.44368  -3.36136 
 C                    -0.0034    5.05887   1.25658 
 O                    -0.00249   5.68818   2.29871 
 C                    -0.00632   5.06055  -1.23005 
 O                    -0.0084    5.70969  -2.26019 
 N                    -0.00529   5.70493   0.01208 
 C                     0.00315  -5.05887  -1.25679 
 O                     0.00283  -5.68819  -2.29892 
 C                     0.00607  -5.06055   1.22984 
 O                     0.00803  -5.70971   2.25997 
 N                     0.00526  -5.70492  -0.01229 
 C                    -0.0067    7.1665   -0.01856 
 H                     0.8798    7.53083  -0.55646 
 H                    -0.8966    7.52938  -0.55182 
 H                    -0.0043    7.52498   1.0148 
 C                     0.00692  -7.16649   0.01842 
 H                    -0.87969  -7.53098   0.55602 
 H                     0.00504  -7.525    -1.01492 
 H                     0.89667  -7.52917   0.55208 
 
 NAtoms=     46 NQM=       46 NQMF=       0 NMMI=      0 NMMIF=      0
                NMic=       0 NMicF=      0.
                    Isotopes and Nuclear Properties:
 (Nuclear quadrupole moments (NQMom) in fm**2, nuclear magnetic moments (NMagM)
  in nuclear magnetons)

  Atom         1           2           3           4           5           6           7           8           9          10
 IAtWgt=          12          12          12          12          12          12           1          12          12           1
 AtmWgt=  12.0000000  12.0000000  12.0000000  12.0000000  12.0000000  12.0000000   1.0078250  12.0000000  12.0000000   1.0078250
 NucSpn=           0           0           0           0           0           0           1           0           0           1
 AtZEff=   0.0000000   0.0000000   0.0000000   0.0000000   0.0000000   0.0000000   0.0000000   0.0000000   0.0000000   0.0000000
 NQMom=    0.0000000   0.0000000   0.0000000   0.0000000   0.0000000   0.0000000   0.0000000   0.0000000   0.0000000   0.0000000
 NMagM=    0.0000000   0.0000000   0.0000000   0.0000000   0.0000000   0.0000000   2.7928460   0.0000000   0.0000000   2.7928460
 AtZNuc=   6.0000000   6.0000000   6.0000000   6.0000000   6.0000000   6.0000000   1.0000000   6.0000000   6.0000000   1.0000000

  Atom        11          12          13          14          15          16          17          18          19          20
 IAtWgt=          12          12           1           1          12          12          12          12          12          12
 AtmWgt=  12.0000000  12.0000000   1.0078250   1.0078250  12.0000000  12.0000000  12.0000000  12.0000000  12.0000000  12.0000000
 NucSpn=           0           0           1           1           0           0           0           0           0           0
 AtZEff=   0.0000000   0.0000000   0.0000000   0.0000000   0.0000000   0.0000000   0.0000000   0.0000000   0.0000000   0.0000000
 NQMom=    0.0000000   0.0000000   0.0000000   0.0000000   0.0000000   0.0000000   0.0000000   0.0000000   0.0000000   0.0000000
 NMagM=    0.0000000   0.0000000   2.7928460   2.7928460   0.0000000   0.0000000   0.0000000   0.0000000   0.0000000   0.0000000
 AtZNuc=   6.0000000   6.0000000   1.0000000   1.0000000   6.0000000   6.0000000   6.0000000   6.0000000   6.0000000   6.0000000

  Atom        21          22          23          24          25          26          27          28          29          30
 IAtWgt=           1          12          12          12           1          12           1           1          12          16
 AtmWgt=   1.0078250  12.0000000  12.0000000  12.0000000   1.0078250  12.0000000   1.0078250   1.0078250  12.0000000  15.9949146
 NucSpn=           1           0           0           0           1           0           1           1           0           0
 AtZEff=   0.0000000   0.0000000   0.0000000   0.0000000   0.0000000   0.0000000   0.0000000   0.0000000   0.0000000   0.0000000
 NQMom=    0.0000000   0.0000000   0.0000000   0.0000000   0.0000000   0.0000000   0.0000000   0.0000000   0.0000000   0.0000000
 NMagM=    2.7928460   0.0000000   0.0000000   0.0000000   2.7928460   0.0000000   2.7928460   2.7928460   0.0000000   0.0000000
 AtZNuc=   1.0000000   6.0000000   6.0000000   6.0000000   1.0000000   6.0000000   1.0000000   1.0000000   6.0000000   8.0000000

  Atom        31          32          33          34          35          36          37          38          39          40
 IAtWgt=          12          16          14          12          16          12          16          14          12           1
 AtmWgt=  12.0000000  15.9949146  14.0030740  12.0000000  15.9949146  12.0000000  15.9949146  14.0030740  12.0000000   1.0078250
 NucSpn=           0           0           2           0           0           0           0           2           0           1
 AtZEff=   0.0000000   0.0000000   0.0000000   0.0000000   0.0000000   0.0000000   0.0000000   0.0000000   0.0000000   0.0000000
 NQMom=    0.0000000   0.0000000   2.0440000   0.0000000   0.0000000   0.0000000   0.0000000   2.0440000   0.0000000   0.0000000
 NMagM=    0.0000000   0.0000000   0.4037610   0.0000000   0.0000000   0.0000000   0.0000000   0.4037610   0.0000000   2.7928460
 AtZNuc=   6.0000000   8.0000000   7.0000000   6.0000000   8.0000000   6.0000000   8.0000000   7.0000000   6.0000000   1.0000000

  Atom        41          42          43          44          45          46
 IAtWgt=           1           1          12           1           1           1
 AtmWgt=   1.0078250   1.0078250  12.0000000   1.0078250   1.0078250   1.0078250
 NucSpn=           1           1           0           1           1           1
 AtZEff=   0.0000000   0.0000000   0.0000000   0.0000000   0.0000000   0.0000000
 NQMom=    0.0000000   0.0000000   0.0000000   0.0000000   0.0000000   0.0000000
 NMagM=    2.7928460   2.7928460   0.0000000   2.7928460   2.7928460   2.7928460
 AtZNuc=   1.0000000   1.0000000   6.0000000   1.0000000   1.0000000   1.0000000
 Leave Link  101 at Tue Mar 30 22:10:22 2021, MaxMem=  5242880000 cpu:         4.3
 (Enter /opt/nce/packages/global/g09/l103.exe)

 GradGradGradGradGradGradGradGradGradGradGradGradGradGradGradGradGradGrad
 Berny optimization.
 Initialization pass.
                           ----------------------------
                           !    Initial Parameters    !
                           ! (Angstroms and Degrees)  !
 --------------------------                            --------------------------
 ! Name  Definition              Value          Derivative Info.                !
 --------------------------------------------------------------------------------
 ! R1    R(1,2)                  1.3977         estimate D2E/DX2                !
 ! R2    R(1,6)                  1.4005         estimate D2E/DX2                !
 ! R3    R(1,7)                  1.089          estimate D2E/DX2                !
 ! R4    R(2,3)                  1.4317         estimate D2E/DX2                !
 ! R5    R(2,15)                 1.4698         estimate D2E/DX2                !
 ! R6    R(3,4)                  1.4301         estimate D2E/DX2                !
 ! R7    R(3,8)                  1.4318         estimate D2E/DX2                !
 ! R8    R(4,5)                  1.417          estimate D2E/DX2                !
 ! R9    R(4,9)                  1.4167         estimate D2E/DX2                !
 ! R10   R(5,6)                  1.3863         estimate D2E/DX2                !
 ! R11   R(5,29)                 1.4856         estimate D2E/DX2                !
 ! R12   R(6,10)                 1.091          estimate D2E/DX2                !
 ! R13   R(8,12)                 1.3978         estimate D2E/DX2                !
 ! R14   R(8,18)                 1.4698         estimate D2E/DX2                !
 ! R15   R(9,11)                 1.386          estimate D2E/DX2                !
 ! R16   R(9,31)                 1.4838         estimate D2E/DX2                !
 ! R17   R(11,12)                1.4005         estimate D2E/DX2                !
 ! R18   R(11,13)                1.0911         estimate D2E/DX2                !
 ! R19   R(12,14)                1.089          estimate D2E/DX2                !
 ! R20   R(15,16)                1.4318         estimate D2E/DX2                !
 ! R21   R(15,17)                1.3978         estimate D2E/DX2                !
 ! R22   R(16,18)                1.4317         estimate D2E/DX2                !
 ! R23   R(16,19)                1.4301         estimate D2E/DX2                !
 ! R24   R(17,20)                1.4005         estimate D2E/DX2                !
 ! R25   R(17,21)                1.089          estimate D2E/DX2                !
 ! R26   R(18,22)                1.3977         estimate D2E/DX2                !
 ! R27   R(19,23)                1.417          estimate D2E/DX2                !
 ! R28   R(19,24)                1.4167         estimate D2E/DX2                !
 ! R29   R(20,24)                1.386          estimate D2E/DX2                !
 ! R30   R(20,25)                1.0911         estimate D2E/DX2                !
 ! R31   R(22,26)                1.4005         estimate D2E/DX2                !
 ! R32   R(22,27)                1.089          estimate D2E/DX2                !
 ! R33   R(23,26)                1.3863         estimate D2E/DX2                !
 ! R34   R(23,34)                1.4856         estimate D2E/DX2                !
 ! R35   R(24,36)                1.4838         estimate D2E/DX2                !
 ! R36   R(26,28)                1.091          estimate D2E/DX2                !
 ! R37   R(29,30)                1.2174         estimate D2E/DX2                !
 ! R38   R(29,33)                1.4022         estimate D2E/DX2                !
 ! R39   R(31,32)                1.2176         estimate D2E/DX2                !
 ! R40   R(31,33)                1.3993         estimate D2E/DX2                !
 ! R41   R(33,39)                1.4619         estimate D2E/DX2                !
 ! R42   R(34,35)                1.2174         estimate D2E/DX2                !
 ! R43   R(34,38)                1.4022         estimate D2E/DX2                !
 ! R44   R(36,37)                1.2176         estimate D2E/DX2                !
 ! R45   R(36,38)                1.3993         estimate D2E/DX2                !
 ! R46   R(38,43)                1.4619         estimate D2E/DX2                !
 ! R47   R(39,40)                1.0991         estimate D2E/DX2                !
 ! R48   R(39,41)                1.0991         estimate D2E/DX2                !
 ! R49   R(39,42)                1.0938         estimate D2E/DX2                !
 ! R50   R(43,44)                1.0991         estimate D2E/DX2                !
 ! R51   R(43,45)                1.0938         estimate D2E/DX2                !
 ! R52   R(43,46)                1.0991         estimate D2E/DX2                !
 ! A1    A(2,1,6)              121.8818         estimate D2E/DX2                !
 ! A2    A(2,1,7)              120.0875         estimate D2E/DX2                !
 ! A3    A(6,1,7)              118.0306         estimate D2E/DX2                !
 ! A4    A(1,2,3)              118.62           estimate D2E/DX2                !
 ! A5    A(1,2,15)             122.2481         estimate D2E/DX2                !
 ! A6    A(3,2,15)             119.1318         estimate D2E/DX2                !
 ! A7    A(2,3,4)              119.1265         estimate D2E/DX2                !
 ! A8    A(2,3,8)              121.7551         estimate D2E/DX2                !
 ! A9    A(4,3,8)              119.1184         estimate D2E/DX2                !
 ! A10   A(3,4,5)              120.2593         estimate D2E/DX2                !
 ! A11   A(3,4,9)              120.1989         estimate D2E/DX2                !
 ! A12   A(5,4,9)              119.5418         estimate D2E/DX2                !
 ! A13   A(4,5,6)              119.6685         estimate D2E/DX2                !
 ! A14   A(4,5,29)             121.138          estimate D2E/DX2                !
 ! A15   A(6,5,29)             119.1935         estimate D2E/DX2                !
 ! A16   A(1,6,5)              120.4438         estimate D2E/DX2                !
 ! A17   A(1,6,10)             121.0671         estimate D2E/DX2                !
 ! A18   A(5,6,10)             118.4891         estimate D2E/DX2                !
 ! A19   A(3,8,12)             118.6537         estimate D2E/DX2                !
 ! A20   A(3,8,18)             119.1131         estimate D2E/DX2                !
 ! A21   A(12,8,18)            122.2332         estimate D2E/DX2                !
 ! A22   A(4,9,11)             119.7746         estimate D2E/DX2                !
 ! A23   A(4,9,31)             120.7955         estimate D2E/DX2                !
 ! A24   A(11,9,31)            119.4299         estimate D2E/DX2                !
 ! A25   A(9,11,12)            120.3903         estimate D2E/DX2                !
 ! A26   A(9,11,13)            118.5038         estimate D2E/DX2                !
 ! A27   A(12,11,13)           121.1059         estimate D2E/DX2                !
 ! A28   A(8,12,11)            121.864          estimate D2E/DX2                !
 ! A29   A(8,12,14)            120.0855         estimate D2E/DX2                !
 ! A30   A(11,12,14)           118.0505         estimate D2E/DX2                !
 ! A31   A(2,15,16)            119.1131         estimate D2E/DX2                !
 ! A32   A(2,15,17)            122.233          estimate D2E/DX2                !
 ! A33   A(16,15,17)           118.6539         estimate D2E/DX2                !
 ! A34   A(15,16,18)           121.755          estimate D2E/DX2                !
 ! A35   A(15,16,19)           119.1184         estimate D2E/DX2                !
 ! A36   A(18,16,19)           119.1266         estimate D2E/DX2                !
 ! A37   A(15,17,20)           121.864          estimate D2E/DX2                !
 ! A38   A(15,17,21)           120.0854         estimate D2E/DX2                !
 ! A39   A(20,17,21)           118.0506         estimate D2E/DX2                !
 ! A40   A(8,18,16)            119.1319         estimate D2E/DX2                !
 ! A41   A(8,18,22)            122.248          estimate D2E/DX2                !
 ! A42   A(16,18,22)           118.6201         estimate D2E/DX2                !
 ! A43   A(16,19,23)           120.2592         estimate D2E/DX2                !
 ! A44   A(16,19,24)           120.1986         estimate D2E/DX2                !
 ! A45   A(23,19,24)           119.5422         estimate D2E/DX2                !
 ! A46   A(17,20,24)           120.3902         estimate D2E/DX2                !
 ! A47   A(17,20,25)           121.1061         estimate D2E/DX2                !
 ! A48   A(24,20,25)           118.5037         estimate D2E/DX2                !
 ! A49   A(18,22,26)           121.8817         estimate D2E/DX2                !
 ! A50   A(18,22,27)           120.0876         estimate D2E/DX2                !
 ! A51   A(26,22,27)           118.0307         estimate D2E/DX2                !
 ! A52   A(19,23,26)           119.6682         estimate D2E/DX2                !
 ! A53   A(19,23,34)           121.1383         estimate D2E/DX2                !
 ! A54   A(26,23,34)           119.1935         estimate D2E/DX2                !
 ! A55   A(19,24,20)           119.7749         estimate D2E/DX2                !
 ! A56   A(19,24,36)           120.7943         estimate D2E/DX2                !
 ! A57   A(20,24,36)           119.4308         estimate D2E/DX2                !
 ! A58   A(22,26,23)           120.4442         estimate D2E/DX2                !
 ! A59   A(22,26,28)           121.0669         estimate D2E/DX2                !
 ! A60   A(23,26,28)           118.4889         estimate D2E/DX2                !
 ! A61   A(5,29,30)            122.1176         estimate D2E/DX2                !
 ! A62   A(5,29,33)            116.4446         estimate D2E/DX2                !
 ! A63   A(30,29,33)           121.4377         estimate D2E/DX2                !
 ! A64   A(9,31,32)            122.7013         estimate D2E/DX2                !
 ! A65   A(9,31,33)            116.9344         estimate D2E/DX2                !
 ! A66   A(32,31,33)           120.3644         estimate D2E/DX2                !
 ! A67   A(29,33,31)           125.1457         estimate D2E/DX2                !
 ! A68   A(29,33,39)           118.6365         estimate D2E/DX2                !
 ! A69   A(31,33,39)           116.2178         estimate D2E/DX2                !
 ! A70   A(23,34,35)           122.1182         estimate D2E/DX2                !
 ! A71   A(23,34,38)           116.4436         estimate D2E/DX2                !
 ! A72   A(35,34,38)           121.4381         estimate D2E/DX2                !
 ! A73   A(24,36,37)           122.7018         estimate D2E/DX2                !
 ! A74   A(24,36,38)           116.9351         estimate D2E/DX2                !
 ! A75   A(37,36,38)           120.3631         estimate D2E/DX2                !
 ! A76   A(34,38,36)           125.1464         estimate D2E/DX2                !
 ! A77   A(34,38,43)           118.6386         estimate D2E/DX2                !
 ! A78   A(36,38,43)           116.2151         estimate D2E/DX2                !
 ! A79   A(33,39,40)           109.9314         estimate D2E/DX2                !
 ! A80   A(33,39,41)           109.9403         estimate D2E/DX2                !
 ! A81   A(33,39,42)           107.9308         estimate D2E/DX2                !
 ! A82   A(40,39,41)           107.8288         estimate D2E/DX2                !
 ! A83   A(40,39,42)           110.6082         estimate D2E/DX2                !
 ! A84   A(41,39,42)           110.6068         estimate D2E/DX2                !
 ! A85   A(38,43,44)           109.9332         estimate D2E/DX2                !
 ! A86   A(38,43,45)           107.9301         estimate D2E/DX2                !
 ! A87   A(38,43,46)           109.9396         estimate D2E/DX2                !
 ! A88   A(44,43,45)           110.6118         estimate D2E/DX2                !
 ! A89   A(44,43,46)           107.8252         estimate D2E/DX2                !
 ! A90   A(45,43,46)           110.6065         estimate D2E/DX2                !
 ! D1    D(6,1,2,3)              0.0008         estimate D2E/DX2                !
 ! D2    D(6,1,2,15)          -179.9984         estimate D2E/DX2                !
 ! D3    D(7,1,2,3)           -179.9995         estimate D2E/DX2                !
 ! D4    D(7,1,2,15)             0.0013         estimate D2E/DX2                !
 ! D5    D(2,1,6,5)              0.0017         estimate D2E/DX2                !
 ! D6    D(2,1,6,10)          -179.9999         estimate D2E/DX2                !
 ! D7    D(7,1,6,5)           -179.9981         estimate D2E/DX2                !
 ! D8    D(7,1,6,10)             0.0003         estimate D2E/DX2                !
 ! D9    D(1,2,3,4)             -0.0029         estimate D2E/DX2                !
 ! D10   D(1,2,3,8)            179.998          estimate D2E/DX2                !
 ! D11   D(15,2,3,4)           179.9963         estimate D2E/DX2                !
 ! D12   D(15,2,3,8)            -0.0028         estimate D2E/DX2                !
 ! D13   D(1,2,15,16)         -179.9936         estimate D2E/DX2                !
 ! D14   D(1,2,15,17)            0.0049         estimate D2E/DX2                !
 ! D15   D(3,2,15,16)            0.0072         estimate D2E/DX2                !
 ! D16   D(3,2,15,17)         -179.9942         estimate D2E/DX2                !
 ! D17   D(2,3,4,5)              0.0028         estimate D2E/DX2                !
 ! D18   D(2,3,4,9)           -179.9967         estimate D2E/DX2                !
 ! D19   D(8,3,4,5)           -179.9981         estimate D2E/DX2                !
 ! D20   D(8,3,4,9)              0.0024         estimate D2E/DX2                !
 ! D21   D(2,3,8,12)           179.9941         estimate D2E/DX2                !
 ! D22   D(2,3,8,18)            -0.0062         estimate D2E/DX2                !
 ! D23   D(4,3,8,12)            -0.005          estimate D2E/DX2                !
 ! D24   D(4,3,8,18)           179.9947         estimate D2E/DX2                !
 ! D25   D(3,4,5,6)             -0.0004         estimate D2E/DX2                !
 ! D26   D(3,4,5,29)          -179.9985         estimate D2E/DX2                !
 ! D27   D(9,4,5,6)            179.9991         estimate D2E/DX2                !
 ! D28   D(9,4,5,29)             0.001          estimate D2E/DX2                !
 ! D29   D(3,4,9,11)             0.0014         estimate D2E/DX2                !
 ! D30   D(3,4,9,31)           179.9998         estimate D2E/DX2                !
 ! D31   D(5,4,9,11)          -179.9981         estimate D2E/DX2                !
 ! D32   D(5,4,9,31)             0.0003         estimate D2E/DX2                !
 ! D33   D(4,5,6,1)             -0.0018         estimate D2E/DX2                !
 ! D34   D(4,5,6,10)           179.9997         estimate D2E/DX2                !
 ! D35   D(29,5,6,1)           179.9963         estimate D2E/DX2                !
 ! D36   D(29,5,6,10)           -0.0022         estimate D2E/DX2                !
 ! D37   D(4,5,29,30)         -179.985          estimate D2E/DX2                !
 ! D38   D(4,5,29,33)           -0.0099         estimate D2E/DX2                !
 ! D39   D(6,5,29,30)            0.0169         estimate D2E/DX2                !
 ! D40   D(6,5,29,33)          179.9921         estimate D2E/DX2                !
 ! D41   D(3,8,12,11)            0.0039         estimate D2E/DX2                !
 ! D42   D(3,8,12,14)         -179.9952         estimate D2E/DX2                !
 ! D43   D(18,8,12,11)        -179.9958         estimate D2E/DX2                !
 ! D44   D(18,8,12,14)           0.0051         estimate D2E/DX2                !
 ! D45   D(3,8,18,16)            0.0107         estimate D2E/DX2                !
 ! D46   D(3,8,18,22)         -179.9891         estimate D2E/DX2                !
 ! D47   D(12,8,18,16)        -179.9896         estimate D2E/DX2                !
 ! D48   D(12,8,18,22)           0.0106         estimate D2E/DX2                !
 ! D49   D(4,9,11,12)           -0.0026         estimate D2E/DX2                !
 ! D50   D(4,9,11,13)          179.998          estimate D2E/DX2                !
 ! D51   D(31,9,11,12)         179.999          estimate D2E/DX2                !
 ! D52   D(31,9,11,13)          -0.0004         estimate D2E/DX2                !
 ! D53   D(4,9,31,32)         -179.9862         estimate D2E/DX2                !
 ! D54   D(4,9,31,33)            0.0074         estimate D2E/DX2                !
 ! D55   D(11,9,31,32)           0.0122         estimate D2E/DX2                !
 ! D56   D(11,9,31,33)        -179.9942         estimate D2E/DX2                !
 ! D57   D(9,11,12,8)           -0.0001         estimate D2E/DX2                !
 ! D58   D(9,11,12,14)         179.999          estimate D2E/DX2                !
 ! D59   D(13,11,12,8)         179.9993         estimate D2E/DX2                !
 ! D60   D(13,11,12,14)         -0.0016         estimate D2E/DX2                !
 ! D61   D(2,15,16,18)          -0.0026         estimate D2E/DX2                !
 ! D62   D(2,15,16,19)         179.9962         estimate D2E/DX2                !
 ! D63   D(17,15,16,18)        179.9988         estimate D2E/DX2                !
 ! D64   D(17,15,16,19)         -0.0024         estimate D2E/DX2                !
 ! D65   D(2,15,17,20)        -179.9954         estimate D2E/DX2                !
 ! D66   D(2,15,17,21)           0.0034         estimate D2E/DX2                !
 ! D67   D(16,15,17,20)          0.0032         estimate D2E/DX2                !
 ! D68   D(16,15,17,21)       -179.9981         estimate D2E/DX2                !
 ! D69   D(15,16,18,8)          -0.0063         estimate D2E/DX2                !
 ! D70   D(15,16,18,22)        179.9935         estimate D2E/DX2                !
 ! D71   D(19,16,18,8)         179.9948         estimate D2E/DX2                !
 ! D72   D(19,16,18,22)         -0.0054         estimate D2E/DX2                !
 ! D73   D(15,16,19,23)       -179.9985         estimate D2E/DX2                !
 ! D74   D(15,16,19,24)          0.0            estimate D2E/DX2                !
 ! D75   D(18,16,19,23)          0.0003         estimate D2E/DX2                !
 ! D76   D(18,16,19,24)        179.9988         estimate D2E/DX2                !
 ! D77   D(15,17,20,24)         -0.0015         estimate D2E/DX2                !
 ! D78   D(15,17,20,25)        179.9972         estimate D2E/DX2                !
 ! D79   D(21,17,20,24)        179.9998         estimate D2E/DX2                !
 ! D80   D(21,17,20,25)         -0.0015         estimate D2E/DX2                !
 ! D81   D(8,18,22,26)        -179.9939         estimate D2E/DX2                !
 ! D82   D(8,18,22,27)           0.0063         estimate D2E/DX2                !
 ! D83   D(16,18,22,26)          0.0063         estimate D2E/DX2                !
 ! D84   D(16,18,22,27)       -179.9935         estimate D2E/DX2                !
 ! D85   D(16,19,23,26)          0.0041         estimate D2E/DX2                !
 ! D86   D(16,19,23,34)       -179.9934         estimate D2E/DX2                !
 ! D87   D(24,19,23,26)       -179.9945         estimate D2E/DX2                !
 ! D88   D(24,19,23,34)          0.0081         estimate D2E/DX2                !
 ! D89   D(16,19,24,20)          0.0018         estimate D2E/DX2                !
 ! D90   D(16,19,24,36)       -179.9935         estimate D2E/DX2                !
 ! D91   D(23,19,24,20)       -179.9997         estimate D2E/DX2                !
 ! D92   D(23,19,24,36)          0.005          estimate D2E/DX2                !
 ! D93   D(17,20,24,19)         -0.0011         estimate D2E/DX2                !
 ! D94   D(17,20,24,36)        179.9943         estimate D2E/DX2                !
 ! D95   D(25,20,24,19)       -179.9998         estimate D2E/DX2                !
 ! D96   D(25,20,24,36)         -0.0044         estimate D2E/DX2                !
 ! D97   D(18,22,26,23)         -0.0019         estimate D2E/DX2                !
 ! D98   D(18,22,26,28)        179.9957         estimate D2E/DX2                !
 ! D99   D(27,22,26,23)        179.9979         estimate D2E/DX2                !
 ! D100  D(27,22,26,28)         -0.0046         estimate D2E/DX2                !
 ! D101  D(19,23,26,22)         -0.0033         estimate D2E/DX2                !
 ! D102  D(19,23,26,28)        179.999          estimate D2E/DX2                !
 ! D103  D(34,23,26,22)        179.9942         estimate D2E/DX2                !
 ! D104  D(34,23,26,28)         -0.0035         estimate D2E/DX2                !
 ! D105  D(19,23,34,35)       -179.9902         estimate D2E/DX2                !
 ! D106  D(19,23,34,38)         -0.0157         estimate D2E/DX2                !
 ! D107  D(26,23,34,35)          0.0124         estimate D2E/DX2                !
 ! D108  D(26,23,34,38)        179.9868         estimate D2E/DX2                !
 ! D109  D(19,24,36,37)        179.9863         estimate D2E/DX2                !
 ! D110  D(19,24,36,38)         -0.01           estimate D2E/DX2                !
 ! D111  D(20,24,36,37)         -0.009          estimate D2E/DX2                !
 ! D112  D(20,24,36,38)        179.9947         estimate D2E/DX2                !
 ! D113  D(5,29,33,31)           0.0189         estimate D2E/DX2                !
 ! D114  D(5,29,33,39)        -179.999          estimate D2E/DX2                !
 ! D115  D(30,29,33,31)        179.9942         estimate D2E/DX2                !
 ! D116  D(30,29,33,39)         -0.0237         estimate D2E/DX2                !
 ! D117  D(9,31,33,29)          -0.0178         estimate D2E/DX2                !
 ! D118  D(9,31,33,39)         179.9998         estimate D2E/DX2                !
 ! D119  D(32,31,33,29)        179.976          estimate D2E/DX2                !
 ! D120  D(32,31,33,39)         -0.0065         estimate D2E/DX2                !
 ! D121  D(29,33,39,40)        120.8123         estimate D2E/DX2                !
 ! D122  D(29,33,39,41)       -120.6325         estimate D2E/DX2                !
 ! D123  D(29,33,39,42)          0.0917         estimate D2E/DX2                !
 ! D124  D(31,33,39,40)        -59.204          estimate D2E/DX2                !
 ! D125  D(31,33,39,41)         59.3511         estimate D2E/DX2                !
 ! D126  D(31,33,39,42)       -179.9247         estimate D2E/DX2                !
 ! D127  D(23,34,38,36)          0.0107         estimate D2E/DX2                !
 ! D128  D(23,34,38,43)       -179.9827         estimate D2E/DX2                !
 ! D129  D(35,34,38,36)        179.9854         estimate D2E/DX2                !
 ! D130  D(35,34,38,43)         -0.0081         estimate D2E/DX2                !
 ! D131  D(24,36,38,34)          0.0016         estimate D2E/DX2                !
 ! D132  D(24,36,38,43)        179.9952         estimate D2E/DX2                !
 ! D133  D(37,36,38,34)       -179.9948         estimate D2E/DX2                !
 ! D134  D(37,36,38,43)         -0.0012         estimate D2E/DX2                !
 ! D135  D(34,38,43,44)       -120.7869         estimate D2E/DX2                !
 ! D136  D(34,38,43,45)         -0.0613         estimate D2E/DX2                !
 ! D137  D(34,38,43,46)        120.6617         estimate D2E/DX2                !
 ! D138  D(36,38,43,44)         59.2191         estimate D2E/DX2                !
 ! D139  D(36,38,43,45)        179.9447         estimate D2E/DX2                !
 ! D140  D(36,38,43,46)        -59.3323         estimate D2E/DX2                !
 --------------------------------------------------------------------------------
 Trust Radius=3.00D-01 FncErr=1.00D-07 GrdErr=1.00D-06
 Number of steps in this run=    276 maximum allowed number of steps=    276.
 GradGradGradGradGradGradGradGradGradGradGradGradGradGradGradGradGradGrad

 Leave Link  103 at Tue Mar 30 22:10:22 2021, MaxMem=  5242880000 cpu:         0.2
 (Enter /opt/nce/packages/global/g09/l202.exe)
                          Input orientation:                          
 ---------------------------------------------------------------------
 Center     Atomic      Atomic             Coordinates (Angstroms)
 Number     Number       Type             X           Y           Z
 ---------------------------------------------------------------------
      1          6           0        0.001321    1.476003    2.435548
      2          6           0        0.000613    0.732401    1.252043
      3          6           0       -0.001456    1.431715    0.002746
      4          6           0       -0.002790    2.861797    0.005546
      5          6           0       -0.002008    3.573455    1.230892
      6          6           0        0.000051    2.876458    2.429206
      7          1           0        0.002897    0.968574    3.399150
      8          6           0       -0.002245    0.737403   -1.249501
      9          6           0       -0.004915    3.576806   -1.217504
     10          1           0        0.000626    3.443684    3.361155
     11          6           0       -0.005728    2.885620   -2.418816
     12          6           0       -0.004407    1.485122   -2.430451
     13          1           0       -0.007402    3.457039   -3.348304
     14          1           0       -0.005126    0.980999   -3.395793
     15          6           0        0.001901   -0.737409    1.249303
     16          6           0        0.001211   -1.431722   -0.002944
     17          6           0        0.003814   -1.485125    2.430255
     18          6           0       -0.000756   -0.732406   -1.252241
     19          6           0        0.002547   -2.861805   -0.005743
     20          6           0        0.005128   -2.885622    2.418624
     21          1           0        0.004343   -0.980998    3.395595
     22          6           0       -0.001188   -1.476004   -2.435746
     23          6           0        0.001933   -3.573462   -1.231093
     24          6           0        0.004526   -3.576808    1.217315
     25          1           0        0.006663   -3.457042    3.348111
     26          6           0        0.000114   -2.876458   -2.429403
     27          1           0       -0.002566   -0.968574   -3.399348
     28          1           0       -0.000314   -3.443682   -3.361355
     29          6           0       -0.003401    5.058866    1.256583
     30          8           0       -0.002489    5.688182    2.298708
     31          6           0       -0.006323    5.060552   -1.230049
     32          8           0       -0.008404    5.709686   -2.260186
     33          7           0       -0.005291    5.704931    0.012083
     34          6           0        0.003150   -5.058870   -1.256794
     35          8           0        0.002825   -5.688189   -2.298918
     36          6           0        0.006073   -5.060548    1.229839
     37          8           0        0.008033   -5.709710    2.259967
     38          7           0        0.005263   -5.704922   -0.012287
     39          6           0       -0.006697    7.166503   -0.018559
     40          1           0        0.879797    7.530826   -0.556459
     41          1           0       -0.896597    7.529380   -0.551823
     42          1           0       -0.004304    7.524984    1.014802
     43          6           0        0.006919   -7.166488    0.018422
     44          1           0       -0.879688   -7.530976    0.556020
     45          1           0        0.005044   -7.525002   -1.014923
     46          1           0        0.896668   -7.529169    0.552078
 ---------------------------------------------------------------------
                    Distance matrix (angstroms):
                    1          2          3          4          5
     1  C    0.000000
     2  C    1.397723   0.000000
     3  C    2.433207   1.431708   0.000000
     4  C    2.797383   2.467406   1.430085   0.000000
     5  C    2.418783   2.841134   2.468885   1.417015   0.000000
     6  C    1.400470   2.445955   2.824003   2.423706   1.386278
     7  H    1.089043   2.160058   3.427839   3.885984   3.389214
     8  C    3.758341   2.501551   1.431849   2.467426   3.767697
     9  C    4.214048   3.766873   2.467881   1.416719   2.448400
    10  H    2.174515   3.435027   3.914963   3.405689   2.134214
    11  C    5.054891   4.255772   2.824504   2.424481   3.713960
    12  C    4.866011   3.758640   2.433785   2.798092   4.215041
    13  H    6.113716   5.346673   3.915547   3.406265   4.580679
    14  H    5.852316   4.654483   3.428298   3.886710   5.303494
    15  C    2.511249   1.469813   2.501802   3.808049   4.310905
    16  C    3.794879   2.501684   2.863444   4.293529   5.155013
    17  C    2.961134   2.511098   3.794836   4.977448   5.198821
    18  C    4.298472   2.901224   2.501682   3.807930   4.970552
    19  C    4.977598   3.807932   4.293530   5.723616   6.553004
    20  C    4.361659   3.801450   4.947313   6.233445   6.567376
    21  H    2.637907   2.744188   4.163249   5.124408   5.042720
    22  C    5.695951   4.298470   3.794875   4.977592   6.240294
    23  C    6.240301   4.970556   5.155014   6.553004   7.559088
    24  C    5.197596   4.309351   5.153690   6.551647   7.150279
    25  H    5.016745   4.684546   5.923806   7.148465   7.342382
    26  C    6.527761   5.155280   4.947293   6.233503   7.416141
    27  H    6.326293   4.952652   4.163608   5.124943   6.486074
    28  H    7.603117   6.222790   5.923400   7.148083   8.386236
    29  C    3.771855   4.326469   3.837751   2.528281   1.485634
    30  O    4.214403   5.065104   4.836213   3.639649   2.369030
    31  C    5.126953   4.989361   3.832527   2.522148   2.875362
    32  O    6.322506   6.091732   4.839622   3.639237   4.092817
    33  N    4.874121   5.124801   4.273228   2.843143   2.455340
    34  C    7.505862   6.311346   6.611668   8.020630   8.983632
    35  O    8.587247   7.337118   7.482694   8.855103   9.911490
    36  C    6.646823   5.792994   6.607215   8.016391   8.634007
    37  O    7.187861   6.520488   7.489665   8.863028   9.340035
    38  N    7.586672   6.560311   7.136656   8.566741   9.361294
    39  C    6.197136   6.558365   5.734830   4.304775   3.804096
    40  H    6.810632   7.089586   6.187768   4.784835   4.430913
    41  H    6.809847   7.089277   6.187919   4.784964   4.430317
    42  H    6.213592   6.796727   6.176746   4.771154   3.957434
    43  C    8.974140   7.994642   8.598221  10.028298  10.808170
    44  H    9.243077   8.339231   9.022596  10.444219  11.159488
    45  H    9.639702   8.562935   9.014348  10.436810  11.323404
    46  H    9.243497   8.339449   9.022518  10.444132  11.159600
                    6          7          8          9         10
     6  C    0.000000
     7  H    2.140285   0.000000
     8  C    4.255402   4.654398   0.000000
     9  C    3.713355   5.302493   2.839585   0.000000
    10  H    1.090997   2.475403   5.346224   4.580597   0.000000
    11  C    4.848034   6.125673   2.445843   1.385961   5.806853
    12  C    5.054909   5.852446   1.397759   2.417929   6.113811
    13  H    5.806613   7.191710   3.435320   2.134165   6.709477
    14  H    6.125635   6.794959   2.160073   3.388681   7.191745
    15  C    3.801606   2.744489   2.901570   4.969671   4.684171
    16  C    4.947299   4.163612   2.501803   5.153692   5.923407
    17  C    4.361585   2.638067   4.298869   6.239340   5.015949
    18  C    5.155284   4.952654   1.469812   4.309354   6.222793
    19  C    6.233510   5.124949   3.808051   6.551651   7.148090
    20  C    5.762092   3.976967   5.155726   7.415154   6.399101
    21  H    3.976669   1.949576   4.952763   6.484932   4.424818
    22  C    6.527763   6.326294   2.511244   5.197597   7.603117
    23  C    7.416149   6.486081   4.310906   7.150284   8.386244
    24  C    6.566075   5.041915   4.969672   7.556628   7.340529
    25  H    6.399817   4.425912   6.223462   8.385702   6.900741
    26  C    7.530081   6.982572   3.801600   6.566075   8.571742
    27  H    6.982573   7.069098   2.744485   5.041917   8.072944
    28  H    8.571742   8.072945   4.684165   7.340529   9.624342
    29  C    2.477491   4.617480   4.995548   2.884027   2.652933
    30  O    2.814752   4.846205   6.090977   4.101422   2.483259
    31  C    4.261508   6.178499   4.323195   1.483800   4.867593
    32  O    5.478837   7.382842   5.073965   2.374105   6.060885
    33  N    3.720588   5.822832   5.125226   2.457804   4.040985
    34  C    8.749631   7.616291   5.796280   8.635769   9.675685
    35  O    9.783064   8.762447   6.510725   9.327896  10.743721
    36  C    8.027115   6.407514   6.305825   8.977388   8.767240
    37  O    8.587839   6.774750   7.340418   9.916267   9.219398
    38  N    8.921939   7.494895   6.560054   9.359654   9.750750
    39  C    4.939239   7.077793   6.545882   3.784626   5.028111
    40  H    5.599222   7.712260   6.885412   4.105359   5.729343
    41  H    5.598231   7.711255   6.886042   4.106223   5.727942
    42  H    4.858946   6.976509   7.155301   4.535559   4.707697
    43  C   10.328247   8.809573   8.004949  10.814158  11.124282
    44  H   10.611195   9.005814   8.508578  11.282439  11.361641
    45  H   10.956844   9.572089   8.265737  11.103661  11.809409
    46  H   10.611532   9.006458   8.508228  11.282152  11.362100
                   11         12         13         14         15
    11  C    0.000000
    12  C    1.400547   0.000000
    13  H    1.091087   2.175068   0.000000
    14  H    2.140576   1.089048   2.476496   0.000000
    15  C    5.155724   4.298869   6.223461   4.952766   0.000000
    16  C    4.947315   3.794839   5.923807   4.163254   1.431850
    17  C    6.528169   5.696393   7.603740   6.326506   1.397759
    18  C    3.801452   2.511100   4.684546   2.744192   2.501550
    19  C    6.233449   4.977452   7.148469   5.124416   2.467428
    20  C    7.530483   6.528171   8.572454   6.982715   2.445842
    21  H    6.982708   6.326503   8.073195   7.069121   2.160072
    22  C    4.361659   2.961132   5.016743   2.637910   3.758340
    23  C    6.567380   5.198824   7.342385   5.042727   3.767700
    24  C    7.415155   6.239344   8.385703   6.484941   2.839580
    25  H    8.572454   7.603742   9.625315   8.073202   3.435320
    26  C    5.762091   4.361582   6.399814   3.976671   4.255398
    27  H    3.976967   2.638065   4.425910   1.949578   4.654397
    28  H    6.399099   5.015945   6.900737   4.424818   5.346222
    29  C    4.269843   5.134770   4.875536   6.186566   5.796282
    30  O    5.487203   6.326979   6.071801   7.388161   6.510721
    31  C    2.478608   3.771560   2.656738   4.618788   6.305839
    32  O    2.828519   4.227996   2.501683   4.863136   7.340412
    33  N    3.722605   4.875732   4.042923   5.824874   6.560069
    34  C    8.029028   6.648410   8.768993   6.407449   4.995553
    35  O    8.574652   7.174520   9.205244   6.758792   6.090985
    36  C    8.743821   7.499575   9.669998   7.609000   4.323185
    37  O    9.786261   8.588701  10.746266   8.760901   5.073978
    38  N    8.921262   7.585799   9.750420   7.493314   5.125213
    39  C    4.907871   6.172140   4.984709   7.047423   8.004959
    40  H    5.082368   6.390947   5.017695   7.193409   8.508536
    41  H    5.083681   6.392050   5.019456   7.194733   8.508299
    42  H    5.771779   6.953395   5.965306   7.891583   8.265722
    43  C   10.343363   8.991522  11.144253   8.833943   6.545850
    44  H   10.868253   9.538089  11.693635   9.425253   6.885521
    45  H   10.504860   9.120644  11.227201   8.832933   7.155288
    46  H   10.867767   9.537550  11.693036   9.424536   6.885836
                   16         17         18         19         20
    16  C    0.000000
    17  C    2.433786   0.000000
    18  C    1.431709   3.758641   0.000000
    19  C    1.430086   2.798095   2.467409   0.000000
    20  C    2.824506   1.400546   4.255775   2.424485   0.000000
    21  H    3.428298   1.089048   4.654482   3.886713   2.140576
    22  C    2.433206   4.866012   1.397720   2.797387   5.054896
    23  C    2.468887   4.215047   2.841136   1.417018   3.713969
    24  C    2.467881   2.417925   3.766876   1.416723   1.385959
    25  H    3.915549   2.175069   5.346675   3.406268   1.091086
    26  C    2.823998   5.054908   2.445950   2.423706   4.848038
    27  H    3.427839   5.852447   2.160057   3.885988   6.125678
    28  H    3.914960   6.113813   3.435023   3.405689   5.806860
    29  C    6.611669   6.648412   6.311342   8.020632   8.029029
    30  O    7.482690   7.174516   7.337111   8.855100   8.574646
    31  C    6.607228   7.499588   5.793003   8.016405   8.743834
    32  O    7.489656   8.588696   6.520472   8.863018   9.786254
    33  N    7.136672   7.585812   6.560323   8.566758   8.921275
    34  C    3.837753   5.134782   4.326468   2.528285   4.269860
    35  O    4.836219   6.326992   5.065109   3.639656   5.487221
    36  C    3.832513   3.771558   4.989347   2.522131   2.478611
    37  O    4.839627   4.228018   6.091735   3.639235   2.828543
    38  N    4.273212   4.875726   5.124787   2.843126   3.722604
    39  C    8.598243   8.991522   7.994671  10.028320  10.343366
    40  H    9.022503   9.538091   8.339094  10.444120  10.868236
    41  H    9.022676   9.537548   8.339678  10.444299  10.867793
    42  H    9.014345   9.120616   8.562943  10.436807  10.504833
    43  C    5.734809   6.172101   6.558358   4.304753   4.907829
    44  H    6.187837   6.391060   7.089632   4.784880   5.082471
    45  H    6.176745   6.953371   6.796743   4.771148   5.771749
    46  H    6.187791   6.391808   7.089212   4.784862   5.083440
                   21         22         23         24         25
    21  H    0.000000
    22  C    5.852316   0.000000
    23  C    5.303500   2.418787   0.000000
    24  C    3.388677   4.214056   2.448412   0.000000
    25  H    2.476500   6.113720   4.580686   2.134160   0.000000
    26  C    6.125634   1.400469   1.386277   3.713363   5.806616
    27  H    6.794958   1.089044   3.389217   5.302501   7.191715
    28  H    7.191746   2.174514   2.134213   4.580607   6.709483
    29  C    6.407448   7.505853   8.983632   8.635767   8.768995
    30  O    6.758785   8.587236   9.911486   9.327888   9.205240
    31  C    7.609009   6.646826   8.634018   8.977399   9.670012
    32  O    8.760895   7.187838   9.340020   9.916257  10.746261
    33  N    7.493323   7.586680   9.361309   9.359667   9.750435
    34  C    6.186579   3.771853   1.485631   2.884047   4.875553
    35  O    7.388175   4.214409   2.369034   4.101442   6.071818
    36  C    4.618791   5.126941   2.875348   1.483794   2.656748
    37  O    4.863166   6.322505   4.092810   2.374112   2.501714
    38  N    5.824871   4.874109   2.455325   2.457802   4.042925
    39  C    8.833931   8.974171  10.808199  10.814169  11.144252
    40  H    9.425301   9.242881  11.159345  11.282371  11.693642
    41  H    9.424454   9.243801  11.159833  11.282255  11.693025
    42  H    8.832892   9.639713  11.323409  11.103642  11.227170
    43  C    7.047382   6.197146   3.804096   3.784594   4.984658
    44  H    7.193532   6.810662   4.430908   4.105434   5.017801
    45  H    7.891556   6.213626   3.957450   4.535540   5.965263
    46  H    7.194468   6.809849   4.430335   4.106046   5.019176
                   26         27         28         29         30
    26  C    0.000000
    27  H    2.140285   0.000000
    28  H    1.090999   2.475401   0.000000
    29  C    8.749621   7.616280   9.675675   0.000000
    30  O    9.783052   8.762434  10.743708   1.217400   0.000000
    31  C    8.027118   6.407514   8.767240   2.486634   3.584140
    32  O    8.587816   6.774724   9.219370   3.576487   4.558949
    33  N    8.921946   7.494901   9.750755   1.402207   2.286688
    34  C    2.477487   4.617477   2.652927  10.425243  11.319927
    35  O    2.814758   4.846209   2.483263  11.319930  12.270290
    36  C    4.261495   6.178487   4.867582  10.119454  10.801748
    37  O    5.478829   7.382840   6.060876  10.815227  11.397963
    38  N    3.720576   5.822820   4.040977  10.838323  11.625127
    39  C   10.328276   8.809610  11.124314   2.463358   2.748668
    40  H   10.611000   9.005575  11.361420   3.190258   3.510804
    41  H   10.611827   9.006826  11.362433   3.189290   3.509269
    42  H   10.956850   9.572108  11.809420   2.477942   2.241040
    43  C    4.939256   7.077809   5.028144  12.287898  13.055357
    44  H    5.599227   7.712289   5.729319  12.639731  13.362357
    45  H    4.858985   6.976553   4.707754  12.787241  13.622351
    46  H    5.598282   7.711277   5.728066  12.639821  13.362543
                   31         32         33         34         35
    31  C    0.000000
    32  O    1.217605   0.000000
    33  N    1.399327   2.272276   0.000000
    34  C   10.119462  10.815208  10.838336   0.000000
    35  O   10.801759  11.397946  11.625144   1.217401   0.000000
    36  C   10.415751  11.321591  10.834140   2.486635   3.584141
    37  O   11.321615  12.281476  11.633881   3.576482   4.558939
    38  N   10.834136  11.633852  11.409884   1.402207   2.286694
    39  C    2.429555   2.673427   1.461894  12.287924  13.055391
    40  H    2.709462   2.647289   2.107253  12.639597  13.362171
    41  H    2.710662   2.649279   2.107375  12.640038  13.362838
    42  H    3.333584   3.744445   2.077989  12.787243  13.622361
    43  C   12.290621  13.076244  12.871426   2.463381   2.748718
    44  H   12.747525  13.564855  13.275906   3.190142   3.510750
    45  H   12.587398  13.293150  13.269739   2.477965   2.241100
    46  H   12.747252  13.564485  13.275787   3.189478   3.509464
                   36         37         38         39         40
    36  C    0.000000
    37  O    1.217612   0.000000
    38  N    1.399320   2.272261   0.000000
    39  C   12.290624  13.076267  12.871432   0.000000
    40  H   12.747429  13.564808  13.275766   1.099063   0.000000
    41  H   12.747369  13.564587  13.275963   1.099078   1.776401
    42  H   12.587373  13.293145  13.269718   1.093778   1.802923
    43  C    2.429509   2.673336   1.461890  14.333045  14.734431
    44  H    2.709542   2.647356   2.107269  14.734590  15.204975
    45  H    3.333540   3.744356   2.077973  14.725257  15.088185
    46  H    2.710463   2.648960   2.107365  14.734465  15.100748
                   41         42         43         44         45
    41  H    0.000000
    42  H    1.802920   0.000000
    43  C   14.734655  14.725225   0.000000
    44  H   15.101057  15.088363   1.099061   0.000000
    45  H   15.088467  15.186242   1.093772   1.802955   0.000000
    46  H   15.205075  15.088187   1.099081   1.776361   1.802915
                   46
    46  H    0.000000
 Symmetry turned off by external request.
 Stoichiometry    C26H14N2O4
 Framework group  C1[X(C26H14N2O4)]
 Deg. of freedom   132
 Full point group                 C1      NOp   1
 Rotational constants (GHZ):      0.4148324      0.0698284      0.0598127
 Leave Link  202 at Tue Mar 30 22:10:22 2021, MaxMem=  5242880000 cpu:         0.1
 (Enter /opt/nce/packages/global/g09/l301.exe)
 Standard basis: def2TZVP (5D, 7F)
 Ernie: Thresh=  0.10000D-02 Tol=  0.10000D-05 Strict=F.
  1076 basis functions,  1744 primitive gaussians,  1236 cartesian basis functions
   108 alpha electrons      108 beta electrons
       nuclear repulsion energy      2928.4823429911 Hartrees.
 IExCor= 2523 DFT=T Ex=TPSS Corr=TPSS ExCW=0 ScaHFX=  0.000000
 ScaDFX=  1.000000  1.000000  1.000000  1.000000 ScalE2=  1.000000  1.000000
 IRadAn=      5 IRanWt=     -1 IRanGd=            0 ICorTp=0 IEmpDi=  4
 NAtoms=   46 NActive=   46 NUniq=   46 SFac= 1.00D+00 NAtFMM=   60 NAOKFM=F Big=F
 Integral buffers will be    131072 words long.
 Raffenetti 2 integral format.
 Two-electron integral symmetry is turned off.
 ------------------------------------------------------------------------------
 Polarizable Continuum Model (PCM)
 =================================
 Model                : PCM (using non-symmetric T matrix).
 Atomic radii         : SMD-Coulomb.
 Polarization charges : Total charges.
 Charge compensation  : None.
 Solution method      : On-the-fly selection.
 Cavity type          : VdW (van der Waals Surface) (Alpha=1.000).
 Cavity algorithm     : GePol (No added spheres)
                        Default sphere list used, NSphG=   46.
                        Lebedev-Laikov grids with approx.  5.0 points / Ang**2.
                        Smoothing algorithm: York/Karplus (Gamma=1.0000).
                        Polarization charges: spherical gaussians, with
                                              point-specific exponents (IZeta= 3).
                        Self-potential: point-specific (ISelfS= 7).
                        Self-field    : sphere-specific E.n sum rule (ISelfD= 2).
 1st derivatives      : Analytical E(r).r(x)/FMM algorithm (CHGder, D1EAlg=3).
                        Cavity 1st derivative terms included.
 Solvent              : Dichloromethane, Eps=   8.930000 Eps(inf)=   2.028346
 ------------------------------------------------------------------------------
 GePol: Number of generator spheres                  =      46
 GePol: Total number of spheres                      =      46
 GePol: Number of exposed spheres                    =      46 (100.00%)
 GePol: Number of points                             =    3482
 GePol: Average weight of points                     =       0.12
 GePol: Minimum weight of points                     =   0.15D-09
 GePol: Maximum weight of points                     =    0.20498
 GePol: Number of points with low weight             =     232
 GePol: Fraction of low-weight points (<1% of avg)   =       6.66%
 GePol: Cavity surface area                          =    402.754 Ang**2
 GePol: Cavity volume                                =    431.339 Ang**3
 ------------------------------------------------------------------------------
 Atomic radii for non-electrostatic terms: SMD-CDS.
 ------------------------------------------------------------------------------
 PCM non-electrostatic energy =        -0.0153616657 Hartrees.
 Nuclear repulsion after PCM non-electrostatic terms =     2928.4669813253 Hartrees.
 Leave Link  301 at Tue Mar 30 22:10:23 2021, MaxMem=  5242880000 cpu:         1.5
 (Enter /opt/nce/packages/global/g09/l302.exe)
 NPDir=0 NMtPBC=     1 NCelOv=     1 NCel=       1 NClECP=     1 NCelD=      1
         NCelK=      1 NCelE2=     1 NClLst=     1 CellRange=     0.0.
 One-electron integrals computed using PRISM.
   1 Symmetry operations used in ECPInt.
 ECPInt:  NShTT=   83436 NPrTT=  263196 LenC2=   64604 LenP2D=  139720.
 LDataN:  DoStor=T MaxTD1= 6 Len=  172
 NBasis=  1076 RedAO= T EigKep=  1.32D-06  NBF=  1076
 NBsUse=  1076 1.00D-06 EigRej= -1.00D+00 NBFU=  1076
 Precomputing XC quadrature grid using
 IXCGrd= 4 IRadAn=           5 IRanWt=          -1 IRanGd=           0 AccXCQ= 0.00D+00.
 Generated NRdTot=       0 NPtTot=           0 NUsed=           0 NTot=          32
 NSgBfM=  1145  1146  1156  1156  1156 MxSgAt=    46 MxSgA2=    46.
 Leave Link  302 at Tue Mar 30 22:10:25 2021, MaxMem=  5242880000 cpu:        28.7
 (Enter /opt/nce/packages/global/g09/l303.exe)
 DipDrv:  MaxL=1.
 Leave Link  303 at Tue Mar 30 22:10:25 2021, MaxMem=  5242880000 cpu:         2.8
 (Enter /opt/nce/packages/global/g09/l401.exe)
 ExpMin= 9.52D-02 ExpMax= 2.70D+04 ExpMxC= 9.22D+02 IAcc=3 IRadAn=         5 AccDes= 0.00D+00
 Harris functional with IExCor= 1009 and IRadAn=       5 diagonalized for initial guess.
 HarFok:  IExCor= 1009 AccDes= 0.00D+00 IRadAn=         5 IDoV= 1 UseB2=F ITyADJ=14
 ICtDFT=  3500011 ScaDFX=  1.000000  1.000000  1.000000  1.000000
 FoFCou: FMM=F IPFlag=           0 FMFlag=      100000 FMFlg1=           0
         NFxFlg=           0 DoJE=T BraDBF=F KetDBF=T FulRan=T
         wScrn=  0.000000 ICntrl=     500 IOpCl=  0 I1Cent=   200000004 NGrid=           0
         NMat0=    1 NMatS0=      1 NMatT0=    0 NMatD0=    1 NMtDS0=    0 NMtDT0=    0
 Symmetry not used in FoFCou.
 Harris En= -1408.97141483530    
 JPrj=0 DoOrth=F DoCkMO=F.
 Leave Link  401 at Tue Mar 30 22:10:35 2021, MaxMem=  5242880000 cpu:       118.5
 (Enter /opt/nce/packages/global/g09/l502.exe)
 Closed shell SCF:
 Using DIIS extrapolation, IDIIS=  1040.
 Two-electron integral symmetry not used.
 IVT=     4623978 IEndB=     4623978 NGot=  5242880000 MDV=  5239801595
 LenX=  5239801595 LenY=  5238272663
 Requested convergence on RMS density matrix=1.00D-08 within 128 cycles.
 Requested convergence on MAX density matrix=1.00D-06.
 Requested convergence on             energy=1.00D-06.
 No special actions if energy rises.
 Fock matrices will be formed incrementally for  20 cycles.

 Cycle   1  Pass 1  IDiag  1:
 FoFJK:  IHMeth= 1 ICntrl=     500 DoSepK=F KAlg= 0 I1Cent=   0 FoldK=F
 IRaf= 660000000 NMat=   1 IRICut=       1 DoRegI=T DoRafI=F ISym2E= 0.
 FoFCou: FMM=F IPFlag=           0 FMFlag=      100000 FMFlg1=           0
         NFxFlg=           0 DoJE=T BraDBF=F KetDBF=F FulRan=T
         wScrn=  0.000000 ICntrl=     500 IOpCl=  0 I1Cent=           0 NGrid=           0
         NMat0=    1 NMatS0=      1 NMatT0=    0 NMatD0=    1 NMtDS0=    0 NMtDT0=    0
 Symmetry not used in FoFCou.
 Inv3:  Mode=1 IEnd=    36372972.
 Iteration    1 A*A^-1 deviation from unit magnitude is 5.77D-15 for   3472.
 Iteration    1 A*A^-1 deviation from orthogonality  is 3.40D-15 for   1292     34.
 Iteration    1 A^-1*A deviation from unit magnitude is 5.11D-15 for   3449.
 Iteration    1 A^-1*A deviation from orthogonality  is 4.91D-14 for   1576   1522.
 E= -1409.97660120006    
 DIIS: error= 2.49D-02 at cycle   1 NSaved=   1.
 NSaved= 1 IEnMin= 1 EnMin= -1409.97660120006     IErMin= 1 ErrMin= 2.49D-02
 ErrMax= 2.49D-02  0.00D+00 EMaxC= 1.00D-01 BMatC= 7.20D-01 BMatP= 7.20D-01
 IDIUse=3 WtCom= 7.51D-01 WtEn= 2.49D-01
 Coeff-Com:  0.100D+01
 Coeff-En:   0.100D+01
 Coeff:      0.100D+01
 Gap=     0.049 Goal=   None    Shift=    0.000
 GapD=    0.049 DampG=0.250 DampE=0.500 DampFc=0.2500 IDamp=-1.
 Damping current iteration by 2.50D-01
 RMSDP=1.06D-02 MaxDP=8.67D-01              OVMax= 3.67D-01

 Cycle   2  Pass 1  IDiag  1:
 RMSU=  2.61D-03    CP:  1.08D+00
 E= -1410.14501683602     Delta-E=       -0.168415635966 Rises=F Damp=T
 DIIS: error= 1.21D-02 at cycle   2 NSaved=   2.
 NSaved= 2 IEnMin= 2 EnMin= -1410.14501683602     IErMin= 2 ErrMin= 1.21D-02
 ErrMax= 1.21D-02  0.00D+00 EMaxC= 1.00D-01 BMatC= 1.52D-01 BMatP= 7.20D-01
 IDIUse=3 WtCom= 8.79D-01 WtEn= 1.21D-01
 Coeff-Com: -0.273D+00 0.127D+01
 Coeff-En:   0.755D-01 0.925D+00
 Coeff:     -0.230D+00 0.123D+01
 Gap=     0.110 Goal=   None    Shift=    0.000
 RMSDP=1.54D-03 MaxDP=1.21D-01 DE=-1.68D-01 OVMax= 3.60D-01

 Cycle   3  Pass 1  IDiag  1:
 RMSU=  1.07D-03    CP:  1.01D+00  6.07D-01
 E= -1410.35819446721     Delta-E=       -0.213177631181 Rises=F Damp=F
 DIIS: error= 1.49D-02 at cycle   3 NSaved=   3.
 NSaved= 3 IEnMin= 3 EnMin= -1410.35819446721     IErMin= 2 ErrMin= 1.21D-02
 ErrMax= 1.49D-02  0.00D+00 EMaxC= 1.00D-01 BMatC= 1.91D-01 BMatP= 1.52D-01
 IDIUse=2 WtCom= 0.00D+00 WtEn= 1.00D+00
 Coeff-En:   0.000D+00 0.409D-01 0.959D+00
 Coeff:      0.000D+00 0.409D-01 0.959D+00
 Gap=     0.063 Goal=   None    Shift=    0.000
 RMSDP=3.00D-03 MaxDP=2.36D-01 DE=-2.13D-01 OVMax= 3.93D-01

 Cycle   4  Pass 1  IDiag  1:
 RMSU=  1.31D-03    CP:  1.11D+00  1.59D+00  3.49D-01
 E= -1409.22651107034     Delta-E=        1.131683396869 Rises=F Damp=F
 DIIS: error= 6.13D-02 at cycle   4 NSaved=   4.
 NSaved= 4 IEnMin= 3 EnMin= -1410.35819446721     IErMin= 2 ErrMin= 1.21D-02
 ErrMax= 6.13D-02  0.00D+00 EMaxC= 1.00D-01 BMatC= 1.60D+00 BMatP= 1.52D-01
 IDIUse=2 WtCom= 0.00D+00 WtEn= 1.00D+00
 Coeff-En:   0.000D+00 0.000D+00 0.822D+00 0.178D+00
 Coeff:      0.000D+00 0.000D+00 0.822D+00 0.178D+00
 Gap=     0.067 Goal=   None    Shift=    0.000
 RMSDP=2.32D-03 MaxDP=1.73D-01 DE= 1.13D+00 OVMax= 2.18D-01

 Cycle   5  Pass 1  IDiag  1:
 RMSU=  2.06D-04    CP:  1.03D+00  7.56D-01  6.87D-01  5.51D-01
 E= -1410.42845613764     Delta-E=       -1.201945067304 Rises=F Damp=F
 DIIS: error= 1.38D-02 at cycle   5 NSaved=   5.
 NSaved= 5 IEnMin= 5 EnMin= -1410.42845613764     IErMin= 2 ErrMin= 1.21D-02
 ErrMax= 1.38D-02  0.00D+00 EMaxC= 1.00D-01 BMatC= 1.21D-01 BMatP= 1.52D-01
 IDIUse=3 WtCom= 8.62D-01 WtEn= 1.38D-01
 Coeff-Com: -0.784D-01 0.144D+00 0.361D+00-0.885D-01 0.662D+00
 Coeff-En:   0.000D+00 0.000D+00 0.407D+00 0.000D+00 0.593D+00
 Coeff:     -0.676D-01 0.124D+00 0.367D+00-0.763D-01 0.653D+00
 Gap=     0.058 Goal=   None    Shift=    0.000
 RMSDP=4.33D-04 MaxDP=3.47D-02 DE=-1.20D+00 OVMax= 7.85D-02

 Cycle   6  Pass 1  IDiag  1:
 RMSU=  5.88D-05    CP:  1.02D+00  6.58D-01  8.17D-01  3.16D-01  8.17D-01
 E= -1410.53231048303     Delta-E=       -0.103854345390 Rises=F Damp=F
 DIIS: error= 1.05D-03 at cycle   6 NSaved=   6.
 NSaved= 6 IEnMin= 6 EnMin= -1410.53231048303     IErMin= 6 ErrMin= 1.05D-03
 ErrMax= 1.05D-03  0.00D+00 EMaxC= 1.00D-01 BMatC= 8.29D-04 BMatP= 1.21D-01
 IDIUse=3 WtCom= 9.90D-01 WtEn= 1.05D-02
 Coeff-Com: -0.333D-01 0.531D-01 0.184D+00-0.493D-01 0.373D+00 0.472D+00
 Coeff-En:   0.000D+00 0.000D+00 0.000D+00 0.000D+00 0.000D+00 0.100D+01
 Coeff:     -0.330D-01 0.526D-01 0.182D+00-0.488D-01 0.370D+00 0.478D+00
 Gap=     0.057 Goal=   None    Shift=    0.000
 RMSDP=4.80D-05 MaxDP=3.47D-03 DE=-1.04D-01 OVMax= 8.12D-03

 Cycle   7  Pass 1  IDiag  1:
 RMSU=  2.65D-05    CP:  1.02D+00  6.70D-01  8.21D-01  3.18D-01  8.08D-01
                    CP:  6.15D-01
 E= -1410.53291590280     Delta-E=       -0.000605419771 Rises=F Damp=F
 DIIS: error= 4.06D-04 at cycle   7 NSaved=   7.
 NSaved= 7 IEnMin= 7 EnMin= -1410.53291590280     IErMin= 7 ErrMin= 4.06D-04
 ErrMax= 4.06D-04  0.00D+00 EMaxC= 1.00D-01 BMatC= 1.34D-04 BMatP= 8.29D-04
 IDIUse=3 WtCom= 9.96D-01 WtEn= 4.06D-03
 Coeff-Com: -0.803D-02 0.114D-01 0.684D-01-0.176D-01 0.138D+00 0.304D+00
 Coeff-Com:  0.503D+00
 Coeff-En:   0.000D+00 0.000D+00 0.000D+00 0.000D+00 0.000D+00 0.144D+00
 Coeff-En:   0.856D+00
 Coeff:     -0.800D-02 0.114D-01 0.681D-01-0.176D-01 0.138D+00 0.304D+00
 Coeff:      0.505D+00
 Gap=     0.057 Goal=   None    Shift=    0.000
 RMSDP=1.97D-05 MaxDP=1.49D-03 DE=-6.05D-04 OVMax= 3.67D-03

 Cycle   8  Pass 1  IDiag  1:
 RMSU=  1.35D-05    CP:  1.02D+00  6.73D-01  8.22D-01  3.16D-01  7.99D-01
                    CP:  7.03D-01  5.99D-01
 E= -1410.53301467096     Delta-E=       -0.000098768157 Rises=F Damp=F
 DIIS: error= 2.50D-04 at cycle   8 NSaved=   8.
 NSaved= 8 IEnMin= 8 EnMin= -1410.53301467096     IErMin= 8 ErrMin= 2.50D-04
 ErrMax= 2.50D-04  0.00D+00 EMaxC= 1.00D-01 BMatC= 1.97D-05 BMatP= 1.34D-04
 IDIUse=3 WtCom= 9.98D-01 WtEn= 2.50D-03
 Coeff-Com: -0.140D-02 0.175D-02 0.204D-01-0.565D-02 0.402D-01 0.142D+00
 Coeff-Com:  0.338D+00 0.465D+00
 Coeff-En:   0.000D+00 0.000D+00 0.000D+00 0.000D+00 0.000D+00 0.000D+00
 Coeff-En:   0.103D+00 0.897D+00
 Coeff:     -0.140D-02 0.174D-02 0.204D-01-0.564D-02 0.401D-01 0.141D+00
 Coeff:      0.337D+00 0.466D+00
 Gap=     0.057 Goal=   None    Shift=    0.000
 RMSDP=9.33D-06 MaxDP=6.05D-04 DE=-9.88D-05 OVMax= 2.07D-03

 Cycle   9  Pass 1  IDiag  1:
 RMSU=  4.80D-06    CP:  1.02D+00  6.72D-01  8.22D-01  3.17D-01  8.06D-01
                    CP:  6.64D-01  7.71D-01  6.11D-01
 E= -1410.53303148639     Delta-E=       -0.000016815437 Rises=F Damp=F
 DIIS: error= 7.53D-05 at cycle   9 NSaved=   9.
 NSaved= 9 IEnMin= 9 EnMin= -1410.53303148639     IErMin= 9 ErrMin= 7.53D-05
 ErrMax= 7.53D-05  0.00D+00 EMaxC= 1.00D-01 BMatC= 3.07D-06 BMatP= 1.97D-05
 IDIUse=1 WtCom= 1.00D+00 WtEn= 0.00D+00
 Coeff-Com:  0.590D-03-0.962D-03 0.415D-02-0.111D-02 0.667D-02 0.592D-01
 Coeff-Com:  0.171D+00 0.330D+00 0.431D+00
 Coeff:      0.590D-03-0.962D-03 0.415D-02-0.111D-02 0.667D-02 0.592D-01
 Coeff:      0.171D+00 0.330D+00 0.431D+00
 Gap=     0.057 Goal=   None    Shift=    0.000
 RMSDP=7.10D-06 MaxDP=5.35D-04 DE=-1.68D-05 OVMax= 8.87D-04

 Cycle  10  Pass 1  IDiag  1:
 RMSU=  2.12D-06    CP:  1.02D+00  6.70D-01  8.22D-01  3.16D-01  8.03D-01
                    CP:  6.78D-01  7.16D-01  6.91D-01  5.88D-01
 E= -1410.53303449824     Delta-E=       -0.000003011850 Rises=F Damp=F
 DIIS: error= 1.50D-05 at cycle  10 NSaved=  10.
 NSaved=10 IEnMin=10 EnMin= -1410.53303449824     IErMin=10 ErrMin= 1.50D-05
 ErrMax= 1.50D-05  0.00D+00 EMaxC= 1.00D-01 BMatC= 1.61D-07 BMatP= 3.07D-06
 IDIUse=1 WtCom= 1.00D+00 WtEn= 0.00D+00
 Coeff-Com:  0.416D-03-0.603D-03 0.112D-03-0.476D-04-0.550D-03 0.148D-01
 Coeff-Com:  0.458D-01 0.108D+00 0.235D+00 0.598D+00
 Coeff:      0.416D-03-0.603D-03 0.112D-03-0.476D-04-0.550D-03 0.148D-01
 Coeff:      0.458D-01 0.108D+00 0.235D+00 0.598D+00
 Gap=     0.057 Goal=   None    Shift=    0.000
 RMSDP=1.62D-06 MaxDP=1.47D-04 DE=-3.01D-06 OVMax= 1.23D-04

 Cycle  11  Pass 1  IDiag  1:
 RMSU=  3.42D-07    CP:  1.02D+00  6.70D-01  8.22D-01  3.16D-01  8.04D-01
                    CP:  6.79D-01  7.27D-01  6.71D-01  6.41D-01  6.99D-01
 E= -1410.53303465318     Delta-E=       -0.000000154935 Rises=F Damp=F
 DIIS: error= 3.27D-06 at cycle  11 NSaved=  11.
 NSaved=11 IEnMin=11 EnMin= -1410.53303465318     IErMin=11 ErrMin= 3.27D-06
 ErrMax= 3.27D-06  0.00D+00 EMaxC= 1.00D-01 BMatC= 6.23D-09 BMatP= 1.61D-07
 IDIUse=1 WtCom= 1.00D+00 WtEn= 0.00D+00
 Coeff-Com:  0.182D-03-0.259D-03-0.688D-04 0.111D-04-0.448D-03 0.504D-02
 Coeff-Com:  0.156D-01 0.390D-01 0.972D-01 0.293D+00 0.551D+00
 Coeff:      0.182D-03-0.259D-03-0.688D-04 0.111D-04-0.448D-03 0.504D-02
 Coeff:      0.156D-01 0.390D-01 0.972D-01 0.293D+00 0.551D+00
 Gap=     0.057 Goal=   None    Shift=    0.000
 RMSDP=2.82D-07 MaxDP=1.72D-05 DE=-1.55D-07 OVMax= 3.07D-05

 Cycle  12  Pass 1  IDiag  1:
 RMSU=  1.49D-07    CP:  1.02D+00  6.70D-01  8.22D-01  3.16D-01  8.04D-01
                    CP:  6.80D-01  7.23D-01  6.83D-01  6.23D-01  7.29D-01
                    CP:  7.53D-01
 E= -1410.53303465554     Delta-E=       -0.000000002358 Rises=F Damp=F
 DIIS: error= 2.32D-06 at cycle  12 NSaved=  12.
 NSaved=12 IEnMin=12 EnMin= -1410.53303465554     IErMin=12 ErrMin= 2.32D-06
 ErrMax= 2.32D-06  0.00D+00 EMaxC= 1.00D-01 BMatC= 3.67D-09 BMatP= 6.23D-09
 IDIUse=1 WtCom= 1.00D+00 WtEn= 0.00D+00
 Coeff-Com:  0.657D-04-0.906D-04-0.855D-04 0.234D-04-0.266D-03 0.105D-02
 Coeff-Com:  0.325D-02 0.949D-02 0.301D-01 0.110D+00 0.426D+00 0.420D+00
 Coeff:      0.657D-04-0.906D-04-0.855D-04 0.234D-04-0.266D-03 0.105D-02
 Coeff:      0.325D-02 0.949D-02 0.301D-01 0.110D+00 0.426D+00 0.420D+00
 Gap=     0.057 Goal=   None    Shift=    0.000
 RMSDP=1.98D-07 MaxDP=1.57D-05 DE=-2.36D-09 OVMax= 1.98D-05

 Cycle  13  Pass 1  IDiag  1:
 RMSU=  4.73D-08    CP:  1.02D+00  6.70D-01  8.22D-01  3.16D-01  8.04D-01
                    CP:  6.79D-01  7.26D-01  6.76D-01  6.37D-01  7.33D-01
                    CP:  8.20D-01  4.19D-01
 E= -1410.53303465873     Delta-E=       -0.000000003191 Rises=F Damp=F
 DIIS: error= 5.67D-07 at cycle  13 NSaved=  13.
 NSaved=13 IEnMin=13 EnMin= -1410.53303465873     IErMin=13 ErrMin= 5.67D-07
 ErrMax= 5.67D-07  0.00D+00 EMaxC= 1.00D-01 BMatC= 2.59D-10 BMatP= 3.67D-09
 IDIUse=1 WtCom= 1.00D+00 WtEn= 0.00D+00
 Coeff-Com:  0.231D-04-0.310D-04-0.384D-04 0.108D-04-0.107D-03 0.258D-03
 Coeff-Com:  0.725D-03 0.264D-02 0.107D-01 0.436D-01 0.223D+00 0.274D+00
 Coeff-Com:  0.445D+00
 Coeff:      0.231D-04-0.310D-04-0.384D-04 0.108D-04-0.107D-03 0.258D-03
 Coeff:      0.725D-03 0.264D-02 0.107D-01 0.436D-01 0.223D+00 0.274D+00
 Coeff:      0.445D+00
 Gap=     0.057 Goal=   None    Shift=    0.000
 RMSDP=4.40D-08 MaxDP=3.28D-06 DE=-3.19D-09 OVMax= 6.53D-06

 Cycle  14  Pass 1  IDiag  1:
 RMSU=  1.17D-08    CP:  1.02D+00  6.70D-01  8.22D-01  3.16D-01  8.04D-01
                    CP:  6.79D-01  7.25D-01  6.78D-01  6.34D-01  7.34D-01
                    CP:  8.09D-01  5.22D-01  7.04D-01
 E= -1410.53303465896     Delta-E=       -0.000000000229 Rises=F Damp=F
 DIIS: error= 1.70D-07 at cycle  14 NSaved=  14.
 NSaved=14 IEnMin=14 EnMin= -1410.53303465896     IErMin=14 ErrMin= 1.70D-07
 ErrMax= 1.70D-07  0.00D+00 EMaxC= 1.00D-01 BMatC= 2.17D-11 BMatP= 2.59D-10
 IDIUse=1 WtCom= 1.00D+00 WtEn= 0.00D+00
 Coeff-Com:  0.162D-05-0.188D-05-0.598D-05 0.167D-05-0.121D-04-0.209D-04
 Coeff-Com: -0.116D-03-0.675D-04 0.126D-02 0.675D-02 0.587D-01 0.898D-01
 Coeff-Com:  0.259D+00 0.584D+00
 Coeff:      0.162D-05-0.188D-05-0.598D-05 0.167D-05-0.121D-04-0.209D-04
 Coeff:     -0.116D-03-0.675D-04 0.126D-02 0.675D-02 0.587D-01 0.898D-01
 Coeff:      0.259D+00 0.584D+00
 Gap=     0.057 Goal=   None    Shift=    0.000
 RMSDP=9.77D-09 MaxDP=7.01D-07 DE=-2.29D-10 OVMax= 1.11D-06

 Error on total polarization charges =  0.03881
 SCF Done:  E(RTPSS-TPSS) =  -1410.53303466     A.U. after   14 cycles
            NFock= 14  Conv=0.98D-08     -V/T= 2.0044
 KE= 1.404286121725D+03 PE=-9.141967900741D+03 EE= 3.398681763031D+03
 SMD-CDS (non-electrostatic) energy       (kcal/mol) =      -9.64
 (included in total energy above)
 Leave Link  502 at Tue Mar 30 22:26:19 2021, MaxMem=  5242880000 cpu:     11247.2
 (Enter /opt/nce/packages/global/g09/l601.exe)
 Copying SCF densities to generalized density rwf, IOpCl= 0 IROHF=0.

 **********************************************************************

            Population analysis using the SCF density.

 **********************************************************************

 Alpha  occ. eigenvalues --  -18.86901 -18.86901 -18.86854 -18.86854 -14.15502
 Alpha  occ. eigenvalues --  -14.15502 -10.09921 -10.09921 -10.09719 -10.09718
 Alpha  occ. eigenvalues --  -10.02591 -10.02591 -10.02572 -10.02570 -10.02187
 Alpha  occ. eigenvalues --  -10.02186 -10.02143 -10.02143 -10.01445 -10.01445
 Alpha  occ. eigenvalues --  -10.01416 -10.01416 -10.01407 -10.01406 -10.00945
 Alpha  occ. eigenvalues --  -10.00945 -10.00944 -10.00944 -10.00786 -10.00786
 Alpha  occ. eigenvalues --  -10.00780 -10.00780  -0.99783  -0.99783  -0.98001
 Alpha  occ. eigenvalues --   -0.98000  -0.88003  -0.87987  -0.85233  -0.82916
 Alpha  occ. eigenvalues --   -0.79738  -0.77909  -0.77726  -0.73024  -0.72230
 Alpha  occ. eigenvalues --   -0.71303  -0.70016  -0.67734  -0.67268  -0.65611
 Alpha  occ. eigenvalues --   -0.63663  -0.60911  -0.60518  -0.59692  -0.59025
 Alpha  occ. eigenvalues --   -0.57218  -0.56645  -0.54903  -0.52536  -0.50177
 Alpha  occ. eigenvalues --   -0.50007  -0.49036  -0.47752  -0.46690  -0.45765
 Alpha  occ. eigenvalues --   -0.43962  -0.43956  -0.43917  -0.43893  -0.42707
 Alpha  occ. eigenvalues --   -0.42053  -0.41804  -0.40700  -0.39924  -0.39834
 Alpha  occ. eigenvalues --   -0.39652  -0.39273  -0.38682  -0.38549  -0.37794
 Alpha  occ. eigenvalues --   -0.37712  -0.36775  -0.36773  -0.36303  -0.36260
 Alpha  occ. eigenvalues --   -0.36111  -0.35929  -0.35173  -0.35076  -0.34552
 Alpha  occ. eigenvalues --   -0.34355  -0.33216  -0.32296  -0.31218  -0.30272
 Alpha  occ. eigenvalues --   -0.30059  -0.29696  -0.25413  -0.25185  -0.24933
 Alpha  occ. eigenvalues --   -0.24765  -0.24718  -0.24455  -0.24257  -0.23899
 Alpha  occ. eigenvalues --   -0.22880  -0.22860  -0.19593
 Alpha virt. eigenvalues --   -0.13849  -0.08856  -0.08176  -0.06733  -0.04700
 Alpha virt. eigenvalues --   -0.04030  -0.03770  -0.00658   0.02508   0.04375
 Alpha virt. eigenvalues --    0.04460   0.04472   0.04792   0.05473   0.06943
 Alpha virt. eigenvalues --    0.07513   0.07794   0.08048   0.08107   0.08386
 Alpha virt. eigenvalues --    0.08650   0.09536   0.09878   0.10473   0.11476
 Alpha virt. eigenvalues --    0.11601   0.11629   0.11695   0.12251   0.12707
 Alpha virt. eigenvalues --    0.13213   0.14129   0.14776   0.15082   0.15281
 Alpha virt. eigenvalues --    0.15909   0.15957   0.16615   0.16620   0.16835
 Alpha virt. eigenvalues --    0.17115   0.17474   0.17976   0.18043   0.18891
 Alpha virt. eigenvalues --    0.18913   0.18952   0.19181   0.19682   0.19965
 Alpha virt. eigenvalues --    0.20102   0.20534   0.20645   0.20701   0.20791
 Alpha virt. eigenvalues --    0.21089   0.21267   0.22194   0.22200   0.22795
 Alpha virt. eigenvalues --    0.23011   0.23017   0.24108   0.24434   0.24537
 Alpha virt. eigenvalues --    0.25123   0.25423   0.25488   0.26125   0.26538
 Alpha virt. eigenvalues --    0.26705   0.26876   0.27483   0.28354   0.28629
 Alpha virt. eigenvalues --    0.28899   0.29018   0.29158   0.30827   0.30935
 Alpha virt. eigenvalues --    0.31176   0.31363   0.31579   0.31880   0.32297
 Alpha virt. eigenvalues --    0.32413   0.33300   0.33440   0.33481   0.33776
 Alpha virt. eigenvalues --    0.33848   0.34258   0.35043   0.35231   0.35569
 Alpha virt. eigenvalues --    0.35759   0.36264   0.36418   0.37015   0.37312
 Alpha virt. eigenvalues --    0.37663   0.38220   0.38847   0.39398   0.39475
 Alpha virt. eigenvalues --    0.40191   0.40429   0.40661   0.41168   0.41322
 Alpha virt. eigenvalues --    0.42315   0.42685   0.42791   0.43270   0.43480
 Alpha virt. eigenvalues --    0.43747   0.44097   0.44101   0.45050   0.45114
 Alpha virt. eigenvalues --    0.45787   0.46338   0.46416   0.47060   0.47169
 Alpha virt. eigenvalues --    0.47501   0.48156   0.48242   0.48767   0.49188
 Alpha virt. eigenvalues --    0.49548   0.49628   0.49632   0.49816   0.49996
 Alpha virt. eigenvalues --    0.51685   0.52206   0.52418   0.52517   0.52522
 Alpha virt. eigenvalues --    0.52813   0.53366   0.54045   0.54305   0.55080
 Alpha virt. eigenvalues --    0.55621   0.55702   0.55903   0.56389   0.56413
 Alpha virt. eigenvalues --    0.57849   0.57922   0.58184   0.58257   0.58557
 Alpha virt. eigenvalues --    0.58574   0.59184   0.60025   0.60245   0.60286
 Alpha virt. eigenvalues --    0.60476   0.60677   0.61102   0.61363   0.61935
 Alpha virt. eigenvalues --    0.61981   0.62452   0.63031   0.63344   0.63700
 Alpha virt. eigenvalues --    0.66203   0.66331   0.66409   0.66725   0.66938
 Alpha virt. eigenvalues --    0.67201   0.67546   0.67748   0.68435   0.68679
 Alpha virt. eigenvalues --    0.68903   0.69119   0.69334   0.69707   0.69765
 Alpha virt. eigenvalues --    0.70726   0.70916   0.71776   0.71785   0.72135
 Alpha virt. eigenvalues --    0.72510   0.72771   0.72875   0.73016   0.74207
 Alpha virt. eigenvalues --    0.74472   0.75213   0.75387   0.75572   0.75680
 Alpha virt. eigenvalues --    0.76456   0.76483   0.77463   0.77996   0.78140
 Alpha virt. eigenvalues --    0.78552   0.79230   0.79914   0.80776   0.81109
 Alpha virt. eigenvalues --    0.81303   0.81330   0.81796   0.82460   0.83913
 Alpha virt. eigenvalues --    0.83956   0.84248   0.84566   0.84610   0.85119
 Alpha virt. eigenvalues --    0.85426   0.86397   0.87609   0.87679   0.87704
 Alpha virt. eigenvalues --    0.88360   0.88487   0.90153   0.90466   0.91372
 Alpha virt. eigenvalues --    0.91924   0.93328   0.93722   0.94130   0.94431
 Alpha virt. eigenvalues --    0.94571   0.94734   0.95337   0.95536   0.95758
 Alpha virt. eigenvalues --    0.96474   0.96836   0.98266   0.98463   1.00068
 Alpha virt. eigenvalues --    1.00233   1.00505   1.01842   1.02181   1.02426
 Alpha virt. eigenvalues --    1.03296   1.03798   1.05055   1.05260   1.05289
 Alpha virt. eigenvalues --    1.05990   1.06943   1.07391   1.07518   1.07733
[...]
    43  C    0.001468  -0.002994   0.000000   0.000104   0.004021   0.010454
    44  H    0.000376  -0.000096   0.000000  -0.000002  -0.000132  -0.001049
    45  H    0.000094  -0.000109   0.000000   0.000015   0.006224   0.000170
    46  H    0.000282  -0.000038   0.000000  -0.000003   0.000067  -0.001049
              25         26         27         28         29         30
     1  C    0.000417  -0.000112   0.000012  -0.000001   0.014606   0.004072
     2  C   -0.001607  -0.000295  -0.000274  -0.000023  -0.000481   0.000520
     3  C   -0.000124   0.000997  -0.000611  -0.000107   0.005794  -0.000193
     4  C    0.000003   0.000053  -0.000108   0.000003  -0.047678  -0.016841
     5  C   -0.000000  -0.000019   0.000012   0.000000   0.204272  -0.217575
     6  C    0.000004   0.000009  -0.000004   0.000000  -0.057044   0.072898
     7  H    0.000114  -0.000004   0.000000  -0.000000  -0.001282  -0.000234
     8  C   -0.000023   0.028174  -0.042183  -0.001428   0.000230   0.000058
     9  C    0.000000   0.000115  -0.000408  -0.000000  -0.048372  -0.000155
    10  H   -0.000000   0.000000  -0.000000   0.000000  -0.010658   0.026061
    11  C    0.000000  -0.001248   0.002172   0.000003   0.010032   0.000354
    12  C   -0.000001  -0.000275   0.005364   0.000359  -0.001565  -0.000023
    13  H    0.000000   0.000004   0.000114  -0.000000   0.000533   0.000004
    14  H   -0.000000   0.002256   0.001609   0.000106   0.000001  -0.000000
    15  C    0.027264   0.004680   0.000819   0.000623  -0.000463  -0.000036
    16  C   -0.001702  -0.159606   0.019995  -0.002069  -0.000137  -0.000001
    17  C   -0.082640  -0.000314   0.000014   0.000007   0.000095   0.000003
    18  C    0.000621   0.123238  -0.089941   0.026545   0.000070   0.000000
    19  C    0.004644  -0.092989  -0.004195   0.003591  -0.000001  -0.000000
    20  C    0.506129  -0.001623  -0.000006  -0.000031   0.000001   0.000000
    21  H   -0.010922   0.000000  -0.000001   0.000000   0.000010   0.000001
    22  C   -0.000006   0.136344   0.501244  -0.083492   0.000009   0.000000
    23  C   -0.001843   0.051048   0.026117  -0.117689   0.000000   0.000000
    24  C   -0.124095  -0.023787   0.000317  -0.001753  -0.000000  -0.000000
    25  H    0.527869  -0.000015   0.000000  -0.000002  -0.000000  -0.000000
    26  C   -0.000015   5.646787  -0.080056   0.504695  -0.000000  -0.000000
    27  H    0.000000  -0.080056   0.550458  -0.010821   0.000001   0.000000
    28  H   -0.000002   0.504695  -0.010821   0.525921  -0.000000   0.000000
    29  C   -0.000000  -0.000000   0.000001  -0.000000   4.742016   0.718501
    30  O   -0.000000  -0.000000   0.000000   0.000000   0.718501   7.900996
    31  C   -0.000000   0.000001   0.000009  -0.000000  -0.062209  -0.006181
    32  O    0.000000   0.000000   0.000001  -0.000000  -0.003709  -0.000254
    33  N   -0.000000   0.000000   0.000000  -0.000000   0.428752  -0.110056
    34  C    0.000533  -0.057026  -0.001283  -0.010659  -0.000000  -0.000000
    35  O    0.000004   0.072915  -0.000234   0.026060  -0.000000  -0.000000
    36  C   -0.010332   0.002073   0.000011   0.000220  -0.000000  -0.000000
    37  O    0.027038   0.000337  -0.000000   0.000004  -0.000000   0.000000
    38  N    0.002098   0.037409  -0.000011   0.002002   0.000000   0.000000
    39  C   -0.000000  -0.000000  -0.000000  -0.000000  -0.042027  -0.019996
    40  H    0.000000   0.000000  -0.000000  -0.000000   0.006384   0.000923
    41  H   -0.000000  -0.000000  -0.000000   0.000000   0.006384   0.000888
    42  H    0.000000  -0.000000  -0.000000  -0.000000  -0.019961   0.024798
    43  C   -0.000226  -0.001281  -0.000000  -0.000044   0.000000  -0.000000
    44  H   -0.000009  -0.000029   0.000000  -0.000001   0.000000  -0.000000
    45  H   -0.000006  -0.000898   0.000000  -0.000093   0.000000  -0.000000
    46  H   -0.000005  -0.000045   0.000000  -0.000002  -0.000000  -0.000000
              31         32         33         34         35         36
     1  C   -0.001574  -0.000028  -0.000287   0.000009   0.000000   0.000109
     2  C    0.003735   0.000068  -0.000293   0.000070   0.000000  -0.000808
     3  C    0.035679   0.000736  -0.008202  -0.000137  -0.000001  -0.000122
     4  C   -0.072643  -0.010694  -0.098382  -0.000001  -0.000000  -0.000001
     5  C   -0.055017  -0.000954  -0.076953   0.000000   0.000000  -0.000000
     6  C    0.002075   0.000337   0.037401  -0.000000  -0.000000   0.000001
     7  H    0.000011  -0.000000  -0.000011   0.000001   0.000000   0.000009
     8  C   -0.012136   0.000094  -0.000081  -0.000462  -0.000036   0.000081
     9  C    0.192892  -0.219528  -0.066989  -0.000000  -0.000000   0.000000
    10  H    0.000220   0.000004   0.002002  -0.000000   0.000000  -0.000000
    11  C   -0.082871   0.070112   0.039077   0.000001   0.000000  -0.000000
    12  C    0.024888   0.005545  -0.000470   0.000095   0.000003   0.000002
    13  H   -0.010333   0.027038   0.002097  -0.000000  -0.000000  -0.000000
    14  H   -0.001188  -0.000217  -0.000013   0.000010   0.000001   0.000001
    15  C    0.000081  -0.000000  -0.000011   0.000228   0.000058  -0.012139
    16  C   -0.000122  -0.000001  -0.000004   0.005789  -0.000193   0.035684
    17  C    0.000002   0.000000   0.000001  -0.001564  -0.000023   0.024884
    18  C   -0.000808  -0.000044  -0.000010  -0.000476   0.000522   0.003736
    19  C   -0.000001   0.000000  -0.000000  -0.047687  -0.016841  -0.072631
    20  C   -0.000000  -0.000000   0.000000   0.010031   0.000354  -0.082883
    21  H    0.000001   0.000000   0.000000   0.000001  -0.000000  -0.001187
    22  C    0.000109   0.000004   0.000001   0.014607   0.004074  -0.001574
    23  C   -0.000000  -0.000000  -0.000000   0.204233  -0.217606  -0.055021
    24  C    0.000000   0.000000  -0.000000  -0.048369  -0.000156   0.192934
    25  H   -0.000000   0.000000  -0.000000   0.000533   0.000004  -0.010332
    26  C    0.000001   0.000000   0.000000  -0.057026   0.072915   0.002073
    27  H    0.000009   0.000001   0.000000  -0.001283  -0.000234   0.000011
    28  H   -0.000000  -0.000000  -0.000000  -0.010659   0.026060   0.000220
    29  C   -0.062209  -0.003709   0.428752  -0.000000  -0.000000  -0.000000
    30  O   -0.006181  -0.000254  -0.110056  -0.000000  -0.000000  -0.000000
    31  C    4.800412   0.719099   0.413689  -0.000000  -0.000000  -0.000000
    32  O    0.719099   7.885779  -0.115522  -0.000000   0.000000  -0.000000
    33  N    0.413689  -0.115522   6.374445   0.000000   0.000000   0.000000
    34  C   -0.000000  -0.000000   0.000000   4.742019   0.718521  -0.062208
    35  O   -0.000000   0.000000   0.000000   0.718521   7.900989  -0.006181
    36  C   -0.000000  -0.000000   0.000000  -0.062208  -0.006181   4.800406
    37  O   -0.000000   0.000000   0.000000  -0.003709  -0.000254   0.719077
    38  N    0.000000   0.000000   0.000000   0.428773  -0.110056   0.413668
    39  C   -0.045993   0.005154   0.281970   0.000000  -0.000000   0.000000
    40  H   -0.006567   0.004344  -0.034930  -0.000000  -0.000000   0.000000
    41  H   -0.006107   0.003944  -0.035437   0.000000  -0.000000  -0.000000
    42  H    0.007623   0.001945  -0.032380   0.000000  -0.000000   0.000000
    43  C    0.000000  -0.000000   0.000000  -0.042028  -0.019998  -0.045991
    44  H   -0.000000   0.000000  -0.000000   0.006390   0.000888  -0.006113
    45  H    0.000000  -0.000000  -0.000000  -0.019961   0.024799   0.007623
    46  H    0.000000   0.000000   0.000000   0.006379   0.000922  -0.006561
              37         38         39         40         41         42
     1  C    0.000004   0.000001   0.000104  -0.000003  -0.000002   0.000015
     2  C   -0.000044  -0.000010  -0.000030   0.000003   0.000001  -0.000010
     3  C   -0.000001  -0.000004   0.000811   0.000028   0.000029   0.000087
     4  C    0.000000  -0.000000   0.001468   0.000286   0.000373   0.000094
     5  C   -0.000000  -0.000000   0.004021   0.000065  -0.000130   0.006223
     6  C    0.000000   0.000000  -0.001281  -0.000045  -0.000029  -0.000898
     7  H    0.000001   0.000000  -0.000000   0.000000   0.000000   0.000000
     8  C   -0.000000  -0.000011  -0.000027  -0.000007  -0.000004   0.000002
     9  C    0.000000  -0.000000   0.010456  -0.001055  -0.001043   0.000170
    10  H   -0.000000  -0.000000  -0.000044  -0.000002  -0.000001  -0.000093
    11  C   -0.000000   0.000000  -0.002995  -0.000039  -0.000095  -0.000109
    12  C    0.000000   0.000001   0.000063   0.000010   0.000007  -0.000001
    13  H    0.000000  -0.000000  -0.000226  -0.000005  -0.000009  -0.000006
    14  H    0.000000   0.000000   0.000000   0.000000   0.000000   0.000000
    15  C    0.000093  -0.000083  -0.000000   0.000000  -0.000000   0.000000
    16  C    0.000736  -0.008202   0.000000   0.000000   0.000000   0.000000
    17  C    0.005542  -0.000470  -0.000000  -0.000000   0.000000  -0.000000
    18  C    0.000068  -0.000291   0.000000  -0.000000   0.000000   0.000000
    19  C   -0.010692  -0.098379   0.000000   0.000000   0.000000   0.000000
    20  C    0.070093   0.039067  -0.000000  -0.000000   0.000000   0.000000
    21  H   -0.000216  -0.000012  -0.000000   0.000000  -0.000000  -0.000000
    22  C   -0.000028  -0.000287  -0.000000   0.000000  -0.000000  -0.000000
    23  C   -0.000953  -0.076975   0.000000  -0.000000  -0.000000   0.000000
    24  C   -0.219492  -0.066970   0.000000   0.000000   0.000000  -0.000000
    25  H    0.027038   0.002098  -0.000000   0.000000  -0.000000   0.000000
    26  C    0.000337   0.037409  -0.000000   0.000000  -0.000000  -0.000000
    27  H   -0.000000  -0.000011  -0.000000  -0.000000  -0.000000  -0.000000
    28  H    0.000004   0.002002  -0.000000  -0.000000   0.000000  -0.000000
    29  C   -0.000000   0.000000  -0.042027   0.006384   0.006384  -0.019961
    30  O    0.000000   0.000000  -0.019996   0.000923   0.000888   0.024798
    31  C   -0.000000   0.000000  -0.045993  -0.006567  -0.006107   0.007623
    32  O    0.000000   0.000000   0.005154   0.004344   0.003944   0.001945
    33  N    0.000000   0.000000   0.281970  -0.034930  -0.035437  -0.032380
    34  C   -0.003709   0.428773   0.000000  -0.000000   0.000000   0.000000
    35  O   -0.000254  -0.110056  -0.000000  -0.000000  -0.000000  -0.000000
    36  C    0.719077   0.413668   0.000000   0.000000  -0.000000   0.000000
    37  O    7.885781  -0.115522  -0.000000   0.000000   0.000000  -0.000000
    38  N   -0.115522   6.374448   0.000000   0.000000  -0.000000  -0.000000
    39  C   -0.000000   0.000000   4.910599   0.402980   0.404193   0.396148
    40  H    0.000000   0.000000   0.402980   0.520852  -0.027551  -0.018485
    41  H    0.000000  -0.000000   0.404193  -0.027551   0.520895  -0.019009
    42  H   -0.000000  -0.000000   0.396148  -0.018485  -0.019009   0.491839
    43  C    0.005156   0.281971   0.000000   0.000000   0.000000   0.000000
    44  H    0.003954  -0.035435   0.000000  -0.000000   0.000000   0.000000
    45  H    0.001945  -0.032381   0.000000  -0.000000   0.000000   0.000000
    46  H    0.004334  -0.034932   0.000000   0.000000  -0.000000  -0.000000
              43         44         45         46
     1  C   -0.000000  -0.000000  -0.000000   0.000000
     2  C    0.000000   0.000000   0.000000  -0.000000
     3  C    0.000000   0.000000   0.000000   0.000000
     4  C    0.000000   0.000000   0.000000   0.000000
     5  C    0.000000  -0.000000   0.000000  -0.000000
     6  C   -0.000000  -0.000000  -0.000000   0.000000
     7  H   -0.000000  -0.000000  -0.000000  -0.000000
     8  C   -0.000000  -0.000000   0.000000   0.000000
     9  C    0.000000   0.000000  -0.000000   0.000000
    10  H   -0.000000   0.000000  -0.000000  -0.000000
    11  C   -0.000000   0.000000   0.000000  -0.000000
    12  C   -0.000000   0.000000  -0.000000  -0.000000
    13  H   -0.000000  -0.000000   0.000000   0.000000
    14  H   -0.000000  -0.000000  -0.000000   0.000000
    15  C   -0.000027  -0.000004   0.000002  -0.000007
    16  C    0.000811   0.000029   0.000087   0.000027
    17  C    0.000063   0.000007  -0.000001   0.000010
    18  C   -0.000030   0.000001  -0.000010   0.000003
    19  C    0.001468   0.000376   0.000094   0.000282
    20  C   -0.002994  -0.000096  -0.000109  -0.000038
    21  H    0.000000   0.000000   0.000000   0.000000
    22  C    0.000104  -0.000002   0.000015  -0.000003
    23  C    0.004021  -0.000132   0.006224   0.000067
    24  C    0.010454  -0.001049   0.000170  -0.001049
    25  H   -0.000226  -0.000009  -0.000006  -0.000005
    26  C   -0.001281  -0.000029  -0.000898  -0.000045
    27  H   -0.000000   0.000000   0.000000   0.000000
    28  H   -0.000044  -0.000001  -0.000093  -0.000002
    29  C    0.000000   0.000000   0.000000  -0.000000
    30  O   -0.000000  -0.000000  -0.000000  -0.000000
    31  C    0.000000  -0.000000   0.000000   0.000000
    32  O   -0.000000   0.000000  -0.000000   0.000000
    33  N    0.000000  -0.000000  -0.000000   0.000000
    34  C   -0.042028   0.006390  -0.019961   0.006379
    35  O   -0.019998   0.000888   0.024799   0.000922
    36  C   -0.045991  -0.006113   0.007623  -0.006561
    37  O    0.005156   0.003954   0.001945   0.004334
    38  N    0.281971  -0.035435  -0.032381  -0.034932
    39  C    0.000000   0.000000   0.000000   0.000000
    40  H    0.000000  -0.000000  -0.000000   0.000000
    41  H    0.000000   0.000000   0.000000  -0.000000
    42  H    0.000000   0.000000   0.000000  -0.000000
    43  C    4.910594   0.404175   0.396148   0.402999
    44  H    0.404175   0.520897  -0.019002  -0.027551
    45  H    0.396148  -0.019002   0.491840  -0.018492
    46  H    0.402999  -0.027551  -0.018492   0.520851
 Mulliken charges:
               1
     1  C   -0.211205
     2  C    0.134686
     3  C    0.016055
     4  C    0.090686
     5  C    0.087661
     6  C   -0.191530
     7  H    0.121879
     8  C    0.136982
     9  C    0.089621
    10  H    0.138077
    11  C   -0.194215
    12  C   -0.209658
    13  H    0.136819
    14  H    0.122037
    15  C    0.136746
    16  C    0.016047
    17  C   -0.209512
    18  C    0.134919
    19  C    0.090689
    20  C   -0.194228
    21  H    0.122050
    22  C   -0.211350
    23  C    0.087612
    24  C    0.089662
    25  H    0.136822
    26  C   -0.191511
    27  H    0.121868
    28  H    0.138076
    29  C    0.157897
    30  O   -0.378532
    31  C    0.163224
    32  O   -0.373251
    33  N    0.000594
    34  C    0.157882
    35  O   -0.378533
    36  C    0.163234
    37  O   -0.373249
    38  N    0.000592
    39  C   -0.305347
    40  H    0.152813
    41  H    0.152705
    42  H    0.162006
    43  C   -0.305343
    44  H    0.152705
    45  H    0.162005
    46  H    0.152812
 Sum of Mulliken charges =  -0.00000
 Mulliken charges with hydrogens summed into heavy atoms:
               1
     1  C   -0.089326
     2  C    0.134686
     3  C    0.016055
     4  C    0.090686
     5  C    0.087661
     6  C   -0.053453
     8  C    0.136982
     9  C    0.089621
    11  C   -0.057396
    12  C   -0.087621
    15  C    0.136746
    16  C    0.016047
    17  C   -0.087462
    18  C    0.134919
    19  C    0.090689
    20  C   -0.057407
    22  C   -0.089482
    23  C    0.087612
    24  C    0.089662
    26  C   -0.053435
    29  C    0.157897
    30  O   -0.378532
    31  C    0.163224
    32  O   -0.373251
    33  N    0.000594
    34  C    0.157882
    35  O   -0.378533
    36  C    0.163234
    37  O   -0.373249
    38  N    0.000592
    39  C    0.162178
    43  C    0.162178
 Electronic spatial extent (au):  <R**2>=          16373.4170
 Charge=             -0.0000 electrons
 Dipole moment (field-independent basis, Debye):
    X=              0.0001    Y=              0.0002    Z=             -0.0132  Tot=              0.0132
 Quadrupole moment (field-independent basis, Debye-Ang):
   XX=           -227.7372   YY=           -181.6109   ZZ=           -180.7276
   XY=              0.0518   XZ=             -0.0026   YZ=              0.0024
 Traceless Quadrupole moment (field-independent basis, Debye-Ang):
   XX=            -31.0453   YY=             15.0810   ZZ=             15.9643
   XY=              0.0518   XZ=             -0.0026   YZ=              0.0024
 Octapole moment (field-independent basis, Debye-Ang**2):
  XXX=              0.0031  YYY=              0.0119  ZZZ=              0.1267  XYY=             -0.0012
  XXY=             -0.0105  XXZ=             -0.9938  XZZ=              0.0011  YZZ=             -0.0023
  YYZ=             -0.1557  XYZ=             -6.1689
 Hexadecapole moment (field-independent basis, Debye-Ang**3):
 XXXX=         -18896.2414 YYYY=          -3087.3237 ZZZZ=           -204.3829 XXXY=            -12.6805
 XXXZ=              0.0149 YYYX=             -4.1712 YYYZ=              0.0157 ZZZX=              0.0286
 ZZZY=             -0.0024 XXYY=          -4647.2916 XXZZ=          -3001.1003 YYZZ=           -613.2356
 XXYZ=              0.0638 YYXZ=             -0.0665 ZZXY=             10.7804
 N-N= 2.929052230767D+03 E-N=-9.142988781189D+03  KE= 1.404262075268D+03
 Leave Link  601 at Wed Mar 31 18:20:39 2021, MaxMem=  5242880000 cpu:         5.7
 (Enter /opt/nce/packages/global/g09/l9999.exe)
 1\1\GINC-CN019\SP\RTPSSTPSS TD-FC\Gen\C26H14N2O4\PNG4RJV\31-Mar-2021\0
 \\#p TPSSTPSS chkbasis geom=allcheck Guess=Read int=ultrafine scrf=(SM
 D,solvent=Dichloromethane) td=(NStates=30)\\Title\\0,1\C,0,0.063280700
 1,1.471408338,2.4343422751\C,0,0.0151012961,0.7300304861,1.2483807703\
 C,0,-0.003654397,1.4302892666,0.0025069027\C,0,-0.0038150237,2.8606145
 722,0.0050168312\C,0,0.0386702145,3.5693638932,1.2300122351\C,0,0.0776
 070368,2.867000657,2.4274277935\H,0,0.0945573641,0.9660534301,3.392910
 7866\C,0,-0.0220772203,0.7345880758,-1.2461031073\C,0,-0.0466476709,3.
 572196202,-1.2179849531\H,0,0.1162718645,3.4174570168,3.3621035212\C,0
 ,-0.0861235965,2.8752576662,-2.418241115\C,0,-0.0711037049,1.479615721
 7,-2.4297576504\H,0,-0.125220466,3.4291760972,-3.3509608679\H,0,-0.102
 1292343,0.9772437492,-3.3898862404\C,0,-0.0179028072,-0.734635508,1.24
 58928441\C,0,-0.0013540723,-1.4302912302,-0.0027497792\C,0,-0.06325015
 49,-1.4797070362,2.4297004212\C,0,0.0130839426,-0.7299925046,-1.248682
 2431\C,0,0.0008169805,-2.8606150417,-0.0052023617\C,0,-0.0759519051,-2
 .8753416556,2.4182759594\H,0,-0.093216791,-0.9771793108,3.3897819247\C
 ,0,0.0591213241,-1.4713240879,-2.4347308947\C,0,0.0414240453,-3.569347
 3364,-1.230299272\C,0,-0.0379219897,-3.5722170366,1.2179123425\H,0,-0.
 1120901397,-3.4293628976,3.3510504548\C,0,0.0758883382,-2.8669225705,-
 2.4277964892\H,0,0.0867289283,-0.9661288796,-3.3934955172\H,0,0.112887
 5145,-3.4172839435,-3.3625982191\C,0,0.0445000999,5.0463604839,1.25349
 63756\O,0,0.0861335578,5.6906959058,2.3024345681\C,0,-0.0515401418,5.0
 473460239,-1.2279187276\O,0,-0.0957433696,5.7124107436,-2.2642556462\N
 ,0,-0.0012598595,5.6964715444,0.0111321439\C,0,0.0498688576,-5.0463264
 898,-1.2537679486\O,0,0.090243734,-5.6906104747,-2.3027864997\C,0,-0.0
 401078199,-5.0473767134,1.227884119\O,0,-0.0808323954,-5.7124991465,2.
 2643251766\N,0,0.0083315776,-5.6964677682,-0.0112797115\C,0,0.00016995
 82,7.1670453376,-0.0205264693\H,0,0.859315193,7.5192615701,-0.59612032
 1\H,0,-0.9168865711,7.5249473953,-0.4947569211\H,0,0.0592500861,7.5193
 386111,1.0071070127\C,0,0.0124587998,-7.167036761,0.0204347673\H,0,-0.
 9025675767,-7.5265245536,0.4973730717\H,0,0.0691360148,-7.5192628319,-
 1.0073565836\H,0,0.8739144788,-7.5177240095,0.5935062419\\Version=ES64
 L-G09RevE.01\State=1-A\HF=-1410.534898\RMSD=3.170e-09\PG=C01 [X(C26H14
 N2O4)]\\@


 JUST WHEN YOU THINK YOU'VE GOT THE WORLD ON A STRING,
 YOU FIND OUT IT'S YOUR LEASH.
 Job cpu time:       1 days 19 hours  3 minutes 14.9 seconds.
 File lengths (MBytes):  RWF=   4370 Int=      0 D2E=      0 Chk=   1037 Scr=      1
 Normal termination of Gaussian 09 at Wed Mar 31 18:20:41 2021.
