
                                 *****************
                                 * O   R   C   A *
                                 *****************

                                            #,                                       
                                            ###                                      
                                            ####                                     
                                            #####                                    
                                            ######                                   
                                           ########,                                 
                                     ,,################,,,,,                         
                               ,,#################################,,                 
                          ,,##########################################,,             
                       ,#########################################, ''#####,          
                    ,#############################################,,   '####,        
                  ,##################################################,,,,####,       
                ,###########''''           ''''###############################       
              ,#####''   ,,,,##########,,,,          '''####'''          '####       
            ,##' ,,,,###########################,,,                        '##       
           ' ,,###''''                  '''############,,,                           
         ,,##''                                '''############,,,,        ,,,,,,###''
      ,#''                                            '''#######################'''  
     '                                                          ''''####''''         
             ,#######,   #######,   ,#######,      ##                                
            ,#'     '#,  ##    ##  ,#'     '#,    #''#        ######   ,####,        
            ##       ##  ##   ,#'  ##            #'  '#       #        #'  '#        
            ##       ##  #######   ##           ,######,      #####,   #    #        
            '#,     ,#'  ##    ##  '#,     ,#' ,#      #,         ##   #,  ,#        
             '#######'   ##     ##  '#######'  #'      '#     #####' # '####'        



                  #######################################################
                  #                        -***-                        #
                  #          Department of theory and spectroscopy      #
                  #    Directorship and core code : Frank Neese         #
                  #        Max Planck Institute fuer Kohlenforschung    #
                  #                Kaiser Wilhelm Platz 1               #
                  #                 D-45470 Muelheim/Ruhr               #
                  #                      Germany                        #
                  #                                                     #
                  #                  All rights reserved                #
                  #                        -***-                        #
                  #######################################################


                         Program Version 5.0.2 -  RELEASE  -


 With contributions from (in alphabetic order):
   Daniel Aravena         : Magnetic Suceptibility
   Michael Atanasov       : Ab Initio Ligand Field Theory (pilot matlab implementation)
   Alexander A. Auer      : GIAO ZORA, VPT2 properties, NMR spectrum
   Ute Becker             : Parallelization
   Giovanni Bistoni       : ED, misc. LED, open-shell LED, HFLD
   Martin Brehm           : Molecular dynamics
   Dmytro Bykov           : SCF Hessian
   Vijay G. Chilkuri      : MRCI spin determinant printing, contributions to CSF-ICE
   Dipayan Datta          : RHF DLPNO-CCSD density
   Achintya Kumar Dutta   : EOM-CC, STEOM-CC
   Dmitry Ganyushin       : Spin-Orbit,Spin-Spin,Magnetic field MRCI
   Miquel Garcia          : C-PCM and meta-GGA Hessian, CC/C-PCM, Gaussian charge scheme
   Yang Guo               : DLPNO-NEVPT2, F12-NEVPT2, CIM, IAO-localization
   Andreas Hansen         : Spin unrestricted coupled pair/coupled cluster methods
   Benjamin Helmich-Paris : MC-RPA, TRAH-SCF, COSX integrals
   Lee Huntington         : MR-EOM, pCC
   Robert Izsak           : Overlap fitted RIJCOSX, COSX-SCS-MP3, EOM
   Marcus Kettner         : VPT2
   Christian Kollmar      : KDIIS, OOCD, Brueckner-CCSD(T), CCSD density, CASPT2, CASPT2-K
   Simone Kossmann        : Meta GGA functionals, TD-DFT gradient, OOMP2, MP2 Hessian
   Martin Krupicka        : Initial AUTO-CI
   Lucas Lang             : DCDCAS
   Marvin Lechner         : AUTO-CI (C++ implementation), FIC-MRCC
   Dagmar Lenk            : GEPOL surface, SMD
   Dimitrios Liakos       : Extrapolation schemes; Compound Job, initial MDCI parallelization
   Dimitrios Manganas     : Further ROCIS development; embedding schemes
   Dimitrios Pantazis     : SARC Basis sets
   Anastasios Papadopoulos: AUTO-CI, single reference methods and gradients
   Taras Petrenko         : DFT Hessian,TD-DFT gradient, ASA, ECA, R-Raman, ABS, FL, XAS/XES, NRVS
   Peter Pinski           : DLPNO-MP2, DLPNO-MP2 Gradient
   Christoph Reimann      : Effective Core Potentials
   Marius Retegan         : Local ZFS, SOC
   Christoph Riplinger    : Optimizer, TS searches, QM/MM, DLPNO-CCSD(T), (RO)-DLPNO pert. Triples
   Tobias Risthaus        : Range-separated hybrids, TD-DFT gradient, RPA, STAB
   Michael Roemelt        : Original ROCIS implementation
   Masaaki Saitow         : Open-shell DLPNO-CCSD energy and density
   Barbara Sandhoefer     : DKH picture change effects
   Avijit Sen             : IP-ROCIS
   Kantharuban Sivalingam : CASSCF convergence, NEVPT2, FIC-MRCI
   Bernardo de Souza      : ESD, SOC TD-DFT
   Georgi Stoychev        : AutoAux, RI-MP2 NMR, DLPNO-MP2 response
   Willem Van den Heuvel  : Paramagnetic NMR
   Boris Wezisla          : Elementary symmetry handling
   Frank Wennmohs         : Technical directorship


 We gratefully acknowledge several colleagues who have allowed us to
 interface, adapt or use parts of their codes:
   Stefan Grimme, W. Hujo, H. Kruse, P. Pracht,  : VdW corrections, initial TS optimization,
                  C. Bannwarth, S. Ehlert          DFT functionals, gCP, sTDA/sTD-DF
   Ed Valeev, F. Pavosevic, A. Kumar             : LibInt (2-el integral package), F12 methods
   Garnet Chan, S. Sharma, J. Yang, R. Olivares  : DMRG
   Ulf Ekstrom                                   : XCFun DFT Library
   Mihaly Kallay                                 : mrcc  (arbitrary order and MRCC methods)
   Jiri Pittner, Ondrej Demel                    : Mk-CCSD
   Frank Weinhold                                : gennbo (NPA and NBO analysis)
   Christopher J. Cramer and Donald G. Truhlar   : smd solvation model
   Lars Goerigk                                  : TD-DFT with DH, B97 family of functionals
   V. Asgeirsson, H. Jonsson                     : NEB implementation
   FAccTs GmbH                                   : IRC, NEB, NEB-TS, DLPNO-Multilevel, CI-OPT
                                                   MM, QMMM, 2- and 3-layer-ONIOM, Crystal-QMMM,
                                                   LR-CPCM, SF, NACMEs, symmetry and pop. for TD-DFT,
                                                   nearIR, NL-DFT gradient (VV10), updates on ESD,
                                                   ML-optimized integration grids
   S Lehtola, MJT Oliveira, MAL Marques          : LibXC Library
   Liviu Ungur et al                             : ANISO software


 Your calculation uses the libint2 library for the computation of 2-el integrals
 For citations please refer to: http://libint.valeyev.net

 Your ORCA version has been built with support for libXC version: 5.1.0
 For citations please refer to: https://tddft.org/programs/libxc/

 This ORCA versions uses:
   CBLAS   interface :  Fast vector & matrix operations
   LAPACKE interface :  Fast linear algebra routines
   SCALAPACK package :  Parallel linear algebra routines
   Shared memory     :  Shared parallel matrices
   BLAS/LAPACK       :  OpenBLAS 0.3.15  USE64BITINT DYNAMIC_ARCH NO_AFFINITY Prescott SINGLE_THREADED
        Core in use  :  Prescott
   Copyright (c) 2011-2014, The OpenBLAS Project


Your calculation utilizes the SMD solvation module
Please cite in your paper:
A.V. Marenich, C.J. Cramer, D.G. Truhlar J. Phys. Chem. B, 113, (2009), 6378 

================================================================================

----- Orbital basis set information -----
Your calculation utilizes the basis: def2-TZVP
   F. Weigend and R. Ahlrichs, Phys. Chem. Chem. Phys. 7, 3297 (2005).

----- AuxJ basis set information -----
Your calculation utilizes the auxiliary basis: def2/J
   F. Weigend, Phys. Chem. Chem. Phys. 8, 1057 (2006).

----- AuxC basis set information -----
Your calculation utilizes the auxiliary basis: def2-TZVP/C
  H-La, Hf-Rn : A. Hellweg, C. Hattig, S. Hofener and W. Klopper, Theor. Chem. Acc. 117, 587 (2007).
        Ce-Lu : J. Chmela and M. E. Harding, Mol. Phys. (2018).

================================================================================
                                        WARNINGS
                       Please study these warnings very carefully!
================================================================================

INFO   : Checking CIS options ...
  ===> : (D) CORRECTION FOUND - SETTING MODE=3
  ===> : JK MODE FOUND - ACTIVATING RI-MP2 CODE
  ===> : MP2 AND CIS FOUND - CHECKING
WARNING: CIS(D) and MP2 runs must have the same orbital window
  ===> : adjusting orbital windows

WARNING: No MP2 level density has been requested!
         To caclulate MP2 level properties use
         %mp2 Density relaxed end
         or
         %mp2 Density unrelaxed end
         Otherwise for double-hybrid DFT only the energy is correct!

WARNING: The frozen-core approximation is turned on by default for 
         the MP2 part of double-hybrid DFT.

WARNING: CIS/ROCIS methods need fully converged wavefunctions
  ===> : Setting SCFConvForced true
         You can overwrite this default with %scf ConvForced false 


INFO   : the flag for use of the SHARK integral package has been found!

================================================================================
                                       INPUT FILE
================================================================================
NAME = PDI_1_M06L_def2TZVP_coords.inp
|  1> %maxcore 20000
|  2> %pal
|  3>  nprocs= 6
|  4> end
|  5> ! RI-SCS-PBE-QIDH   def2-TZVP def2/J def2-TZVP/C RIJCOSX CPCM TightSCF
|  6> %TDDFT  
|  7>    NROOTS   30
|  8>    dcorr 4
|  9>    doscs true 
| 10>    TDA      FALSE
| 11> END
| 12> 
| 13> %CPCM
| 14>    SMD          TRUE
| 15>    SMDsolvent   "DICHLOROMETHANE"
| 16> END
| 17>    
| 18> 
| 19> * xyz 0 1
| 20> C                   1.46464600   -2.41893700   -0.06271400
| 21> C                   0.72641700   -1.24107300   -0.01499900
| 22> C                   1.42205100   -0.00158200    0.00156800
| 23> C                   2.84382300   -0.00301800    0.00068500
| 24> C                   3.54933700   -1.22065000   -0.04191100
| 25> C                   2.85128800   -2.41046100   -0.07903600
| 26> H                   0.95923300   -3.37322000   -0.09116000
| 27> C                   0.72918700    1.23961000    0.01888700
| 28> C                   3.55035700    1.21370400    0.04281100
| 29> H                   3.40455200   -3.33956400   -0.11758900
| 30> C                   2.85603900    2.40537100    0.08161500
| 31> C                   1.46935800    2.41633000    0.06644900
| 32> H                   3.41148400    3.33328100    0.12004100
| 33> H                   0.96535600    3.37133800    0.09545200
| 34> C                  -0.72918900   -1.23962400    0.01882700
| 35> C                  -1.42205000    0.00157300    0.00165600
| 36> C                  -1.46936300   -2.41633800    0.06659300
| 37> C                  -0.72641800    1.24106800   -0.01473900
| 38> C                  -2.84382100    0.00301000    0.00079900
| 39> C                  -2.85604700   -2.40537900    0.08185800
| 40> H                  -0.96536200   -3.37134200    0.09572600
| 41> C                  -1.46464200    2.41895300   -0.06206700
| 42> C                  -3.54932500    1.22065700   -0.04173700
| 43> C                  -3.55037000   -1.21371600    0.04297400
| 44> H                  -3.41148900   -3.33328500    0.12042700
| 45> C                  -2.85128100    2.41047900   -0.07852000
| 46> H                  -0.95922500    3.37324200   -0.09015400
| 47> H                  -3.40455300    3.33958500   -0.11689700
| 48> C                   5.01757000   -1.24515300   -0.04927900
| 49> O                   5.65530900   -2.28354200   -0.09105200
| 50> C                   5.01650500    1.22652800    0.04761100
| 51> O                   5.67372900    2.25332000    0.09285300
| 52> N                   5.66106700   -0.00727100   -0.00462900
| 53> C                  -5.01755500    1.24515000   -0.04943100
| 54> O                  -5.65528800    2.28353000   -0.09150600
| 55> C                  -5.01651700   -1.22652700    0.04780100
| 56> O                  -5.67375700   -2.25329900    0.09321200
| 57> N                  -5.66106400    0.00727200   -0.00477200
| 58> C                   7.11459700    0.02798000   -0.00696600
| 59> H                   7.47294100    0.61119000   -0.85250200
| 60> H                   7.48161400    0.49099800    0.90692800
| 61> H                   7.47983500   -0.98932600   -0.07691200
| 62> C                  -7.11459300   -0.02797600   -0.00736100
| 63> H                  -7.48180000   -0.49059900    0.90665800
| 64> H                  -7.47981200    0.98930300   -0.07779800
| 65> H                  -7.47276200   -0.61154600   -0.85272200
| 66> *
| 67> 
| 68> 
| 69>                          ****END OF INPUT****
================================================================================

                       ****************************
                       * Single Point Calculation *
                       ****************************

---------------------------------
CARTESIAN COORDINATES (ANGSTROEM)
---------------------------------
  C      1.464646   -2.418937   -0.062714
  C      0.726417   -1.241073   -0.014999
  C      1.422051   -0.001582    0.001568
  C      2.843823   -0.003018    0.000685
  C      3.549337   -1.220650   -0.041911
  C      2.851288   -2.410461   -0.079036
  H      0.959233   -3.373220   -0.091160
  C      0.729187    1.239610    0.018887
  C      3.550357    1.213704    0.042811
  H      3.404552   -3.339564   -0.117589
  C      2.856039    2.405371    0.081615
  C      1.469358    2.416330    0.066449
  H      3.411484    3.333281    0.120041
  H      0.965356    3.371338    0.095452
  C     -0.729189   -1.239624    0.018827
  C     -1.422050    0.001573    0.001656
  C     -1.469363   -2.416338    0.066593
  C     -0.726418    1.241068   -0.014739
  C     -2.843821    0.003010    0.000799
  C     -2.856047   -2.405379    0.081858
  H     -0.965362   -3.371342    0.095726
  C     -1.464642    2.418953   -0.062067
  C     -3.549325    1.220657   -0.041737
  C     -3.550370   -1.213716    0.042974
  H     -3.411489   -3.333285    0.120427
  C     -2.851281    2.410479   -0.078520
  H     -0.959225    3.373242   -0.090154
  H     -3.404553    3.339585   -0.116897
  C      5.017570   -1.245153   -0.049279
  O      5.655309   -2.283542   -0.091052
  C      5.016505    1.226528    0.047611
  O      5.673729    2.253320    0.092853
  N      5.661067   -0.007271   -0.004629
  C     -5.017555    1.245150   -0.049431
  O     -5.655288    2.283530   -0.091506
  C     -5.016517   -1.226527    0.047801
  O     -5.673757   -2.253299    0.093212
  N     -5.661064    0.007272   -0.004772
  C      7.114597    0.027980   -0.006966
  H      7.472941    0.611190   -0.852502
  H      7.481614    0.490998    0.906928
  H      7.479835   -0.989326   -0.076912
  C     -7.114593   -0.027976   -0.007361
  H     -7.481800   -0.490599    0.906658
  H     -7.479812    0.989303   -0.077798
  H     -7.472762   -0.611546   -0.852722

----------------------------
CARTESIAN COORDINATES (A.U.)
----------------------------
  NO LB      ZA    FRAG     MASS         X           Y           Z
   0 C     6.0000    0    12.011    2.767780   -4.571128   -0.118512
   1 C     6.0000    0    12.011    1.372729   -2.345288   -0.028344
   2 C     6.0000    0    12.011    2.687287   -0.002990    0.002963
   3 C     6.0000    0    12.011    5.374047   -0.005703    0.001294
   4 C     6.0000    0    12.011    6.707275   -2.306694   -0.079200
   5 C     6.0000    0    12.011    5.388153   -4.555111   -0.149356
   6 H     1.0000    0     1.008    1.812688   -6.374462   -0.172267
   7 C     6.0000    0    12.011    1.377964    2.342523    0.035691
   8 C     6.0000    0    12.011    6.709202    2.293568    0.080901
   9 H     1.0000    0     1.008    6.433671   -6.310861   -0.222211
  10 C     6.0000    0    12.011    5.397132    4.545492    0.154230
  11 C     6.0000    0    12.011    2.776684    4.566202    0.125570
  12 H     1.0000    0     1.008    6.446770    6.298988    0.226845
  13 H     1.0000    0     1.008    1.824258    6.370906    0.180378
  14 C     6.0000    0    12.011   -1.377968   -2.342550    0.035578
  15 C     6.0000    0    12.011   -2.687285    0.002973    0.003129
  16 C     6.0000    0    12.011   -2.776694   -4.566217    0.125843
  17 C     6.0000    0    12.011   -1.372731    2.345279   -0.027853
  18 C     6.0000    0    12.011   -5.374043    0.005688    0.001510
  19 C     6.0000    0    12.011   -5.397147   -4.545508    0.154689
  20 H     1.0000    0     1.008   -1.824270   -6.370913    0.180896
  21 C     6.0000    0    12.011   -2.767772    4.571159   -0.117290
  22 C     6.0000    0    12.011   -6.707252    2.306707   -0.078871
  23 C     6.0000    0    12.011   -6.709227   -2.293591    0.081209
  24 H     1.0000    0     1.008   -6.446780   -6.298996    0.227574
  25 C     6.0000    0    12.011   -5.388140    4.555145   -0.148381
  26 H     1.0000    0     1.008   -1.812673    6.374504   -0.170366
  27 H     1.0000    0     1.008   -6.433673    6.310901   -0.220903
  28 C     6.0000    0    12.011    9.481833   -2.352998   -0.093124
  29 O     8.0000    0    15.999   10.686985   -4.315269   -0.172063
  30 C     6.0000    0    12.011    9.479821    2.317802    0.089972
  31 O     8.0000    0    15.999   10.721794    4.258158    0.175467
  32 N     7.0000    0    14.007   10.697866   -0.013740   -0.008748
  33 C     6.0000    0    12.011   -9.481805    2.352992   -0.093411
  34 O     8.0000    0    15.999  -10.686946    4.315246   -0.172921
  35 C     6.0000    0    12.011   -9.479843   -2.317800    0.090331
  36 O     8.0000    0    15.999  -10.721847   -4.258118    0.176145
  37 N     7.0000    0    14.007  -10.697861    0.013742   -0.009018
  38 C     6.0000    0    12.011   13.444640    0.052875   -0.013164
  39 H     1.0000    0     1.008   14.121812    1.154982   -1.610995
  40 H     1.0000    0     1.008   14.138201    0.927852    1.713846
  41 H     1.0000    0     1.008   14.134840   -1.869555   -0.145343
  42 C     6.0000    0    12.011  -13.444632   -0.052867   -0.013910
  43 H     1.0000    0     1.008  -14.138553   -0.927098    1.713335
  44 H     1.0000    0     1.008  -14.134796    1.869512   -0.147017
  45 H     1.0000    0     1.008  -14.121474   -1.155654   -1.611411

--------------------------------
INTERNAL COORDINATES (ANGSTROEM)
--------------------------------
 C      0   0   0     0.000000000000     0.00000000     0.00000000
 C      1   0   0     1.390907035054     0.00000000     0.00000000
 C      2   1   0     1.421449635592   118.62579488     0.00000000
 C      3   2   1     1.421772999381   119.24172352   358.53943996
 C      4   3   2     1.407903445140   120.13251304     1.19881923
 C      5   4   3     1.379964089296   119.53869589   359.82426579
 H      1   2   3     1.080234937212   120.04444656   180.91870558
 C      3   2   1     1.421589972925   121.53096311   178.53402971
 C      4   3   2     1.407614051619   120.06918245   181.21710818
 H      6   5   4     1.082044256079   118.85855421   179.63731210
 C      9   4   3     1.379729493208   119.65787294   359.84399603
 C     11   9   4     1.386807233540   120.64381319   359.37227943
 H     11   9   4     1.082133389930   118.90131197   179.62100608
 H     12  11   9     1.080231211397   118.24344035   180.16148576
 C      2   1   3     1.455999699558   122.15759682   180.02458768
 C     15   2   1     1.421591080927   119.19875441   183.02269869
 C     15   2   1     1.390969079034   122.13664701     2.97334446
 C     16  15   2     1.421450150541   121.53123000   358.43861731
 C     16  15   2     1.421771984482   119.22717179   178.43554495
 C     17  15   2     1.386811319453   121.72025157   180.81117142
 H     17  15   2     1.080230706704   120.03637411     0.98385906
 C     18  16  15     1.390908942737   118.62643872   178.54566976
 C     19  16  15     1.407909592950   120.13190033   181.20811744
 C     20  17  15     1.379730806844   120.64381694     0.32745057
 H     20  17  15     1.082133507457   120.45445687   180.07494830
 C     23  19  16     1.379961885962   119.53945250   359.80954520
 H     22  18  16     1.080232715196   120.04441122   180.90513786
 H     26  23  19     1.082044666060   118.85821204   179.64535103
 C      5   4   3     1.468455932850   121.03867471   179.74247058
 O     29   5   4     1.219306249870   122.50255242   180.29435835
 C      9   4   3     1.466211939960   120.63543224   179.76350559
 O     31   9   4     1.219955751658   123.10582529   180.53290306
 N     31   9   4     1.393000058092   117.05369273     0.62718373
 C     23  19  16     1.468454438376   121.03806815   179.72635473
 O     34  23  19     1.219305830919   122.50239778   180.31361265
 C     24  20  17     1.466210914998   119.70731435   179.44842681
 O     36  24  20     1.219953817366   123.10634022     0.45674232
 N     36  24  20     1.393005645336   117.05329294   180.55812504
 C     33  31   9     1.453959268848   116.17821548   179.64536615
 H     39  33  31     1.087876580193   110.09314440   301.85646618
 H     39  33  31     1.088250609855   110.25019098    61.24924064
 H     39  33  31     1.083144836666   108.32668257   181.52043743
 C     38  36  24     1.453958623299   116.17796624   179.63284751
 H     43  38  36     1.088251695767   110.25133202    61.26366247
 H     43  38  36     1.083144890017   108.32649533   181.53418537
 H     43  38  36     1.087876002944   110.09196279   301.87056481

---------------------------
INTERNAL COORDINATES (A.U.)
---------------------------
 C      0   0   0     0.000000000000     0.00000000     0.00000000
 C      1   0   0     2.628433373996     0.00000000     0.00000000
 C      2   1   0     2.686150524432   118.62579488     0.00000000
 C      3   2   1     2.686761593434   119.24172352   358.53943996
 C      4   3   2     2.660551934318   120.13251304     1.19881923
 C      5   4   3     2.607754203416   119.53869589   359.82426579
 H      1   2   3     2.041348191625   120.04444656   180.91870558
 C      3   2   1     2.686415723557   121.53096311   178.53402971
 C      4   3   2     2.660005059820   120.06918245   181.21710818
 H      6   5   4     2.044767308772   118.85855421   179.63731210
 C      9   4   3     2.607310881058   119.65787294   359.84399603
 C     11   9   4     2.620685871931   120.64381319   359.37227943
 H     11   9   4     2.044935747339   118.90131197   179.62100608
 H     12  11   9     2.041341150855   118.24344035   180.16148576
 C      2   1   3     2.751440683236   122.15759682   180.02458768
 C     15   2   1     2.686417817377   119.19875441   183.02269869
 C     15   2   1     2.628550620126   122.13664701     2.97334446
 C     16  15   2     2.686151497544   121.53123000   358.43861731
 C     16  15   2     2.686759675553   119.22717179   178.43554495
 C     17  15   2     2.620693593187   121.72025157   180.81117142
 H     17  15   2     2.041340197123   120.03637411     0.98385906
 C     18  16  15     2.628436978994   118.62643872   178.54566976
 C     19  16  15     2.660563551996   120.13190033   181.20811744
 C     20  17  15     2.607313363469   120.64381694     0.32745057
 H     20  17  15     2.044935969433   120.45445687   180.07494830
 C     23  19  16     2.607750039718   119.53945250   359.80954520
 H     22  18  16     2.041343992622   120.04441122   180.90513786
 H     26  23  19     2.044768083524   118.85821204   179.64535103
 C      5   4   3     2.774979552818   121.03867471   179.74247058
 O     29   5   4     2.304154885632   122.50255242   180.29435835
 C      9   4   3     2.770739020809   120.63543224   179.76350559
 O     31   9   4     2.305382266136   123.10582529   180.53290306
 N     31   9   4     2.632388614331   117.05369273     0.62718373
 C     23  19  16     2.774976728671   121.03806815   179.72635473
 O     34  23  19     2.304154093931   122.50239778   180.31361265
 C     24  20  17     2.770737083912   119.70731435   179.44842681
 O     36  24  20     2.305378610853   123.10634022     0.45674232
 N     36  24  20     2.632399172692   117.05329294   180.55812504
 C     33  31   9     2.747584828000   116.17821548   179.64536615
 H     39  33  31     2.055788804071   110.09314440   301.85646618
 H     39  33  31     2.056495617698   110.25019098    61.24924064
 H     39  33  31     2.046847104669   108.32668257   181.52043743
 C     38  36  24     2.747583608089   116.17796624   179.63284751
 H     43  38  36     2.056497669774   110.25133202    61.26366247
 H     43  38  36     2.046847205489   108.32649533   181.53418537
 H     43  38  36     2.055787713230   110.09196279   301.87056481

---------------------
BASIS SET INFORMATION
---------------------
There are 4 groups of distinct atoms

 Group   1 Type C   : 11s6p2d1f contracted to 5s3p2d1f pattern {62111/411/11/1}
 Group   2 Type H   : 5s1p contracted to 3s1p pattern {311/1}
 Group   3 Type O   : 11s6p2d1f contracted to 5s3p2d1f pattern {62111/411/11/1}
 Group   4 Type N   : 11s6p2d1f contracted to 5s3p2d1f pattern {62111/411/11/1}

Atom   0C    basis set group =>   1
Atom   1C    basis set group =>   1
Atom   2C    basis set group =>   1
Atom   3C    basis set group =>   1
Atom   4C    basis set group =>   1
Atom   5C    basis set group =>   1
Atom   6H    basis set group =>   2
Atom   7C    basis set group =>   1
Atom   8C    basis set group =>   1
Atom   9H    basis set group =>   2
Atom  10C    basis set group =>   1
Atom  11C    basis set group =>   1
Atom  12H    basis set group =>   2
Atom  13H    basis set group =>   2
Atom  14C    basis set group =>   1
Atom  15C    basis set group =>   1
Atom  16C    basis set group =>   1
Atom  17C    basis set group =>   1
Atom  18C    basis set group =>   1
Atom  19C    basis set group =>   1
Atom  20H    basis set group =>   2
Atom  21C    basis set group =>   1
Atom  22C    basis set group =>   1
Atom  23C    basis set group =>   1
Atom  24H    basis set group =>   2
Atom  25C    basis set group =>   1
Atom  26H    basis set group =>   2
Atom  27H    basis set group =>   2
Atom  28C    basis set group =>   1
Atom  29O    basis set group =>   3
Atom  30C    basis set group =>   1
Atom  31O    basis set group =>   3
Atom  32N    basis set group =>   4
Atom  33C    basis set group =>   1
Atom  34O    basis set group =>   3
Atom  35C    basis set group =>   1
Atom  36O    basis set group =>   3
Atom  37N    basis set group =>   4
Atom  38C    basis set group =>   1
Atom  39H    basis set group =>   2
Atom  40H    basis set group =>   2
Atom  41H    basis set group =>   2
Atom  42C    basis set group =>   1
Atom  43H    basis set group =>   2
Atom  44H    basis set group =>   2
Atom  45H    basis set group =>   2
---------------------------------
AUXILIARY/J BASIS SET INFORMATION
---------------------------------
There are 4 groups of distinct atoms

 Group   1 Type C   : 12s5p4d2f1g contracted to 6s4p3d1f1g pattern {711111/2111/211/2/1}
 Group   2 Type H   : 5s2p1d contracted to 3s1p1d pattern {311/2/1}
 Group   3 Type O   : 12s5p4d2f1g contracted to 6s4p3d1f1g pattern {711111/2111/211/2/1}
 Group   4 Type N   : 12s5p4d2f1g contracted to 6s4p3d1f1g pattern {711111/2111/211/2/1}

Atom   0C    basis set group =>   1
Atom   1C    basis set group =>   1
Atom   2C    basis set group =>   1
Atom   3C    basis set group =>   1
Atom   4C    basis set group =>   1
Atom   5C    basis set group =>   1
Atom   6H    basis set group =>   2
Atom   7C    basis set group =>   1
Atom   8C    basis set group =>   1
Atom   9H    basis set group =>   2
Atom  10C    basis set group =>   1
Atom  11C    basis set group =>   1
Atom  12H    basis set group =>   2
Atom  13H    basis set group =>   2
Atom  14C    basis set group =>   1
Atom  15C    basis set group =>   1
Atom  16C    basis set group =>   1
Atom  17C    basis set group =>   1
Atom  18C    basis set group =>   1
Atom  19C    basis set group =>   1
Atom  20H    basis set group =>   2
Atom  21C    basis set group =>   1
Atom  22C    basis set group =>   1
Atom  23C    basis set group =>   1
Atom  24H    basis set group =>   2
Atom  25C    basis set group =>   1
Atom  26H    basis set group =>   2
Atom  27H    basis set group =>   2
Atom  28C    basis set group =>   1
Atom  29O    basis set group =>   3
Atom  30C    basis set group =>   1
Atom  31O    basis set group =>   3
Atom  32N    basis set group =>   4
Atom  33C    basis set group =>   1
Atom  34O    basis set group =>   3
Atom  35C    basis set group =>   1
Atom  36O    basis set group =>   3
Atom  37N    basis set group =>   4
Atom  38C    basis set group =>   1
Atom  39H    basis set group =>   2
Atom  40H    basis set group =>   2
Atom  41H    basis set group =>   2
Atom  42C    basis set group =>   1
Atom  43H    basis set group =>   2
Atom  44H    basis set group =>   2
Atom  45H    basis set group =>   2
---------------------------------
AUXILIARY/C BASIS SET INFORMATION
---------------------------------
There are 4 groups of distinct atoms

 Group   1 Type C   : 8s6p5d3f1g contracted to 8s6p4d3f1g pattern {11111111/111111/2111/111/1}
 Group   2 Type H   : 4s3p2d contracted to 4s2p1d pattern {1111/21/2}
 Group   3 Type O   : 8s6p5d3f1g contracted to 8s6p4d3f1g pattern {11111111/111111/2111/111/1}
 Group   4 Type N   : 8s6p5d3f1g contracted to 8s6p4d3f1g pattern {11111111/111111/2111/111/1}

Atom   0C    basis set group =>   1
Atom   1C    basis set group =>   1
Atom   2C    basis set group =>   1
Atom   3C    basis set group =>   1
Atom   4C    basis set group =>   1
Atom   5C    basis set group =>   1
Atom   6H    basis set group =>   2
Atom   7C    basis set group =>   1
Atom   8C    basis set group =>   1
Atom   9H    basis set group =>   2
Atom  10C    basis set group =>   1
Atom  11C    basis set group =>   1
Atom  12H    basis set group =>   2
Atom  13H    basis set group =>   2
Atom  14C    basis set group =>   1
Atom  15C    basis set group =>   1
Atom  16C    basis set group =>   1
Atom  17C    basis set group =>   1
Atom  18C    basis set group =>   1
Atom  19C    basis set group =>   1
Atom  20H    basis set group =>   2
Atom  21C    basis set group =>   1
Atom  22C    basis set group =>   1
Atom  23C    basis set group =>   1
Atom  24H    basis set group =>   2
Atom  25C    basis set group =>   1
Atom  26H    basis set group =>   2
Atom  27H    basis set group =>   2
Atom  28C    basis set group =>   1
Atom  29O    basis set group =>   3
Atom  30C    basis set group =>   1
Atom  31O    basis set group =>   3
Atom  32N    basis set group =>   4
Atom  33C    basis set group =>   1
Atom  34O    basis set group =>   3
Atom  35C    basis set group =>   1
Atom  36O    basis set group =>   3
Atom  37N    basis set group =>   4
Atom  38C    basis set group =>   1
Atom  39H    basis set group =>   2
Atom  40H    basis set group =>   2
Atom  41H    basis set group =>   2
Atom  42C    basis set group =>   1
Atom  43H    basis set group =>   2
Atom  44H    basis set group =>   2
Atom  45H    basis set group =>   2


           ************************************************************
           *        Program running with 6 parallel MPI-processes     *
           *              working on a common directory               *
           ************************************************************
------------------------------------------------------------------------------
                           ORCA GTO INTEGRAL CALCULATION
                           -- RI-GTO INTEGRALS CHOSEN --
------------------------------------------------------------------------------
------------------------------------------------------------------------------
                   ___                                                        
                  /   \      - P O W E R E D   B Y -                         
                 /     \                                                     
                 |  |  |   _    _      __       _____    __    __             
                 |  |  |  | |  | |    /  \     |  _  \  |  |  /  |          
                  \  \/   | |  | |   /    \    | | | |  |  | /  /          
                 / \  \   | |__| |  /  /\  \   | |_| |  |  |/  /          
                |  |  |   |  __  | /  /__\  \  |    /   |      \           
                |  |  |   | |  | | |   __   |  |    \   |  |\   \          
                \     /   | |  | | |  |  |  |  | |\  \  |  | \   \       
                 \___/    |_|  |_| |__|  |__|  |_| \__\ |__|  \__/        
                                                                              
                      - O R C A' S   B I G   F R I E N D -                    
                                      &                                       
                       - I N T E G R A L  F E E D E R -                       
                                                                              
 v1 FN, 2020, v2 2021                                                         
------------------------------------------------------------------------------


Reading SHARK input file PDI_1_M06L_def2TZVP_coords.SHARKINP.tmp ... ok
----------------------
SHARK INTEGRAL PACKAGE
----------------------

Number of atoms                             ...     46
Number of basis functions                   ...   1076
Number of shells                            ...    408
Maximum angular momentum                    ...      3
Integral batch strategy                     ... SHARK/LIBINT Hybrid
RI-J (if used) integral strategy            ... SPLIT-RIJ (Revised 2003 algorithm where possible)
Printlevel                                  ...      1
Contraction scheme used                     ... SEGMENTED contraction
Coulomb Range Separation                    ... NOT USED
Exchange Range Separation                   ... NOT USED
Finite Nucleus Model                        ... NOT USED
Auxiliary Coulomb fitting basis             ... AVAILABLE
   # of basis functions in Aux-J            ...   1722
   # of shells in Aux-J                     ...    550
   Maximum angular momentum in Aux-J        ...      4
Auxiliary J/K fitting basis                 ... NOT available
Auxiliary Correlation fitting basis         ... AVAILABLE
   # of basis functions in Aux-C            ...   2642
   # of shells in Aux-C                     ...    802
   Maximum angular momentum in Aux-C        ...      4
Auxiliary 'external' fitting basis          ... NOT available
Integral threshold                          ...     2.500000e-11
Primitive cut-off                           ...     2.500000e-12
Primitive pair pre-selection threshold      ...     2.500000e-12

Calculating pre-screening integrals         ... done (  0.1 sec) Dimension = 408
Organizing shell pair data                  ... done (  1.1 sec)
Shell pair information
Total number of shell pairs                 ...     83436
Shell pairs after pre-screening             ...     50856
Total number of primitive shell pairs       ...    263196
Primitive shell pairs kept                  ...    104270
          la=0 lb=0:  11607 shell pairs
          la=1 lb=0:  14378 shell pairs
          la=1 lb=1:   4389 shell pairs
          la=2 lb=0:   7470 shell pairs
          la=2 lb=1:   4648 shell pairs
          la=2 lb=2:   1215 shell pairs
          la=3 lb=0:   3490 shell pairs
          la=3 lb=1:   2222 shell pairs
          la=3 lb=2:   1144 shell pairs
          la=3 lb=3:    293 shell pairs

Calculating one electron integrals          ... done (  0.1 sec)
Calculating RI/J V-Matrix + Cholesky decomp.... done (  0.3 sec)
Calculating RI/C V-Matrix + Cholesky decomp.... done (  0.4 sec)
Calculating Nuclear repulsion               ... done (  0.0 sec) ENN=   2947.572567001087 Eh

SHARK setup successfully completed in   2.7 seconds

Maximum memory used throughout the entire GTOINT-calculation: 95.1 MB


           ************************************************************
           *        Program running with 6 parallel MPI-processes     *
           *              working on a common directory               *
           ************************************************************
-------------------------------------------------------------------------------
                                 ORCA SCF
-------------------------------------------------------------------------------

------------
SCF SETTINGS
------------
Hamiltonian:
 Density Functional     Method          .... DFT(GTOs)
 Exchange Functional    Exchange        .... PBE
   PBE kappa parameter   XKappa         ....  0.804000
   PBE mue parameter    XMuePBE         ....  0.219520
 Correlation Functional Correlation     .... PBE
   PBE beta parameter  CBetaPBE         ....  0.066725
 LDA part of GGA corr.  LDAOpt          .... PW91-LDA
 Gradients option       PostSCFGGA      .... off
 Hybrid DFT is turned on
   Fraction HF Exchange ScalHFX         ....  0.690000
   Scaling of DF-GGA-X  ScalDFX         ....  0.310000
   Scaling of DF-GGA-C  ScalDFC         ....  0.670000
   Scaling of DF-LDA-C  ScalLDAC        ....  0.670000
   Perturbative correction              ....  0.330000
   Density functional embedding theory  .... OFF
 RI-approximation to the Coulomb term is turned on
   Number of AuxJ basis functions       .... 1722
   RIJ-COSX (HFX calculated with COS-X)).... on


General Settings:
 Integral files         IntName         .... PDI_1_M06L_def2TZVP_coords
 Hartree-Fock type      HFTyp           .... RHF
 Total Charge           Charge          ....    0
 Multiplicity           Mult            ....    1
 Number of Electrons    NEL             ....  216
 Basis Dimension        Dim             .... 1076
 Nuclear Repulsion      ENuc            ....   2947.5725670011 Eh

Convergence Acceleration:
 DIIS                   CNVDIIS         .... on
   Start iteration      DIISMaxIt       ....    12
   Startup error        DIISStart       ....  0.200000
   # of expansion vecs  DIISMaxEq       ....     5
   Bias factor          DIISBfac        ....   1.050
   Max. coefficient     DIISMaxC        ....  10.000
 Trust-Rad. Augm. Hess. CNVTRAH         .... auto
   Auto Start mean grad. ratio tolernc. ....  1.125000
   Auto Start start iteration           ....    20
   Auto Start num. interpolation iter.  ....    10
   Max. Number of Micro iterations      ....    16
   Max. Number of Macro iterations      .... Maxiter - #DIIS iter
   Number of Davidson start vectors     ....     2
   Converg. threshold I  (grad. norm)   ....   1.000e-05
   Converg. threshold II (energy diff.) ....   1.000e-08
   Grad. Scal. Fac. for Micro threshold ....   0.100
   Minimum threshold for Micro iter.    ....   0.010
   NR start threshold (gradient norm)   ....   0.001
   Initial trust radius                 ....   0.400
   Minimum AH scaling param. (alpha)    ....   1.000
   Maximum AH scaling param. (alpha)    .... 1000.000
   Orbital update algorithm             .... Taylor
   White noise on init. David. guess    .... on
   Maximum white noise                  ....   0.010
   Quad. conv. algorithm                .... NR
 SOSCF                  CNVSOSCF        .... on
   Start iteration      SOSCFMaxIt      ....   150
   Startup grad/error   SOSCFStart      ....  0.003300
 Level Shifting         CNVShift        .... on
   Level shift para.    LevelShift      ....    0.2500
   Turn off err/grad.   ShiftErr        ....    0.0010
 Zerner damping         CNVZerner       .... off
 Static damping         CNVDamp         .... on
   Fraction old density DampFac         ....    0.7000
   Max. Damping (<1)    DampMax         ....    0.9800
   Min. Damping (>=0)   DampMin         ....    0.0000
   Turn off err/grad.   DampErr         ....    0.1000
 Fernandez-Rico         CNVRico         .... off

SCF Procedure:
 Maximum # iterations   MaxIter         ....   125
 SCF integral mode      SCFMode         .... Direct
   Integral package                     .... SHARK and LIBINT hybrid scheme
 Reset frequency        DirectResetFreq ....    20
 Integral Threshold     Thresh          ....  2.500e-11 Eh
 Primitive CutOff       TCut            ....  2.500e-12 Eh

Convergence Tolerance:
 Convergence Check Mode ConvCheckMode   .... Total+1el-Energy
 Convergence forced     ConvForced      .... 1
 Energy Change          TolE            ....  1.000e-08 Eh
 1-El. energy change                    ....  1.000e-05 Eh
 Orbital Gradient       TolG            ....  1.000e-05
 Orbital Rotation angle TolX            ....  1.000e-05
 DIIS Error             TolErr          ....  5.000e-07


Diagonalization of the overlap matrix:
Smallest eigenvalue                        ... 1.259e-06
Time for diagonalization                   ...    0.258 sec
Threshold for overlap eigenvalues          ... 1.000e-08
Number of eigenvalues below threshold      ... 0
Time for construction of square roots      ...    0.180 sec
Total time needed                          ...    0.443 sec

Time for model grid setup =    0.474 sec

------------------------------
INITIAL GUESS: MODEL POTENTIAL
------------------------------
Loading Hartree-Fock densities                     ... done
Calculating cut-offs                               ... done
Initializing the effective Hamiltonian             ... done
Setting up the integral package (SHARK)            ... done
Starting the Coulomb interaction                   ... done (   1.0 sec)
Reading the grid                                   ... done
Mapping shells                                     ... done
Starting the XC term evaluation                    ... done (   0.7 sec)
  promolecular density results
     # of electrons  =    215.973391933
     EX              =   -183.040789950
     EC              =     -2.735251983
     EX+EC           =   -185.776041932
Transforming the Hamiltonian                       ... done (   0.1 sec)
Diagonalizing the Hamiltonian                      ... done (   0.2 sec)
Back transforming the eigenvectors                 ... done (   0.1 sec)
Now organizing SCF variables                       ... done
                      ------------------
                      INITIAL GUESS DONE (   2.6 sec)
                      ------------------
-------------------
DFT GRID GENERATION
-------------------

General Integration Accuracy     IntAcc      ... 4.388
Radial Grid Type                 RadialGrid  ... OptM3 with GC (2021)
Angular Grid (max. ang.)         AngularGrid ... 4 (Lebedev-302)
Angular grid pruning method      GridPruning ... 4 (adaptive)
Weight generation scheme         WeightScheme... Becke
Basis function cutoff            BFCut       ... 1.0000e-11
Integration weight cutoff        WCut        ... 1.0000e-14
Angular grids for H and He will be reduced by one unit
Partially contracted basis set               ... off
Rotationally invariant grid construction     ... off

Total number of grid points                  ...   234835
Total number of batches                      ...     3696
Average number of points per batch           ...       63
Average number of grid points per atom       ...     5105
Time for grid setup =    1.833 sec

--------------------
COSX GRID GENERATION
--------------------

GRIDX 1
-------
General Integration Accuracy     IntAcc      ... 3.816
Radial Grid Type                 RadialGrid  ... OptM3 with GC (2021)
Angular Grid (max. ang.)         AngularGrid ... 1 (Lebedev-50)
Angular grid pruning method      GridPruning ... 4 (adaptive)
Weight generation scheme         WeightScheme... Becke
Basis function cutoff            BFCut       ... 1.0000e-11
Integration weight cutoff        WCut        ... 1.0000e-14
Angular grids for H and He will be reduced by one unit
Partially contracted basis set               ... on
Rotationally invariant grid construction     ... off

Total number of grid points                  ...    29840
Total number of batches                      ...      490
Average number of points per batch           ...       60
Average number of grid points per atom       ...      649
UseSFitting                                  ... on

GRIDX 2
-------
General Integration Accuracy     IntAcc      ... 4.020
Radial Grid Type                 RadialGrid  ... OptM3 with GC (2021)
Angular Grid (max. ang.)         AngularGrid ... 2 (Lebedev-110)
Angular grid pruning method      GridPruning ... 4 (adaptive)
Weight generation scheme         WeightScheme... Becke
Basis function cutoff            BFCut       ... 1.0000e-11
Integration weight cutoff        WCut        ... 1.0000e-14
Angular grids for H and He will be reduced by one unit
Partially contracted basis set               ... on
Rotationally invariant grid construction     ... off

Total number of grid points                  ...    65893
Total number of batches                      ...     1058
Average number of points per batch           ...       62
Average number of grid points per atom       ...     1432
UseSFitting                                  ... on

GRIDX 3
-------
General Integration Accuracy     IntAcc      ... 4.338
Radial Grid Type                 RadialGrid  ... OptM3 with GC (2021)
Angular Grid (max. ang.)         AngularGrid ... 3 (Lebedev-194)
Angular grid pruning method      GridPruning ... 4 (adaptive)
Weight generation scheme         WeightScheme... Becke
Basis function cutoff            BFCut       ... 1.0000e-11
Integration weight cutoff        WCut        ... 1.0000e-14
Angular grids for H and He will be reduced by one unit
Partially contracted basis set               ... on
Rotationally invariant grid construction     ... off

Total number of grid points                  ...   144901
Total number of batches                      ...     2289
Average number of points per batch           ...       63
Average number of grid points per atom       ...     3150
UseSFitting                                  ... on

Time for X-Grid setup             =    4.346 sec


--------------------
CPCM SOLVATION MODEL
--------------------
CPCM parameters:
  Epsilon                                         ...       8.9300
  Refrac                                          ...       1.4242
  Rsolv                                           ...       1.3000
  Surface type                                    ... GAUSSIAN VDW
  Epsilon function type                           ...         CPCM
Solvent:                                     ... DICHLOROMETHANE
SMD-CDS solvent descriptors:
  Soln                                       ...    1.4242
  Soln25                                     ...    1.4212
  Sola                                       ...    0.1000
  Solb                                       ...    0.0500
  Solg                                       ...   39.1500
  Solc                                       ...    0.0000
  Solh                                       ...    0.6670
Radii:
 Radius for C  used is    3.4960 Bohr (=   1.8500 Ang.)
 Radius for H  used is    2.2677 Bohr (=   1.2000 Ang.)
 Radius for O  used is    3.9949 Bohr (=   2.1140 Ang.)
 Radius for N  used is    3.5716 Bohr (=   1.8900 Ang.)
Calculating surface                               ...        done! (  0.0s)
GEPOL surface points                              ...         2248
GEPOL Volume                                      ...    2839.0468
GEPOL Surface-area                                ...    1385.5089
Calculating surface distance matrix               ...        done! (  0.0s)
Performing Cholesky decomposition & store         ...        done! (  0.2s)
Overall time for CPCM initialization              ...                 0.2s
--------------
SCF ITERATIONS
--------------
ITER       Energy         Delta-E        Max-DP      RMS-DP      [F,P]     Damp
               ***  Starting incremental Fock matrix formation  ***
  0  -1405.7464448264   0.000000000000 0.20141746  0.00182160  0.2736650 0.7000
  1  -1406.0213213226  -0.274876496295 0.18591690  0.00159534  0.1477739 0.7000
                               ***Turning on DIIS***
  2  -1406.1678649003  -0.146543577698 0.40940273  0.00338897  0.0697567 0.0000
  3  -1406.4407784296  -0.272913529229 0.12701621  0.00094260  0.0566551 0.0000
  4  -1406.4648607323  -0.024082302774 0.02832169  0.00023560  0.0130514 0.0000
  5  -1406.4667755402  -0.001914807844 0.01589479  0.00013134  0.0036832 0.0000
                      *** Initiating the SOSCF procedure ***
                           *** Shutting down DIIS ***
                      *** Re-Reading the Fockian *** 
                      *** Removing any level shift *** 
ITER      Energy       Delta-E        Grad      Rot      Max-DP    RMS-DP
  6  -1406.46709020  -0.0003146620  0.001829  0.001829  0.009894  0.000065
               *** Restarting incremental Fock matrix formation ***
  7  -1406.46707938   0.0000108178  0.001234  0.004702  0.052862  0.000680
  8  -1406.46712982  -0.0000504315  0.000419  0.003694  0.018101  0.000234
  9  -1406.46713945  -0.0000096300  0.000204  0.000500  0.019194  0.000205
 10  -1406.46714322  -0.0000037767  0.000073  0.000375  0.001466  0.000018
 11  -1406.46714342  -0.0000001936  0.000027  0.000050  0.001701  0.000012
 12  -1406.46714345  -0.0000000379  0.000010  0.000032  0.000537  0.000005
 13  -1406.46714348  -0.0000000245  0.000003  0.000013  0.002105  0.000012
                  ***Gradient check signals convergence***
              ***Rediagonalizing the Fockian in SOSCF/NRSCF***

               *****************************************************
               *                     SUCCESS                       *
               *           SCF CONVERGED AFTER  14 CYCLES          *
               *****************************************************

Old exchange energy                            =   -128.678263702 Eh
New exchange energy                            =   -128.677972079 Eh
Exchange energy change after final integration =      0.000291623 Eh
Total energy after final integration           =  -1406.466851875 Eh
Final COS-X integration done in                =    66.370 sec

SMD CDS free energy correction energy :                -9.80155     Kcal/mol
Total Energy after SMD CDS correction =             -1406.482471635 Eh

----------------
TOTAL SCF ENERGY
----------------

Total Energy       :        -1406.48247164 Eh          -38272.33378 eV

Components:
Nuclear Repulsion  :         2947.57256700 Eh           80207.52722 eV
Electronic Energy  :        -4354.05503864 Eh         -118479.86100 eV
One Electron Energy:        -7772.43032530 Eh         -211498.58153 eV
Two Electron Energy:         3418.37528667 Eh           93018.72053 eV
Max COSX asymmetry :            0.00000806 Eh               0.00022 eV
CPCM Dielectric    :           -0.02908076 Eh              -0.79133 eV
SMD CDS (Gcds)     :           -0.01561976 Eh              -0.42504 eV

Virial components:
Potential Energy   :        -2807.41715332 Eh          -76393.70452 eV
Kinetic Energy     :         1400.93468169 Eh           38121.37074 eV
Virial Ratio       :            2.00396006


DFT components:
N(Alpha)           :      108.000133450631 electrons
N(Beta)            :      108.000133450631 electrons
N(Total)           :      216.000266901263 electrons
E(X)               :      -57.617069947312 Eh       
E(C)               :       -4.942011955619 Eh       
E(XC)              :      -62.559081902932 Eh       
DFET-embed. en.    :        0.000000000000 Eh       
CPCM Solvation Model Properties:
Surface-charge          :           -0.04002340
Charge-correction       :            0.00030113 Eh               0.00819 eV
Free-energy (cav+disp)  :           -0.01561976 Eh              -0.42504 eV

---------------
SCF CONVERGENCE
---------------

  Last Energy change         ...   -1.9047e-08  Tolerance :   1.0000e-08
  Last MAX-Density change    ...    1.9984e-15  Tolerance :   1.0000e-07
  Last RMS-Density change    ...    1.6714e-17  Tolerance :   5.0000e-09
  Last Orbital Gradient      ...    1.0811e-06  Tolerance :   1.0000e-05
  Last Orbital Rotation      ...    8.9589e-06  Tolerance :   1.0000e-05

             **** THE GBW FILE WAS UPDATED (PDI_1_M06L_def2TZVP_coords.gbw) ****
             **** DENSITY PDI_1_M06L_def2TZVP_coords.scfp WAS UPDATED ****
             **** ENERGY FILE WAS UPDATED (PDI_1_M06L_def2TZVP_coords.en.tmp) ****
             **** THE GBW FILE WAS UPDATED (PDI_1_M06L_def2TZVP_coords.gbw) ****
             **** DENSITY PDI_1_M06L_def2TZVP_coords.scfp WAS UPDATED ****
----------------
ORBITAL ENERGIES
----------------

  NO   OCC          E(Eh)            E(eV) 
   0   2.0000     -19.989975      -543.9549 
   1   2.0000     -19.989974      -543.9548 
   2   2.0000     -19.989960      -543.9545 
   3   2.0000     -19.989959      -543.9545 
   4   2.0000     -15.139611      -411.9698 
   5   2.0000     -15.139607      -411.9697 
   6   2.0000     -10.956153      -298.1321 
   7   2.0000     -10.956152      -298.1320 
   8   2.0000     -10.953760      -298.0670 
   9   2.0000     -10.953759      -298.0669 
  10   2.0000     -10.867245      -295.7128 
  11   2.0000     -10.867221      -295.7121 
  12   2.0000     -10.866589      -295.6949 
  13   2.0000     -10.866537      -295.6935 
  14   2.0000     -10.862759      -295.5907 
  15   2.0000     -10.862757      -295.5906 
  16   2.0000     -10.859334      -295.4975 
  17   2.0000     -10.859329      -295.4974 
  18   2.0000     -10.849957      -295.2423 
  19   2.0000     -10.849956      -295.2423 
  20   2.0000     -10.849716      -295.2358 
  21   2.0000     -10.849712      -295.2357 
  22   2.0000     -10.848149      -295.1932 
  23   2.0000     -10.848148      -295.1931 
  24   2.0000     -10.848093      -295.1916 
  25   2.0000     -10.848093      -295.1916 
  26   2.0000     -10.841150      -295.0027 
  27   2.0000     -10.841149      -295.0027 
  28   2.0000     -10.841059      -295.0002 
  29   2.0000     -10.841059      -295.0002 
  30   2.0000     -10.837485      -294.9030 
  31   2.0000     -10.837481      -294.9029 
  32   2.0000      -1.297708       -35.3124 
  33   2.0000      -1.297707       -35.3124 
  34   2.0000      -1.276621       -34.7386 
  35   2.0000      -1.276619       -34.7386 
  36   2.0000      -1.154511       -31.4158 
  37   2.0000      -1.154120       -31.4052 
  38   2.0000      -1.127319       -30.6759 
  39   2.0000      -1.098255       -29.8850 
  40   2.0000      -1.059897       -28.8413 
  41   2.0000      -1.037590       -28.2343 
  42   2.0000      -1.035208       -28.1694 
  43   2.0000      -0.975932       -26.5564 
  44   2.0000      -0.968437       -26.3525 
  45   2.0000      -0.955477       -25.9999 
  46   2.0000      -0.940383       -25.5891 
  47   2.0000      -0.913107       -24.8469 
  48   2.0000      -0.898215       -24.4417 
  49   2.0000      -0.877896       -23.8888 
  50   2.0000      -0.861287       -23.4368 
  51   2.0000      -0.822460       -22.3803 
  52   2.0000      -0.817897       -22.2561 
  53   2.0000      -0.807660       -21.9776 
  54   2.0000      -0.797608       -21.7040 
  55   2.0000      -0.776159       -21.1204 
  56   2.0000      -0.771159       -20.9843 
  57   2.0000      -0.748959       -20.3802 
  58   2.0000      -0.716600       -19.4997 
  59   2.0000      -0.690586       -18.7918 
  60   2.0000      -0.686147       -18.6710 
  61   2.0000      -0.674767       -18.3613 
  62   2.0000      -0.661796       -18.0084 
  63   2.0000      -0.643846       -17.5199 
  64   2.0000      -0.634457       -17.2645 
  65   2.0000      -0.616896       -16.7866 
  66   2.0000      -0.613700       -16.6996 
  67   2.0000      -0.611105       -16.6290 
  68   2.0000      -0.606852       -16.5133 
  69   2.0000      -0.606372       -16.5002 
  70   2.0000      -0.594310       -16.1720 
  71   2.0000      -0.581147       -15.8138 
  72   2.0000      -0.578538       -15.7428 
  73   2.0000      -0.577714       -15.7204 
  74   2.0000      -0.565342       -15.3837 
  75   2.0000      -0.560105       -15.2412 
  76   2.0000      -0.558561       -15.1992 
  77   2.0000      -0.549938       -14.9646 
  78   2.0000      -0.546351       -14.8670 
  79   2.0000      -0.533351       -14.5132 
  80   2.0000      -0.523731       -14.2514 
  81   2.0000      -0.520455       -14.1623 
  82   2.0000      -0.519090       -14.1251 
  83   2.0000      -0.514364       -13.9966 
  84   2.0000      -0.514125       -13.9901 
  85   2.0000      -0.513427       -13.9711 
  86   2.0000      -0.501145       -13.6369 
  87   2.0000      -0.500555       -13.6208 
  88   2.0000      -0.496624       -13.5138 
  89   2.0000      -0.494976       -13.4690 
  90   2.0000      -0.481774       -13.1097 
  91   2.0000      -0.468697       -12.7539 
  92   2.0000      -0.463288       -12.6067 
  93   2.0000      -0.460347       -12.5267 
  94   2.0000      -0.436116       -11.8673 
  95   2.0000      -0.423527       -11.5248 
  96   2.0000      -0.418036       -11.3753 
  97   2.0000      -0.407167       -11.0796 
  98   2.0000      -0.404590       -11.0095 
  99   2.0000      -0.389210       -10.5909 
 100   2.0000      -0.389179       -10.5901 
 101   2.0000      -0.371545       -10.1102 
 102   2.0000      -0.368773       -10.0348 
 103   2.0000      -0.342301        -9.3145 
 104   2.0000      -0.340523        -9.2661 
 105   2.0000      -0.334444        -9.1007 
 106   2.0000      -0.328492        -8.9387 
 107   2.0000      -0.261090        -7.1046 
 108   0.0000      -0.075351        -2.0504 
 109   0.0000       0.002186         0.0595 
 110   0.0000       0.006042         0.1644 
 111   0.0000       0.021184         0.5764 
 112   0.0000       0.049967         1.3597 
 113   0.0000       0.070198         1.9102 
 114   0.0000       0.072478         1.9722 
 115   0.0000       0.110609         3.0098 
 116   0.0000       0.115445         3.1414 
 117   0.0000       0.116308         3.1649 
 118   0.0000       0.126823         3.4510 
 119   0.0000       0.132444         3.6040 
 120   0.0000       0.143741         3.9114 
 121   0.0000       0.146131         3.9764 
 122   0.0000       0.150074         4.0837 
 123   0.0000       0.153879         4.1872 
 124   0.0000       0.154807         4.2125 
 125   0.0000       0.162729         4.4281 
 126   0.0000       0.168602         4.5879 
 127   0.0000       0.169966         4.6250 
 128   0.0000       0.178187         4.8487 
 129   0.0000       0.183117         4.9829 
 130   0.0000       0.184223         5.0130 
 131   0.0000       0.188236         5.1222 
 132   0.0000       0.192830         5.2472 
 133   0.0000       0.201033         5.4704 
 134   0.0000       0.204511         5.5650 
 135   0.0000       0.206822         5.6279 
 136   0.0000       0.215354         5.8601 
 137   0.0000       0.216315         5.8862 
 138   0.0000       0.223260         6.0752 
 139   0.0000       0.228813         6.2263 
 140   0.0000       0.229526         6.2457 
 141   0.0000       0.232926         6.3382 
 142   0.0000       0.234547         6.3824 
 143   0.0000       0.243488         6.6256 
 144   0.0000       0.250118         6.8061 
 145   0.0000       0.255131         6.9425 
 146   0.0000       0.256735         6.9861 
 147   0.0000       0.268294         7.3007 
 148   0.0000       0.271212         7.3801 
 149   0.0000       0.276498         7.5239 
 150   0.0000       0.279421         7.6034 
 151   0.0000       0.280357         7.6289 
 152   0.0000       0.285097         7.7579 
 153   0.0000       0.288093         7.8394 
 154   0.0000       0.291090         7.9210 
 155   0.0000       0.293503         7.9866 
 156   0.0000       0.297266         8.0890 
 157   0.0000       0.297742         8.1020 
 158   0.0000       0.302081         8.2201 
 159   0.0000       0.303813         8.2672 
 160   0.0000       0.310337         8.4447 
 161   0.0000       0.310836         8.4583 
 162   0.0000       0.315118         8.5748 
 163   0.0000       0.322099         8.7648 
 164   0.0000       0.326062         8.8726 
 165   0.0000       0.328373         8.9355 
 166   0.0000       0.333190         9.0666 
 167   0.0000       0.335615         9.1326 
 168   0.0000       0.337166         9.1748 
 169   0.0000       0.344917         9.3857 
 170   0.0000       0.346226         9.4213 
 171   0.0000       0.352032         9.5793 
 172   0.0000       0.356501         9.7009 
 173   0.0000       0.356684         9.7059 
 174   0.0000       0.358364         9.7516 
 175   0.0000       0.365507         9.9460 
 176   0.0000       0.374037        10.1781 
 177   0.0000       0.374949        10.2029 
 178   0.0000       0.378383        10.2963 
 179   0.0000       0.378975        10.3124 
 180   0.0000       0.387416        10.5421 
 181   0.0000       0.389855        10.6085 
 182   0.0000       0.390546        10.6273 
 183   0.0000       0.401643        10.9293 
 184   0.0000       0.404087        10.9958 
 185   0.0000       0.404670        11.0116 
 186   0.0000       0.407687        11.0937 
 187   0.0000       0.407746        11.0953 
 188   0.0000       0.412403        11.2221 
 189   0.0000       0.414994        11.2926 
 190   0.0000       0.416124        11.3233 
 191   0.0000       0.421757        11.4766 
 192   0.0000       0.430288        11.7087 
 193   0.0000       0.431752        11.7486 
 194   0.0000       0.434430        11.8214 
 195   0.0000       0.436788        11.8856 
 196   0.0000       0.440076        11.9751 
 197   0.0000       0.452893        12.3239 
 198   0.0000       0.456169        12.4130 
 199   0.0000       0.459484        12.5032 
 200   0.0000       0.464489        12.6394 
 201   0.0000       0.467093        12.7103 
 202   0.0000       0.469960        12.7883 
 203   0.0000       0.473662        12.8890 
 204   0.0000       0.480127        13.0649 
 205   0.0000       0.482961        13.1420 
 206   0.0000       0.482971        13.1423 
 207   0.0000       0.492196        13.3933 
 208   0.0000       0.496650        13.5145 
 209   0.0000       0.497299        13.5322 
 210   0.0000       0.497664        13.5421 
 211   0.0000       0.500288        13.6135 
 212   0.0000       0.505713        13.7611 
 213   0.0000       0.511266        13.9122 
 214   0.0000       0.511853        13.9282 
 215   0.0000       0.517098        14.0709 
 216   0.0000       0.521258        14.1841 
 217   0.0000       0.530812        14.4441 
 218   0.0000       0.532708        14.4957 
 219   0.0000       0.534442        14.5429 
 220   0.0000       0.535389        14.5687 
 221   0.0000       0.552221        15.0267 
 222   0.0000       0.553659        15.0658 
 223   0.0000       0.557208        15.1624 
 224   0.0000       0.566429        15.4133 
 225   0.0000       0.566593        15.4178 
 226   0.0000       0.570278        15.5181 
 227   0.0000       0.574029        15.6201 
 228   0.0000       0.583767        15.8851 
 229   0.0000       0.584834        15.9141 
 230   0.0000       0.587250        15.9799 
 231   0.0000       0.587463        15.9857 
 232   0.0000       0.600396        16.3376 
 233   0.0000       0.601904        16.3786 
 234   0.0000       0.602900        16.4057 
 235   0.0000       0.604717        16.4552 
 236   0.0000       0.608509        16.5584 
 237   0.0000       0.612733        16.6733 
 238   0.0000       0.616381        16.7726 
 239   0.0000       0.618727        16.8364 
 240   0.0000       0.624218        16.9858 
 241   0.0000       0.631544        17.1852 
 242   0.0000       0.633253        17.2317 
 243   0.0000       0.634547        17.2669 
 244   0.0000       0.644175        17.5289 
 245   0.0000       0.649634        17.6775 
 246   0.0000       0.649946        17.6859 
 247   0.0000       0.655524        17.8377 
 248   0.0000       0.660491        17.9729 
 249   0.0000       0.666238        18.1293 
 250   0.0000       0.668407        18.1883 
 251   0.0000       0.669984        18.2312 
 252   0.0000       0.671271        18.2662 
 253   0.0000       0.675381        18.3781 
 254   0.0000       0.680221        18.5098 
 255   0.0000       0.682043        18.5593 
 256   0.0000       0.688003        18.7215 
 257   0.0000       0.690937        18.8014 
 258   0.0000       0.695973        18.9384 
 259   0.0000       0.696058        18.9407 
 260   0.0000       0.697126        18.9698 
 261   0.0000       0.703201        19.1351 
 262   0.0000       0.703904        19.1542 
 263   0.0000       0.707636        19.2558 
 264   0.0000       0.715293        19.4641 
 265   0.0000       0.715697        19.4751 
 266   0.0000       0.716444        19.4954 
 267   0.0000       0.720952        19.6181 
 268   0.0000       0.724594        19.7172 
 269   0.0000       0.728126        19.8133 
 270   0.0000       0.728742        19.8301 
 271   0.0000       0.738750        20.1024 
 272   0.0000       0.738994        20.1091 
 273   0.0000       0.748299        20.3623 
 274   0.0000       0.751014        20.4361 
 275   0.0000       0.756386        20.5823 
 276   0.0000       0.761167        20.7124 
 277   0.0000       0.772678        21.0256 
 278   0.0000       0.781424        21.2636 
 279   0.0000       0.783193        21.3118 
 280   0.0000       0.787143        21.4193 
 281   0.0000       0.795907        21.6577 
 282   0.0000       0.797570        21.7030 
 283   0.0000       0.800260        21.7762 
 284   0.0000       0.804060        21.8796 
 285   0.0000       0.804613        21.8946 
 286   0.0000       0.808544        22.0016 
 287   0.0000       0.811808        22.0904 
 288   0.0000       0.819016        22.2866 
 289   0.0000       0.827365        22.5137 
 290   0.0000       0.828281        22.5387 
 291   0.0000       0.839993        22.8574 
 292   0.0000       0.842576        22.9276 
 293   0.0000       0.846108        23.0238 
 294   0.0000       0.848216        23.0811 
 295   0.0000       0.849760        23.1232 
 296   0.0000       0.852973        23.2106 
 297   0.0000       0.853655        23.2291 
 298   0.0000       0.856388        23.3035 
 299   0.0000       0.862849        23.4793 
 300   0.0000       0.870250        23.6807 
 301   0.0000       0.871754        23.7216 
 302   0.0000       0.879121        23.9221 
 303   0.0000       0.884706        24.0741 
 304   0.0000       0.885614        24.0988 
 305   0.0000       0.890277        24.2257 
 306   0.0000       0.893152        24.3039 
 307   0.0000       0.897521        24.4228 
 308   0.0000       0.899151        24.4672 
 309   0.0000       0.908284        24.7157 
 310   0.0000       0.915902        24.9229 
 311   0.0000       0.920445        25.0466 
 312   0.0000       0.923368        25.1261 
 313   0.0000       0.932254        25.3679 
 314   0.0000       0.938117        25.5275 
 315   0.0000       0.938275        25.5318 
 316   0.0000       0.939399        25.5624 
 317   0.0000       0.940420        25.5901 
 318   0.0000       0.953884        25.9565 
 319   0.0000       0.957115        26.0444 
 320   0.0000       0.958786        26.0899 
 321   0.0000       0.959560        26.1110 
 322   0.0000       0.970789        26.4165 
 323   0.0000       0.980782        26.6884 
 324   0.0000       0.982142        26.7254 
 325   0.0000       0.982439        26.7335 
 326   0.0000       0.983245        26.7555 
 327   0.0000       0.991208        26.9721 
 328   0.0000       0.993899        27.0454 
 329   0.0000       0.994619        27.0650 
 330   0.0000       1.003520        27.3072 
 331   0.0000       1.009474        27.4692 
 332   0.0000       1.011921        27.5358 
 333   0.0000       1.019383        27.7388 
 334   0.0000       1.020418        27.7670 
 335   0.0000       1.028733        27.9933 
 336   0.0000       1.046631        28.4803 
 337   0.0000       1.054456        28.6932 
 338   0.0000       1.061115        28.8744 
 339   0.0000       1.066127        29.0108 
 340   0.0000       1.066817        29.0296 
 341   0.0000       1.086296        29.5596 
 342   0.0000       1.088694        29.6249 
 343   0.0000       1.090036        29.6614 
 344   0.0000       1.093636        29.7594 
 345   0.0000       1.094078        29.7714 
 346   0.0000       1.095921        29.8215 
 347   0.0000       1.100465        29.9452 
 348   0.0000       1.104558        30.0565 
 349   0.0000       1.111399        30.2427 
 350   0.0000       1.119448        30.4617 
 351   0.0000       1.133085        30.8328 
 352   0.0000       1.137180        30.9443 
 353   0.0000       1.141154        31.0524 
 354   0.0000       1.151362        31.3302 
 355   0.0000       1.159235        31.5444 
 356   0.0000       1.166415        31.7398 
 357   0.0000       1.173535        31.9335 
 358   0.0000       1.180757        32.1300 
 359   0.0000       1.182620        32.1807 
 360   0.0000       1.184024        32.2189 
 361   0.0000       1.189602        32.3707 
 362   0.0000       1.191626        32.4258 
 363   0.0000       1.204205        32.7681 
 364   0.0000       1.208200        32.8768 
 365   0.0000       1.226960        33.3873 
 366   0.0000       1.229419        33.4542 
 367   0.0000       1.230955        33.4960 
 368   0.0000       1.234467        33.5915 
 369   0.0000       1.240106        33.7450 
 370   0.0000       1.249766        34.0079 
 371   0.0000       1.273826        34.6626 
 372   0.0000       1.276891        34.7460 
 373   0.0000       1.280914        34.8554 
 374   0.0000       1.284187        34.9445 
 375   0.0000       1.303482        35.4695 
 376   0.0000       1.303796        35.4781 
 377   0.0000       1.308188        35.5976 
 378   0.0000       1.311838        35.6969 
 379   0.0000       1.328532        36.1512 
 380   0.0000       1.331635        36.2356 
 381   0.0000       1.342576        36.5334 
 382   0.0000       1.342694        36.5366 
 383   0.0000       1.343876        36.5687 
 384   0.0000       1.353663        36.8351 
 385   0.0000       1.368675        37.2435 
 386   0.0000       1.375375        37.4259 
 387   0.0000       1.387191        37.7474 
 388   0.0000       1.395171        37.9645 
 389   0.0000       1.397453        38.0266 
 390   0.0000       1.397978        38.0409 
 391   0.0000       1.409569        38.3563 
 392   0.0000       1.421118        38.6706 
 393   0.0000       1.423570        38.7373 
 394   0.0000       1.427568        38.8461 
 395   0.0000       1.437106        39.1056 
 396   0.0000       1.439320        39.1659 
 397   0.0000       1.441053        39.2131 
 398   0.0000       1.445972        39.3469 
 399   0.0000       1.456411        39.6310 
 400   0.0000       1.468329        39.9553 
 401   0.0000       1.474919        40.1346 
 402   0.0000       1.490603        40.5614 
 403   0.0000       1.499797        40.8116 
 404   0.0000       1.506944        41.0060 
 405   0.0000       1.509540        41.0767 
 406   0.0000       1.509924        41.0871 
 407   0.0000       1.511821        41.1387 
 408   0.0000       1.516182        41.2574 
 409   0.0000       1.517939        41.3052 
 410   0.0000       1.525357        41.5071 
 411   0.0000       1.549601        42.1668 
 412   0.0000       1.554730        42.3064 
 413   0.0000       1.557616        42.3849 
 414   0.0000       1.568156        42.6717 
 415   0.0000       1.573102        42.8063 
 416   0.0000       1.576160        42.8895 
 417   0.0000       1.576702        42.9042 
 418   0.0000       1.580634        43.0112 
 419   0.0000       1.591125        43.2967 
 420   0.0000       1.591452        43.3056 
 421   0.0000       1.593072        43.3497 
 422   0.0000       1.594111        43.3780 
 423   0.0000       1.606684        43.7201 
 424   0.0000       1.608492        43.7693 
 425   0.0000       1.609418        43.7945 
 426   0.0000       1.610589        43.8264 
 427   0.0000       1.624989        44.2182 
 428   0.0000       1.646201        44.7954 
 429   0.0000       1.646998        44.8171 
 430   0.0000       1.648946        44.8701 
 431   0.0000       1.651045        44.9272 
 432   0.0000       1.654187        45.0127 
 433   0.0000       1.664939        45.3053 
 434   0.0000       1.666979        45.3608 
 435   0.0000       1.673063        45.5264 
 436   0.0000       1.689527        45.9744 
 437   0.0000       1.693948        46.0947 
 438   0.0000       1.694855        46.1194 
 439   0.0000       1.697953        46.2037 
 440   0.0000       1.699015        46.2326 
 441   0.0000       1.700586        46.2753 
 442   0.0000       1.705728        46.4152 
 443   0.0000       1.707834        46.4725 
 444   0.0000       1.710381        46.5418 
 445   0.0000       1.716827        46.7172 
 446   0.0000       1.719147        46.7804 
 447   0.0000       1.725954        46.9656 
 448   0.0000       1.728013        47.0216 
 449   0.0000       1.731688        47.1216 
 450   0.0000       1.735642        47.2292 
 451   0.0000       1.749654        47.6105 
 452   0.0000       1.755278        47.7635 
 453   0.0000       1.756293        47.7912 
 454   0.0000       1.766149        48.0594 
 455   0.0000       1.768039        48.1108 
 456   0.0000       1.775532        48.3147 
 457   0.0000       1.776275        48.3349 
 458   0.0000       1.783249        48.5247 
 459   0.0000       1.788251        48.6608 
 460   0.0000       1.800226        48.9866 
 461   0.0000       1.807723        49.1907 
 462   0.0000       1.811460        49.2923 
 463   0.0000       1.820678        49.5432 
 464   0.0000       1.826510        49.7019 
 465   0.0000       1.829281        49.7773 
 466   0.0000       1.834094        49.9082 
 467   0.0000       1.835985        49.9597 
 468   0.0000       1.845327        50.2139 
 469   0.0000       1.859763        50.6067 
 470   0.0000       1.860696        50.6321 
 471   0.0000       1.867600        50.8200 
 472   0.0000       1.870572        50.9009 
 473   0.0000       1.880051        51.1588 
 474   0.0000       1.890744        51.4498 
 475   0.0000       1.893586        51.5271 
 476   0.0000       1.898680        51.6657 
 477   0.0000       1.902425        51.7676 
 478   0.0000       1.909928        51.9718 
 479   0.0000       1.911961        52.0271 
 480   0.0000       1.912010        52.0284 
 481   0.0000       1.915308        52.1182 
 482   0.0000       1.924260        52.3618 
 483   0.0000       1.935109        52.6570 
 484   0.0000       1.939490        52.7762 
 485   0.0000       1.944175        52.9037 
 486   0.0000       1.948952        53.0337 
 487   0.0000       1.956601        53.2418 
 488   0.0000       1.963713        53.4353 
 489   0.0000       1.966858        53.5209 
 490   0.0000       1.976329        53.7786 
 491   0.0000       1.983856        53.9835 
 492   0.0000       2.004341        54.5409 
 493   0.0000       2.006455        54.5984 
 494   0.0000       2.009737        54.6877 
 495   0.0000       2.032261        55.3006 
 496   0.0000       2.042183        55.5706 
 497   0.0000       2.046886        55.6986 
 498   0.0000       2.050750        55.8038 
 499   0.0000       2.061084        56.0849 
 500   0.0000       2.063210        56.1428 
 501   0.0000       2.071245        56.3614 
 502   0.0000       2.075616        56.4804 
 503   0.0000       2.080043        56.6009 
 504   0.0000       2.094182        56.9856 
 505   0.0000       2.096024        57.0357 
 506   0.0000       2.103236        57.2320 
 507   0.0000       2.119220        57.6669 
 508   0.0000       2.122919        57.7676 
 509   0.0000       2.124542        57.8117 
 510   0.0000       2.160855        58.7999 
 511   0.0000       2.167018        58.9676 
 512   0.0000       2.168688        59.0130 
 513   0.0000       2.185945        59.4826 
 514   0.0000       2.199138        59.8416 
 515   0.0000       2.201076        59.8943 
 516   0.0000       2.203935        59.9721 
 517   0.0000       2.205232        60.0074 
 518   0.0000       2.210455        60.1496 
 519   0.0000       2.218494        60.3683 
 520   0.0000       2.225173        60.5500 
 521   0.0000       2.229832        60.6768 
 522   0.0000       2.239994        60.9533 
 523   0.0000       2.246589        61.1328 
 524   0.0000       2.258573        61.4589 
 525   0.0000       2.261862        61.5484 
 526   0.0000       2.276998        61.9603 
 527   0.0000       2.277793        61.9819 
 528   0.0000       2.286120        62.2085 
 529   0.0000       2.301332        62.6224 
 530   0.0000       2.305839        62.7451 
 531   0.0000       2.308066        62.8057 
 532   0.0000       2.311892        62.9098 
 533   0.0000       2.324952        63.2652 
 534   0.0000       2.335587        63.5545 
 535   0.0000       2.344780        63.8047 
 536   0.0000       2.345033        63.8116 
 537   0.0000       2.345452        63.8230 
 538   0.0000       2.356101        64.1128 
 539   0.0000       2.363547        64.3154 
 540   0.0000       2.365938        64.3804 
 541   0.0000       2.386215        64.9322 
 542   0.0000       2.389056        65.0095 
 543   0.0000       2.394883        65.1681 
 544   0.0000       2.399052        65.2815 
 545   0.0000       2.411624        65.6236 
 546   0.0000       2.413295        65.6691 
 547   0.0000       2.419235        65.8307 
 548   0.0000       2.420354        65.8612 
 549   0.0000       2.424404        65.9714 
 550   0.0000       2.429735        66.1164 
 551   0.0000       2.447120        66.5895 
 552   0.0000       2.447480        66.5993 
 553   0.0000       2.454039        66.7778 
 554   0.0000       2.459731        66.9327 
 555   0.0000       2.464364        67.0588 
 556   0.0000       2.466780        67.1245 
 557   0.0000       2.468372        67.1678 
 558   0.0000       2.484357        67.6028 
 559   0.0000       2.486289        67.6554 
 560   0.0000       2.490445        67.7684 
 561   0.0000       2.498750        67.9944 
 562   0.0000       2.501957        68.0817 
 563   0.0000       2.508817        68.2684 
 564   0.0000       2.523450        68.6666 
 565   0.0000       2.536993        69.0351 
 566   0.0000       2.538437        69.0744 
 567   0.0000       2.544254        69.2327 
 568   0.0000       2.545554        69.2680 
 569   0.0000       2.548441        69.3466 
 570   0.0000       2.552244        69.4501 
 571   0.0000       2.554067        69.4997 
 572   0.0000       2.563709        69.7621 
 573   0.0000       2.569679        69.9245 
 574   0.0000       2.583733        70.3069 
 575   0.0000       2.602180        70.8089 
 576   0.0000       2.605646        70.9032 
 577   0.0000       2.619484        71.2798 
 578   0.0000       2.624619        71.4195 
 579   0.0000       2.632803        71.6422 
 580   0.0000       2.649763        72.1037 
 581   0.0000       2.650818        72.1324 
 582   0.0000       2.663847        72.4870 
[...]
   104a -> 108a  :     0.014956 
   106a -> 108a  :     0.024550 
   107a -> 110a  :     0.420011 
   107a -> 111a  :     0.045263 

STATE  4:  E=   0.129055 au      3.512 eV    28324.3 cm**-1 <S**2> =   0.000000
   104a -> 111a  :     0.021888 
   105a -> 108a  :     0.804883 
   106a -> 109a  :     0.060511 
   107a -> 112a  :     0.077222 

STATE  5:  E=   0.145890 au      3.970 eV    32019.1 cm**-1 <S**2> =   0.000000
   103a -> 108a  :     0.013279 
   104a -> 108a  :     0.442078 
   105a -> 111a  :     0.018576 
   106a -> 112a  :     0.012905 
   107a -> 109a  :     0.486969 

STATE  6:  E=   0.138986 au      3.782 eV    30503.9 cm**-1 <S**2> =   0.000000
   103a -> 108a  :     0.424440 
   104a -> 108a  :     0.014108 
   106a -> 108a  :     0.029013 
   107a -> 110a  :     0.487458 
   107a -> 111a  :     0.015006 

STATE  7:  E=   0.156699 au      4.264 eV    34391.5 cm**-1 <S**2> =   0.000000
   104a -> 112a  :     0.026158 
   106a -> 108a  :     0.115105 
   107a -> 110a  :     0.052487 
   107a -> 111a  :     0.773576 

STATE  8:  E=   0.138158 au      3.759 eV    30322.2 cm**-1 <S**2> =   0.000000
   103a -> 108a  :     0.017471 
   104a -> 108a  :     0.463867 
   104a -> 114a  :     0.013783 
   105a -> 110a  :     0.010776 
   107a -> 109a  :     0.455550 

STATE  9:  E=   0.147193 au      4.005 eV    32305.1 cm**-1 <S**2> =   0.000000
    97a -> 110a  :     0.051047 
    97a -> 123a  :     0.017171 
    98a -> 113a  :     0.045322 
    99a -> 108a  :     0.494368 
    99a -> 114a  :     0.082141 
   100a -> 108a  :     0.016219 
   100a -> 109a  :     0.192234 
   100a -> 115a  :     0.042630 

STATE 10:  E=   0.147100 au      4.003 eV    32284.8 cm**-1 <S**2> =   0.000000
    97a -> 113a  :     0.049020 
    98a -> 110a  :     0.047217 
    98a -> 123a  :     0.015741 
    99a -> 108a  :     0.016217 
    99a -> 109a  :     0.192180 
    99a -> 115a  :     0.042596 
   100a -> 108a  :     0.494463 
   100a -> 114a  :     0.082489 

STATE 11:  E=   0.162723 au      4.428 eV    35713.5 cm**-1 <S**2> =   0.000000
    92a -> 114a  :     0.010221 
    97a -> 109a  :     0.168721 
    97a -> 115a  :     0.029862 
    98a -> 108a  :     0.485889 
    98a -> 114a  :     0.055659 
    99a -> 113a  :     0.078964 
   100a -> 110a  :     0.088489 
   100a -> 123a  :     0.026869 

STATE 12:  E=   0.163739 au      4.456 eV    35936.7 cm**-1 <S**2> =   0.000000
    97a -> 108a  :     0.461667 
    97a -> 114a  :     0.067084 
    98a -> 109a  :     0.170549 
    98a -> 115a  :     0.028832 
    99a -> 110a  :     0.096177 
    99a -> 123a  :     0.028408 
   100a -> 113a  :     0.084271 

STATE 13:  E=   0.164552 au      4.478 eV    36115.0 cm**-1 <S**2> =   0.000000
    96a -> 108a  :     0.039222 
   101a -> 109a  :     0.049557 
   102a -> 108a  :     0.402030 
   102a -> 114a  :     0.016879 
   103a -> 109a  :     0.054056 
   104a -> 110a  :     0.032616 
   104a -> 111a  :     0.037240 
   105a -> 108a  :     0.029013 
   107a -> 112a  :     0.266412 
   107a -> 113a  :     0.037861 

STATE 14:  E=   0.162477 au      4.421 eV    35659.6 cm**-1 <S**2> =   0.000000
   101a -> 108a  :     0.809071 
   101a -> 114a  :     0.016634 
   102a -> 109a  :     0.115479 

STATE 15:  E=   0.178330 au      4.853 eV    39138.9 cm**-1 <S**2> =   0.000000
   101a -> 109a  :     0.031193 
   102a -> 108a  :     0.368402 
   103a -> 109a  :     0.012787 
   104a -> 110a  :     0.030435 
   104a -> 111a  :     0.023468 
   105a -> 108a  :     0.073373 
   106a -> 109a  :     0.028792 
   107a -> 112a  :     0.369358 
   107a -> 113a  :     0.031092 

STATE 16:  E=   0.187246 au      5.095 eV    41095.7 cm**-1 <S**2> =   0.000000
    95a -> 108a  :     0.089936 
    96a -> 112a  :     0.012437 
   103a -> 111a  :     0.107428 
   105a -> 113a  :     0.055695 
   106a -> 110a  :     0.646460 
   107a -> 114a  :     0.017507 

STATE 17:  E=   0.200879 au      5.466 eV    44088.0 cm**-1 <S**2> =   0.000000
    96a -> 108a  :     0.101787 
   101a -> 109a  :     0.018741 
   102a -> 108a  :     0.018748 
   103a -> 109a  :     0.090441 
   104a -> 110a  :     0.202811 
   104a -> 111a  :     0.017857 
   105a -> 108a  :     0.039748 
   107a -> 112a  :     0.099121 
   107a -> 113a  :     0.356729 

STATE 18:  E=   0.210728 au      5.734 eV    46249.5 cm**-1 <S**2> =   0.000000
    95a -> 108a  :     0.025092 
   103a -> 110a  :     0.249685 
   105a -> 112a  :     0.112545 
   106a -> 110a  :     0.023541 
   106a -> 111a  :     0.372665 
   107a -> 108a  :     0.016460 
   107a -> 114a  :     0.134472 

STATE 19:  E=   0.204628 au      5.568 eV    44910.6 cm**-1 <S**2> =   0.000000
    95a -> 108a  :     0.076237 
   103a -> 110a  :     0.017272 
   103a -> 111a  :     0.070660 
   104a -> 109a  :     0.314260 
   105a -> 112a  :     0.020492 
   106a -> 111a  :     0.042488 
   107a -> 114a  :     0.387803 

STATE 20:  E=   0.195722 au      5.326 eV    42956.1 cm**-1 <S**2> =   0.000000
    93a -> 108a  :     0.031596 
    96a -> 111a  :     0.011358 
   103a -> 112a  :     0.042336 
   105a -> 110a  :     0.772192 
   106a -> 113a  :     0.080659 
   107a -> 109a  :     0.013093 

STATE 21:  E=   0.202296 au      5.505 eV    44398.8 cm**-1 <S**2> =   0.000000
    87a -> 110a  :     0.011538 
    91a -> 109a  :     0.045960 
    94a -> 108a  :     0.867952 
    94a -> 114a  :     0.010439 

STATE 22:  E=   0.196606 au      5.350 eV    43150.0 cm**-1 <S**2> =   0.000000
    96a -> 108a  :     0.183588 
   101a -> 109a  :     0.011071 
   103a -> 109a  :     0.140335 
   104a -> 110a  :     0.039475 
   105a -> 114a  :     0.012053 
   106a -> 109a  :     0.424129 
   107a -> 113a  :     0.124484 

STATE 23:  E=   0.225081 au      6.125 eV    49399.5 cm**-1 <S**2> =   0.000000
   103a -> 113a  :     0.011119 
   104a -> 108a  :     0.031350 
   105a -> 111a  :     0.602853 
   106a -> 112a  :     0.239242 
   107a -> 115a  :     0.035988 

STATE 24:  E=   0.197399 au      5.371 eV    43324.0 cm**-1 <S**2> =   0.000000
    96a -> 108a  :     0.152584 
   101a -> 109a  :     0.020523 
   102a -> 108a  :     0.039301 
   103a -> 109a  :     0.147490 
   104a -> 110a  :     0.108719 
   105a -> 108a  :     0.022265 
   105a -> 114a  :     0.017705 
   106a -> 109a  :     0.392965 
   107a -> 112a  :     0.043030 
   107a -> 113a  :     0.019776 

STATE 25:  E=   0.210902 au      5.739 eV    46287.6 cm**-1 <S**2> =   0.000000
    95a -> 108a  :     0.025555 
    96a -> 113a  :     0.013254 
   103a -> 110a  :     0.594966 
   104a -> 110a  :     0.015381 
   105a -> 112a  :     0.057533 
   106a -> 111a  :     0.228348 
   107a -> 114a  :     0.023092 

STATE 26:  E=   0.203739 au      5.544 eV    44715.5 cm**-1 <S**2> =   0.000000
   101a -> 108a  :     0.010834 
   105a -> 109a  :     0.874508 
   106a -> 108a  :     0.043584 
   106a -> 114a  :     0.028811 

STATE 27:  E=   0.209722 au      5.707 eV    46028.6 cm**-1 <S**2> =   0.000000
    82a -> 109a  :     0.015352 
    83a -> 110a  :     0.014491 
    92a -> 108a  :     0.538956 
    97a -> 109a  :     0.011806 
    97a -> 115a  :     0.019350 
    98a -> 108a  :     0.191535 
    98a -> 114a  :     0.038244 
    99a -> 113a  :     0.038393 
   100a -> 110a  :     0.055956 
   100a -> 123a  :     0.013031 

STATE 28:  E=   0.200320 au      5.451 eV    43965.2 cm**-1 <S**2> =   0.000000
    96a -> 108a  :     0.276413 
   103a -> 109a  :     0.207928 
   104a -> 110a  :     0.237245 
   106a -> 109a  :     0.025710 
   107a -> 113a  :     0.180217 

STATE 29:  E=   0.206484 au      5.619 eV    45318.0 cm**-1 <S**2> =   0.000000
    95a -> 108a  :     0.326610 
   103a -> 111a  :     0.182348 
   104a -> 109a  :     0.092820 
   106a -> 110a  :     0.219247 
   106a -> 111a  :     0.043926 
   107a -> 114a  :     0.073343 

STATE 30:  E=   0.217314 au      5.913 eV    47694.9 cm**-1 <S**2> =   0.000000
    95a -> 108a  :     0.046869 
    96a -> 112a  :     0.012813 
   103a -> 111a  :     0.453812 
   104a -> 109a  :     0.045726 
   104a -> 111a  :     0.029825 
   104a -> 115a  :     0.017067 
   105a -> 112a  :     0.022646 
   106a -> 110a  :     0.021794 
   106a -> 111a  :     0.041533 
   107a -> 114a  :     0.271718 


-------------------------
TD-DFT-EXCITATION SPECTRA
-------------------------

Center of mass = ( -0.0000, -0.0000,  0.0001)
Calculating the Dipole integrals                  ... done
Transforming integrals                            ... done
Calculating the Linear Momentum integrals         ... done
Transforming integrals                            ... done
Calculating angular momentum integrals            ... done
Transforming integrals                            ... done

-----------------------------------------------------------------------------
         ABSORPTION SPECTRUM VIA TRANSITION ELECTRIC DIPOLE MOMENTS
-----------------------------------------------------------------------------
State   Energy    Wavelength  fosc         T2        TX        TY        TZ  
        (cm-1)      (nm)                 (au**2)    (au)      (au)      (au) 
-----------------------------------------------------------------------------
   1   19305.3    518.0   0.976371878  16.64997  -4.08043   0.00454   0.00011
   2   26848.8    372.5   0.000091638   0.00112   0.00000  -0.00005  -0.03352
   3   30106.3    332.2   0.000143355   0.00157   0.00000   0.00009  -0.03959
   4   28324.3    353.1   0.191173616   2.22200  -0.00063   1.49064   0.00008
   5   32019.1    312.3   0.000000453   0.00000   0.00000   0.00007  -0.00216
   6   30503.9    327.8   0.000002251   0.00002  -0.00003   0.00004   0.00493
   7   34391.5    290.8   0.000503373   0.00482   0.00006   0.00004  -0.06942
   8   30322.2    329.8   0.000000571   0.00001   0.00001   0.00000   0.00249
   9   32305.1    309.5   0.000011199   0.00011   0.00376  -0.00162  -0.00987
  10   32284.8    309.7   0.000310194   0.00316  -0.00067   0.00034  -0.05624
  11   35713.5    280.0   0.000015859   0.00015   0.01206   0.00088   0.00003
  12   35936.7    278.3   0.000000400   0.00000   0.00003   0.00009   0.00191
  13   36115.0    276.9   0.018967918   0.17290  -0.00326  -0.41581  -0.00011
  14   35659.6    280.4   0.000601919   0.00556   0.00002   0.00071  -0.07454
  15   39138.9    255.5   1.120506028   9.42500  -0.01644   3.06997   0.00003
  16   41095.7    243.3   0.006097213   0.04884   0.20079   0.09234   0.00010
  17   44088.0    226.8   0.105699708   0.78928   0.01131  -0.88834  -0.00018
  18   46249.5    216.2   0.094681600   0.67396  -0.82084  -0.01357  -0.00011
  19   44910.6    222.7   0.060543354   0.44381  -0.66538  -0.03282  -0.00022
  20   42956.1    232.8   0.000000017   0.00000   0.00013   0.00001   0.00034
  21   44398.8    225.2   0.001162224   0.00862   0.00268  -0.09279   0.00001
  22   43150.0    231.7   0.152343896   1.16230  -0.04651  -1.07710  -0.00007
  23   49399.5    202.4   0.000000062   0.00000   0.00048  -0.00026  -0.00034
  24   43324.0    230.8   0.245812776   1.86789  -0.11982   1.36145  -0.00001
  25   46287.6    216.0   2.476656212  17.61475  -4.19679  -0.04093   0.00009
  26   44715.5    223.6   0.000297633   0.00219   0.00028  -0.00014   0.04681
  27   46028.6    217.3   0.006272693   0.04486   0.21176   0.00456  -0.00001
  28   43965.2    227.5   0.025495645   0.19091  -0.00821   0.43686  -0.00004
  29   45318.0    220.7   0.032959269   0.23943   0.48929   0.00566   0.00002
  30   47694.9    209.7   0.034524393   0.23830  -0.48532   0.05264  -0.00006

-----------------------------------------------------------------------------
         ABSORPTION SPECTRUM VIA TRANSITION VELOCITY DIPOLE MOMENTS
-----------------------------------------------------------------------------
State   Energy    Wavelength   fosc        P2         PX        PY        PZ  
        (cm-1)      (nm)                 (au**2)     (au)      (au)      (au) 
-----------------------------------------------------------------------------
   1   19305.3    518.0   1.190815090   0.15712   0.39638  -0.00048  -0.00001
   2   26848.8    372.5   0.000127094   0.00002   0.00000   0.00001   0.00483
   3   30106.3    332.2   0.000177495   0.00004   0.00000  -0.00001   0.00604
   4   28324.3    353.1   0.269463674   0.05216   0.00020  -0.22839  -0.00001
   5   32019.1    312.3   0.000000568   0.00000  -0.00000  -0.00001   0.00035
   6   30503.9    327.8   0.000004578   0.00000   0.00001  -0.00001  -0.00098
   7   34391.5    290.8   0.000680127   0.00016  -0.00001  -0.00001   0.01264
   8   30322.2    329.8   0.000001011   0.00000  -0.00000  -0.00000  -0.00046
   9   32305.1    309.5   0.000019496   0.00000  -0.00075   0.00035   0.00190
  10   32284.8    309.7   0.000528588   0.00012   0.00013  -0.00007   0.01080
  11   35713.5    280.0   0.000024908   0.00001  -0.00239  -0.00059  -0.00000
  12   35936.7    278.3   0.000002330   0.00000  -0.00001  -0.00003  -0.00076
  13   36115.0    276.9   0.031517719   0.00778   0.00019   0.08820   0.00002
  14   35659.6    280.4   0.000990229   0.00024  -0.00001  -0.00015   0.01553
  15   39138.9    255.5   1.587467931   0.42464   0.00289  -0.65164  -0.00001
  16   41095.7    243.3   0.008426599   0.00237  -0.04436  -0.01996  -0.00002
  17   44088.0    226.8   0.129574596   0.03904  -0.00288   0.19757   0.00004
  18   46249.5    216.2   0.110650320   0.03498   0.18700   0.00270   0.00002
  19   44910.6    222.7   0.073508678   0.02256   0.15004   0.00717   0.00005
  20   42956.1    232.8   0.000000032   0.00000  -0.00003  -0.00000  -0.00009
  21   44398.8    225.2   0.001523185   0.00046  -0.00065   0.02149   0.00000
  22   43150.0    231.7   0.221185756   0.06523   0.01115   0.25516   0.00001
  23   49399.5    202.4   0.000000080   0.00000  -0.00011   0.00006   0.00010
  24   43324.0    230.8   0.359015671   0.10630   0.02865  -0.32478   0.00000
  25   46287.6    216.0   3.207630791   1.01474   1.00729   0.01030  -0.00003
  26   44715.5    223.6   0.000416707   0.00013  -0.00007   0.00003  -0.01128
  27   46028.6    217.3   0.008744928   0.00275  -0.05244  -0.00117   0.00000
  28   43965.2    227.5   0.038897713   0.01169   0.00216  -0.10809   0.00001
  29   45318.0    220.7   0.051378130   0.01591  -0.12614  -0.00147  -0.00001
  30   47694.9    209.7   0.052208824   0.01702   0.12973  -0.01378   0.00003

-------------------------------------------------------------------
                             CD SPECTRUM
-------------------------------------------------------------------
State  Energy     Wavelength     R         MX        MY        MZ   
       (cm-1)       (nm)     (1e40*cgs)   (au)      (au)      (au)  
-------------------------------------------------------------------
   1   19305.3    518.0     12.35950  -0.00643  -0.00082  -0.00001
   2   26848.8    372.5      9.70712  -0.00000   0.00003  -0.61425
   3   30106.3    332.2    -25.85545   0.00003  -0.00005   1.38517
   4   28324.3    353.1     -0.52760  -0.00029  -0.00075  -0.00010
   5   32019.1    312.3     -0.00791  -0.00004  -0.00012   0.00777
   6   30503.9    327.8      0.63129   0.00004  -0.00003   0.27169
   7   34391.5    290.8     45.03514  -0.00004   0.00004  -1.37613
   8   30322.2    329.8      0.05963   0.00001  -0.00009   0.05082
   9   32305.1    309.5     -0.29812   0.03050   0.48809  -0.00463
  10   32284.8    309.7      0.63924  -0.00531  -0.08554  -0.02456
  11   35713.5    280.0      1.90578   0.33609  -0.01195   0.00028
  12   35936.7    278.3      0.02916  -0.00052   0.00005   0.03234
  13   36115.0    276.9      6.88409   0.02898  -0.03534  -0.00004
  14   35659.6    280.4     64.64091   0.00002  -0.00013  -1.83939
  15   39138.9    255.5    -95.72879   0.00326  -0.06612   0.00044
  16   41095.7    243.3     -1.14818  -0.01075  -0.00301   0.00000
  17   44088.0    226.8    -13.68972  -0.00108   0.03267   0.00004
  18   46249.5    216.2      5.30296  -0.01368  -0.00117  -0.00001
  19   44910.6    222.7     -1.25276   0.00392   0.00154  -0.00002
  20   42956.1    232.8     -0.00039  -0.00000   0.00004  -0.00244
  21   44398.8    225.2     -1.86930   0.00224   0.04279   0.00007
  22   43150.0    231.7     -4.89879   0.00026   0.00964   0.00001
  23   49399.5    202.4     -0.00146  -0.00007  -0.00010   0.00908
  24   43324.0    230.8    -12.47567  -0.00106  -0.01953   0.00004
  25   46287.6    216.0     32.23095  -0.01631   0.00210  -0.00001
  26   44715.5    223.6      0.90008  -0.00002   0.00002   0.04079
  27   46028.6    217.3    -13.78932  -0.13804  -0.00394  -0.00003
  28   43965.2    227.5     -0.98126   0.00098  -0.00475   0.00002
  29   45318.0    220.7      2.09910   0.00911  -0.00129  -0.00000
  30   47694.9    209.7      2.52991  -0.01095   0.00099   0.00004

Total run time:    26810.219 sec

           *** ORCA-CIS/TD-DFT FINISHED WITHOUT ERROR ***

Maximum memory used throughout the entire CIS-calculation: 5438.9 MB

-----------------------
CIS/TD-DFT TOTAL ENERGY
-----------------------

    E(SCF)  =  -1406.482471635 Eh
    DE(CIS) =      0.087961603 Eh (Root  1)
    ----------------------------- ---------
    E(tot)  =  -1406.394510032 Eh


-------------------------   --------------------
FINAL SINGLE POINT ENERGY     -1406.394510032400
-------------------------   --------------------


                            ***************************************
                            *     ORCA property calculations      *
                            ***************************************


  WARNING: The energy has been calculated at the MP2 level but the densities
           used in the property calculations are still SCF densities
           MP2 response densities have not been calculated 
           use %mp2 Density relaxed end
           or  %mp2 Density unrelaxed end

                                    ---------------------
                                    Active property flags
                                    ---------------------
   (+) Dipole Moment


------------------------------------------------------------------------------
                       ORCA ELECTRIC PROPERTIES CALCULATION
------------------------------------------------------------------------------

Dipole Moment Calculation                       ... on
Quadrupole Moment Calculation                   ... off
Polarizability Calculation                      ... off
GBWName                                         ... PDI_1_M06L_def2TZVP_coords.gbw
Electron density                                ... PDI_1_M06L_def2TZVP_coords.scfp
The origin for moment calculation is the CENTER OF MASS  = (-0.000000, -0.000000  0.000137)

-------------
DIPOLE MOMENT
-------------
                                X             Y             Z
Electronic contribution:      0.00011      -0.00012       0.01878
Nuclear contribution   :      0.00001       0.00005      -0.02957
                        -----------------------------------------
Total Dipole Moment    :      0.00012      -0.00007      -0.01080
                        -----------------------------------------
Magnitude (a.u.)       :      0.01080
Magnitude (Debye)      :      0.02744



--------------------
Rotational spectrum 
--------------------
 
Rotational constants in cm-1:     0.013982     0.002362     0.002023 
Rotational constants in MHz :   419.179379    70.800426    60.635339 

 Dipole components along the rotational axes: 
x,y,z [a.u.] :     0.000124     0.000065    -0.010796 
x,y,z [Debye]:     0.000314     0.000166    -0.027442 

 

Timings for individual modules:

Sum of individual times         ...    28267.275 sec (= 471.121 min)
GTO integral calculation        ...        3.244 sec (=   0.054 min)   0.0 %
SCF iterations                  ...      508.061 sec (=   8.468 min)   1.8 %
MP2 module                      ...      944.094 sec (=  15.735 min)   3.3 %
CIS module                      ...    26811.876 sec (= 446.865 min)  94.9 %
                             ****ORCA TERMINATED NORMALLY****
TOTAL RUN TIME: 0 days 7 hours 51 minutes 16 seconds 155 msec
