
                                 *****************
                                 * O   R   C   A *
                                 *****************

                                            #,                                       
                                            ###                                      
                                            ####                                     
                                            #####                                    
                                            ######                                   
                                           ########,                                 
                                     ,,################,,,,,                         
                               ,,#################################,,                 
                          ,,##########################################,,             
                       ,#########################################, ''#####,          
                    ,#############################################,,   '####,        
                  ,##################################################,,,,####,       
                ,###########''''           ''''###############################       
              ,#####''   ,,,,##########,,,,          '''####'''          '####       
            ,##' ,,,,###########################,,,                        '##       
           ' ,,###''''                  '''############,,,                           
         ,,##''                                '''############,,,,        ,,,,,,###''
      ,#''                                            '''#######################'''  
     '                                                          ''''####''''         
             ,#######,   #######,   ,#######,      ##                                
            ,#'     '#,  ##    ##  ,#'     '#,    #''#        ######   ,####,        
            ##       ##  ##   ,#'  ##            #'  '#       #        #'  '#        
            ##       ##  #######   ##           ,######,      #####,   #    #        
            '#,     ,#'  ##    ##  '#,     ,#' ,#      #,         ##   #,  ,#        
             '#######'   ##     ##  '#######'  #'      '#     #####' # '####'        



                  #######################################################
                  #                        -***-                        #
                  #          Department of theory and spectroscopy      #
                  #    Directorship and core code : Frank Neese         #
                  #        Max Planck Institute fuer Kohlenforschung    #
                  #                Kaiser Wilhelm Platz 1               #
                  #                 D-45470 Muelheim/Ruhr               #
                  #                      Germany                        #
                  #                                                     #
                  #                  All rights reserved                #
                  #                        -***-                        #
                  #######################################################


                         Program Version 5.0.2 -  RELEASE  -


 With contributions from (in alphabetic order):
   Daniel Aravena         : Magnetic Suceptibility
   Michael Atanasov       : Ab Initio Ligand Field Theory (pilot matlab implementation)
   Alexander A. Auer      : GIAO ZORA, VPT2 properties, NMR spectrum
   Ute Becker             : Parallelization
   Giovanni Bistoni       : ED, misc. LED, open-shell LED, HFLD
   Martin Brehm           : Molecular dynamics
   Dmytro Bykov           : SCF Hessian
   Vijay G. Chilkuri      : MRCI spin determinant printing, contributions to CSF-ICE
   Dipayan Datta          : RHF DLPNO-CCSD density
   Achintya Kumar Dutta   : EOM-CC, STEOM-CC
   Dmitry Ganyushin       : Spin-Orbit,Spin-Spin,Magnetic field MRCI
   Miquel Garcia          : C-PCM and meta-GGA Hessian, CC/C-PCM, Gaussian charge scheme
   Yang Guo               : DLPNO-NEVPT2, F12-NEVPT2, CIM, IAO-localization
   Andreas Hansen         : Spin unrestricted coupled pair/coupled cluster methods
   Benjamin Helmich-Paris : MC-RPA, TRAH-SCF, COSX integrals
   Lee Huntington         : MR-EOM, pCC
   Robert Izsak           : Overlap fitted RIJCOSX, COSX-SCS-MP3, EOM
   Marcus Kettner         : VPT2
   Christian Kollmar      : KDIIS, OOCD, Brueckner-CCSD(T), CCSD density, CASPT2, CASPT2-K
   Simone Kossmann        : Meta GGA functionals, TD-DFT gradient, OOMP2, MP2 Hessian
   Martin Krupicka        : Initial AUTO-CI
   Lucas Lang             : DCDCAS
   Marvin Lechner         : AUTO-CI (C++ implementation), FIC-MRCC
   Dagmar Lenk            : GEPOL surface, SMD
   Dimitrios Liakos       : Extrapolation schemes; Compound Job, initial MDCI parallelization
   Dimitrios Manganas     : Further ROCIS development; embedding schemes
   Dimitrios Pantazis     : SARC Basis sets
   Anastasios Papadopoulos: AUTO-CI, single reference methods and gradients
   Taras Petrenko         : DFT Hessian,TD-DFT gradient, ASA, ECA, R-Raman, ABS, FL, XAS/XES, NRVS
   Peter Pinski           : DLPNO-MP2, DLPNO-MP2 Gradient
   Christoph Reimann      : Effective Core Potentials
   Marius Retegan         : Local ZFS, SOC
   Christoph Riplinger    : Optimizer, TS searches, QM/MM, DLPNO-CCSD(T), (RO)-DLPNO pert. Triples
   Tobias Risthaus        : Range-separated hybrids, TD-DFT gradient, RPA, STAB
   Michael Roemelt        : Original ROCIS implementation
   Masaaki Saitow         : Open-shell DLPNO-CCSD energy and density
   Barbara Sandhoefer     : DKH picture change effects
   Avijit Sen             : IP-ROCIS
   Kantharuban Sivalingam : CASSCF convergence, NEVPT2, FIC-MRCI
   Bernardo de Souza      : ESD, SOC TD-DFT
   Georgi Stoychev        : AutoAux, RI-MP2 NMR, DLPNO-MP2 response
   Willem Van den Heuvel  : Paramagnetic NMR
   Boris Wezisla          : Elementary symmetry handling
   Frank Wennmohs         : Technical directorship


 We gratefully acknowledge several colleagues who have allowed us to
 interface, adapt or use parts of their codes:
   Stefan Grimme, W. Hujo, H. Kruse, P. Pracht,  : VdW corrections, initial TS optimization,
                  C. Bannwarth, S. Ehlert          DFT functionals, gCP, sTDA/sTD-DF
   Ed Valeev, F. Pavosevic, A. Kumar             : LibInt (2-el integral package), F12 methods
   Garnet Chan, S. Sharma, J. Yang, R. Olivares  : DMRG
   Ulf Ekstrom                                   : XCFun DFT Library
   Mihaly Kallay                                 : mrcc  (arbitrary order and MRCC methods)
   Jiri Pittner, Ondrej Demel                    : Mk-CCSD
   Frank Weinhold                                : gennbo (NPA and NBO analysis)
   Christopher J. Cramer and Donald G. Truhlar   : smd solvation model
   Lars Goerigk                                  : TD-DFT with DH, B97 family of functionals
   V. Asgeirsson, H. Jonsson                     : NEB implementation
   FAccTs GmbH                                   : IRC, NEB, NEB-TS, DLPNO-Multilevel, CI-OPT
                                                   MM, QMMM, 2- and 3-layer-ONIOM, Crystal-QMMM,
                                                   LR-CPCM, SF, NACMEs, symmetry and pop. for TD-DFT,
                                                   nearIR, NL-DFT gradient (VV10), updates on ESD,
                                                   ML-optimized integration grids
   S Lehtola, MJT Oliveira, MAL Marques          : LibXC Library
   Liviu Ungur et al                             : ANISO software


 Your calculation uses the libint2 library for the computation of 2-el integrals
 For citations please refer to: http://libint.valeyev.net

 Your ORCA version has been built with support for libXC version: 5.1.0
 For citations please refer to: https://tddft.org/programs/libxc/

 This ORCA versions uses:
   CBLAS   interface :  Fast vector & matrix operations
   LAPACKE interface :  Fast linear algebra routines
   SCALAPACK package :  Parallel linear algebra routines
   Shared memory     :  Shared parallel matrices
   BLAS/LAPACK       :  OpenBLAS 0.3.15  USE64BITINT DYNAMIC_ARCH NO_AFFINITY Prescott SINGLE_THREADED
        Core in use  :  Prescott
   Copyright (c) 2011-2014, The OpenBLAS Project


Your calculation utilizes the SMD solvation module
Please cite in your paper:
A.V. Marenich, C.J. Cramer, D.G. Truhlar J. Phys. Chem. B, 113, (2009), 6378 

================================================================================

----- Orbital basis set information -----
Your calculation utilizes the basis: def2-TZVP
   F. Weigend and R. Ahlrichs, Phys. Chem. Chem. Phys. 7, 3297 (2005).

----- AuxJ basis set information -----
Your calculation utilizes the auxiliary basis: def2/J
   F. Weigend, Phys. Chem. Chem. Phys. 8, 1057 (2006).

----- AuxC basis set information -----
Your calculation utilizes the auxiliary basis: def2-TZVP/C
  H-La, Hf-Rn : A. Hellweg, C. Hattig, S. Hofener and W. Klopper, Theor. Chem. Acc. 117, 587 (2007).
        Ce-Lu : J. Chmela and M. E. Harding, Mol. Phys. (2018).

================================================================================
                                        WARNINGS
                       Please study these warnings very carefully!
================================================================================

INFO   : Checking CIS options ...
  ===> : (D) CORRECTION FOUND - SETTING MODE=3
  ===> : JK MODE FOUND - ACTIVATING RI-MP2 CODE
  ===> : MP2 AND CIS FOUND - CHECKING
WARNING: CIS(D) and MP2 runs must have the same orbital window
  ===> : adjusting orbital windows

WARNING: No MP2 level density has been requested!
         To caclulate MP2 level properties use
         %mp2 Density relaxed end
         or
         %mp2 Density unrelaxed end
         Otherwise for double-hybrid DFT only the energy is correct!

WARNING: The frozen-core approximation is turned on by default for 
         the MP2 part of double-hybrid DFT.

WARNING: CIS/ROCIS methods need fully converged wavefunctions
  ===> : Setting SCFConvForced true
         You can overwrite this default with %scf ConvForced false 


INFO   : the flag for use of the SHARK integral package has been found!

================================================================================
                                       INPUT FILE
================================================================================
NAME = PDI_1_M06L_def2TZVP_coords.inp
|  1> %maxcore 20000
|  2> %pal
|  3>  nprocs= 4
|  4> end
|  5> ! RI-B2GP-PLYP   def2-TZVP def2/J def2-TZVP/C RIJCOSX CPCM TightSCF
|  6> %TDDFT  
|  7>    NROOTS   30
|  8>    dcorr 4
|  9>    TDA      FALSE
| 10> END
| 11> 
| 12> %CPCM
| 13>    SMD          TRUE
| 14>    SMDsolvent   "DICHLOROMETHANE"
| 15> END
| 16>    
| 17> 
| 18> * xyz 0 1
| 19> C                   1.46464600   -2.41893700   -0.06271400
| 20> C                   0.72641700   -1.24107300   -0.01499900
| 21> C                   1.42205100   -0.00158200    0.00156800
| 22> C                   2.84382300   -0.00301800    0.00068500
| 23> C                   3.54933700   -1.22065000   -0.04191100
| 24> C                   2.85128800   -2.41046100   -0.07903600
| 25> H                   0.95923300   -3.37322000   -0.09116000
| 26> C                   0.72918700    1.23961000    0.01888700
| 27> C                   3.55035700    1.21370400    0.04281100
| 28> H                   3.40455200   -3.33956400   -0.11758900
| 29> C                   2.85603900    2.40537100    0.08161500
| 30> C                   1.46935800    2.41633000    0.06644900
| 31> H                   3.41148400    3.33328100    0.12004100
| 32> H                   0.96535600    3.37133800    0.09545200
| 33> C                  -0.72918900   -1.23962400    0.01882700
| 34> C                  -1.42205000    0.00157300    0.00165600
| 35> C                  -1.46936300   -2.41633800    0.06659300
| 36> C                  -0.72641800    1.24106800   -0.01473900
| 37> C                  -2.84382100    0.00301000    0.00079900
| 38> C                  -2.85604700   -2.40537900    0.08185800
| 39> H                  -0.96536200   -3.37134200    0.09572600
| 40> C                  -1.46464200    2.41895300   -0.06206700
| 41> C                  -3.54932500    1.22065700   -0.04173700
| 42> C                  -3.55037000   -1.21371600    0.04297400
| 43> H                  -3.41148900   -3.33328500    0.12042700
| 44> C                  -2.85128100    2.41047900   -0.07852000
| 45> H                  -0.95922500    3.37324200   -0.09015400
| 46> H                  -3.40455300    3.33958500   -0.11689700
| 47> C                   5.01757000   -1.24515300   -0.04927900
| 48> O                   5.65530900   -2.28354200   -0.09105200
| 49> C                   5.01650500    1.22652800    0.04761100
| 50> O                   5.67372900    2.25332000    0.09285300
| 51> N                   5.66106700   -0.00727100   -0.00462900
| 52> C                  -5.01755500    1.24515000   -0.04943100
| 53> O                  -5.65528800    2.28353000   -0.09150600
| 54> C                  -5.01651700   -1.22652700    0.04780100
| 55> O                  -5.67375700   -2.25329900    0.09321200
| 56> N                  -5.66106400    0.00727200   -0.00477200
| 57> C                   7.11459700    0.02798000   -0.00696600
| 58> H                   7.47294100    0.61119000   -0.85250200
| 59> H                   7.48161400    0.49099800    0.90692800
| 60> H                   7.47983500   -0.98932600   -0.07691200
| 61> C                  -7.11459300   -0.02797600   -0.00736100
| 62> H                  -7.48180000   -0.49059900    0.90665800
| 63> H                  -7.47981200    0.98930300   -0.07779800
| 64> H                  -7.47276200   -0.61154600   -0.85272200
| 65> *
| 66> 
| 67> 
| 68>                          ****END OF INPUT****
================================================================================

                       ****************************
                       * Single Point Calculation *
                       ****************************

---------------------------------
CARTESIAN COORDINATES (ANGSTROEM)
---------------------------------
  C      1.464646   -2.418937   -0.062714
  C      0.726417   -1.241073   -0.014999
  C      1.422051   -0.001582    0.001568
  C      2.843823   -0.003018    0.000685
  C      3.549337   -1.220650   -0.041911
  C      2.851288   -2.410461   -0.079036
  H      0.959233   -3.373220   -0.091160
  C      0.729187    1.239610    0.018887
  C      3.550357    1.213704    0.042811
  H      3.404552   -3.339564   -0.117589
  C      2.856039    2.405371    0.081615
  C      1.469358    2.416330    0.066449
  H      3.411484    3.333281    0.120041
  H      0.965356    3.371338    0.095452
  C     -0.729189   -1.239624    0.018827
  C     -1.422050    0.001573    0.001656
  C     -1.469363   -2.416338    0.066593
  C     -0.726418    1.241068   -0.014739
  C     -2.843821    0.003010    0.000799
  C     -2.856047   -2.405379    0.081858
  H     -0.965362   -3.371342    0.095726
  C     -1.464642    2.418953   -0.062067
  C     -3.549325    1.220657   -0.041737
  C     -3.550370   -1.213716    0.042974
  H     -3.411489   -3.333285    0.120427
  C     -2.851281    2.410479   -0.078520
  H     -0.959225    3.373242   -0.090154
  H     -3.404553    3.339585   -0.116897
  C      5.017570   -1.245153   -0.049279
  O      5.655309   -2.283542   -0.091052
  C      5.016505    1.226528    0.047611
  O      5.673729    2.253320    0.092853
  N      5.661067   -0.007271   -0.004629
  C     -5.017555    1.245150   -0.049431
  O     -5.655288    2.283530   -0.091506
  C     -5.016517   -1.226527    0.047801
  O     -5.673757   -2.253299    0.093212
  N     -5.661064    0.007272   -0.004772
  C      7.114597    0.027980   -0.006966
  H      7.472941    0.611190   -0.852502
  H      7.481614    0.490998    0.906928
  H      7.479835   -0.989326   -0.076912
  C     -7.114593   -0.027976   -0.007361
  H     -7.481800   -0.490599    0.906658
  H     -7.479812    0.989303   -0.077798
  H     -7.472762   -0.611546   -0.852722

----------------------------
CARTESIAN COORDINATES (A.U.)
----------------------------
  NO LB      ZA    FRAG     MASS         X           Y           Z
   0 C     6.0000    0    12.011    2.767780   -4.571128   -0.118512
   1 C     6.0000    0    12.011    1.372729   -2.345288   -0.028344
   2 C     6.0000    0    12.011    2.687287   -0.002990    0.002963
   3 C     6.0000    0    12.011    5.374047   -0.005703    0.001294
   4 C     6.0000    0    12.011    6.707275   -2.306694   -0.079200
   5 C     6.0000    0    12.011    5.388153   -4.555111   -0.149356
   6 H     1.0000    0     1.008    1.812688   -6.374462   -0.172267
   7 C     6.0000    0    12.011    1.377964    2.342523    0.035691
   8 C     6.0000    0    12.011    6.709202    2.293568    0.080901
   9 H     1.0000    0     1.008    6.433671   -6.310861   -0.222211
  10 C     6.0000    0    12.011    5.397132    4.545492    0.154230
  11 C     6.0000    0    12.011    2.776684    4.566202    0.125570
  12 H     1.0000    0     1.008    6.446770    6.298988    0.226845
  13 H     1.0000    0     1.008    1.824258    6.370906    0.180378
  14 C     6.0000    0    12.011   -1.377968   -2.342550    0.035578
  15 C     6.0000    0    12.011   -2.687285    0.002973    0.003129
  16 C     6.0000    0    12.011   -2.776694   -4.566217    0.125843
  17 C     6.0000    0    12.011   -1.372731    2.345279   -0.027853
  18 C     6.0000    0    12.011   -5.374043    0.005688    0.001510
  19 C     6.0000    0    12.011   -5.397147   -4.545508    0.154689
  20 H     1.0000    0     1.008   -1.824270   -6.370913    0.180896
  21 C     6.0000    0    12.011   -2.767772    4.571159   -0.117290
  22 C     6.0000    0    12.011   -6.707252    2.306707   -0.078871
  23 C     6.0000    0    12.011   -6.709227   -2.293591    0.081209
  24 H     1.0000    0     1.008   -6.446780   -6.298996    0.227574
  25 C     6.0000    0    12.011   -5.388140    4.555145   -0.148381
  26 H     1.0000    0     1.008   -1.812673    6.374504   -0.170366
  27 H     1.0000    0     1.008   -6.433673    6.310901   -0.220903
  28 C     6.0000    0    12.011    9.481833   -2.352998   -0.093124
  29 O     8.0000    0    15.999   10.686985   -4.315269   -0.172063
  30 C     6.0000    0    12.011    9.479821    2.317802    0.089972
  31 O     8.0000    0    15.999   10.721794    4.258158    0.175467
  32 N     7.0000    0    14.007   10.697866   -0.013740   -0.008748
  33 C     6.0000    0    12.011   -9.481805    2.352992   -0.093411
  34 O     8.0000    0    15.999  -10.686946    4.315246   -0.172921
  35 C     6.0000    0    12.011   -9.479843   -2.317800    0.090331
  36 O     8.0000    0    15.999  -10.721847   -4.258118    0.176145
  37 N     7.0000    0    14.007  -10.697861    0.013742   -0.009018
  38 C     6.0000    0    12.011   13.444640    0.052875   -0.013164
  39 H     1.0000    0     1.008   14.121812    1.154982   -1.610995
  40 H     1.0000    0     1.008   14.138201    0.927852    1.713846
  41 H     1.0000    0     1.008   14.134840   -1.869555   -0.145343
  42 C     6.0000    0    12.011  -13.444632   -0.052867   -0.013910
  43 H     1.0000    0     1.008  -14.138553   -0.927098    1.713335
  44 H     1.0000    0     1.008  -14.134796    1.869512   -0.147017
  45 H     1.0000    0     1.008  -14.121474   -1.155654   -1.611411

--------------------------------
INTERNAL COORDINATES (ANGSTROEM)
--------------------------------
 C      0   0   0     0.000000000000     0.00000000     0.00000000
 C      1   0   0     1.390907035054     0.00000000     0.00000000
 C      2   1   0     1.421449635592   118.62579488     0.00000000
 C      3   2   1     1.421772999381   119.24172352   358.53943996
 C      4   3   2     1.407903445140   120.13251304     1.19881923
 C      5   4   3     1.379964089296   119.53869589   359.82426579
 H      1   2   3     1.080234937212   120.04444656   180.91870558
 C      3   2   1     1.421589972925   121.53096311   178.53402971
 C      4   3   2     1.407614051619   120.06918245   181.21710818
 H      6   5   4     1.082044256079   118.85855421   179.63731210
 C      9   4   3     1.379729493208   119.65787294   359.84399603
 C     11   9   4     1.386807233540   120.64381319   359.37227943
 H     11   9   4     1.082133389930   118.90131197   179.62100608
 H     12  11   9     1.080231211397   118.24344035   180.16148576
 C      2   1   3     1.455999699558   122.15759682   180.02458768
 C     15   2   1     1.421591080927   119.19875441   183.02269869
 C     15   2   1     1.390969079034   122.13664701     2.97334446
 C     16  15   2     1.421450150541   121.53123000   358.43861731
 C     16  15   2     1.421771984482   119.22717179   178.43554495
 C     17  15   2     1.386811319453   121.72025157   180.81117142
 H     17  15   2     1.080230706704   120.03637411     0.98385906
 C     18  16  15     1.390908942737   118.62643872   178.54566976
 C     19  16  15     1.407909592950   120.13190033   181.20811744
 C     20  17  15     1.379730806844   120.64381694     0.32745057
 H     20  17  15     1.082133507457   120.45445687   180.07494830
 C     23  19  16     1.379961885962   119.53945250   359.80954520
 H     22  18  16     1.080232715196   120.04441122   180.90513786
 H     26  23  19     1.082044666060   118.85821204   179.64535103
 C      5   4   3     1.468455932850   121.03867471   179.74247058
 O     29   5   4     1.219306249870   122.50255242   180.29435835
 C      9   4   3     1.466211939960   120.63543224   179.76350559
 O     31   9   4     1.219955751658   123.10582529   180.53290306
 N     31   9   4     1.393000058092   117.05369273     0.62718373
 C     23  19  16     1.468454438376   121.03806815   179.72635473
 O     34  23  19     1.219305830919   122.50239778   180.31361265
 C     24  20  17     1.466210914998   119.70731435   179.44842681
 O     36  24  20     1.219953817366   123.10634022     0.45674232
 N     36  24  20     1.393005645336   117.05329294   180.55812504
 C     33  31   9     1.453959268848   116.17821548   179.64536615
 H     39  33  31     1.087876580193   110.09314440   301.85646618
 H     39  33  31     1.088250609855   110.25019098    61.24924064
 H     39  33  31     1.083144836666   108.32668257   181.52043743
 C     38  36  24     1.453958623299   116.17796624   179.63284751
 H     43  38  36     1.088251695767   110.25133202    61.26366247
 H     43  38  36     1.083144890017   108.32649533   181.53418537
 H     43  38  36     1.087876002944   110.09196279   301.87056481

---------------------------
INTERNAL COORDINATES (A.U.)
---------------------------
 C      0   0   0     0.000000000000     0.00000000     0.00000000
 C      1   0   0     2.628433373996     0.00000000     0.00000000
 C      2   1   0     2.686150524432   118.62579488     0.00000000
 C      3   2   1     2.686761593434   119.24172352   358.53943996
 C      4   3   2     2.660551934318   120.13251304     1.19881923
 C      5   4   3     2.607754203416   119.53869589   359.82426579
 H      1   2   3     2.041348191625   120.04444656   180.91870558
 C      3   2   1     2.686415723557   121.53096311   178.53402971
 C      4   3   2     2.660005059820   120.06918245   181.21710818
 H      6   5   4     2.044767308772   118.85855421   179.63731210
 C      9   4   3     2.607310881058   119.65787294   359.84399603
 C     11   9   4     2.620685871931   120.64381319   359.37227943
 H     11   9   4     2.044935747339   118.90131197   179.62100608
 H     12  11   9     2.041341150855   118.24344035   180.16148576
 C      2   1   3     2.751440683236   122.15759682   180.02458768
 C     15   2   1     2.686417817377   119.19875441   183.02269869
 C     15   2   1     2.628550620126   122.13664701     2.97334446
 C     16  15   2     2.686151497544   121.53123000   358.43861731
 C     16  15   2     2.686759675553   119.22717179   178.43554495
 C     17  15   2     2.620693593187   121.72025157   180.81117142
 H     17  15   2     2.041340197123   120.03637411     0.98385906
 C     18  16  15     2.628436978994   118.62643872   178.54566976
 C     19  16  15     2.660563551996   120.13190033   181.20811744
 C     20  17  15     2.607313363469   120.64381694     0.32745057
 H     20  17  15     2.044935969433   120.45445687   180.07494830
 C     23  19  16     2.607750039718   119.53945250   359.80954520
 H     22  18  16     2.041343992622   120.04441122   180.90513786
 H     26  23  19     2.044768083524   118.85821204   179.64535103
 C      5   4   3     2.774979552818   121.03867471   179.74247058
 O     29   5   4     2.304154885632   122.50255242   180.29435835
 C      9   4   3     2.770739020809   120.63543224   179.76350559
 O     31   9   4     2.305382266136   123.10582529   180.53290306
 N     31   9   4     2.632388614331   117.05369273     0.62718373
 C     23  19  16     2.774976728671   121.03806815   179.72635473
 O     34  23  19     2.304154093931   122.50239778   180.31361265
 C     24  20  17     2.770737083912   119.70731435   179.44842681
 O     36  24  20     2.305378610853   123.10634022     0.45674232
 N     36  24  20     2.632399172692   117.05329294   180.55812504
 C     33  31   9     2.747584828000   116.17821548   179.64536615
 H     39  33  31     2.055788804071   110.09314440   301.85646618
 H     39  33  31     2.056495617698   110.25019098    61.24924064
 H     39  33  31     2.046847104669   108.32668257   181.52043743
 C     38  36  24     2.747583608089   116.17796624   179.63284751
 H     43  38  36     2.056497669774   110.25133202    61.26366247
 H     43  38  36     2.046847205489   108.32649533   181.53418537
 H     43  38  36     2.055787713230   110.09196279   301.87056481

---------------------
BASIS SET INFORMATION
---------------------
There are 4 groups of distinct atoms

 Group   1 Type C   : 11s6p2d1f contracted to 5s3p2d1f pattern {62111/411/11/1}
 Group   2 Type H   : 5s1p contracted to 3s1p pattern {311/1}
 Group   3 Type O   : 11s6p2d1f contracted to 5s3p2d1f pattern {62111/411/11/1}
 Group   4 Type N   : 11s6p2d1f contracted to 5s3p2d1f pattern {62111/411/11/1}

Atom   0C    basis set group =>   1
Atom   1C    basis set group =>   1
Atom   2C    basis set group =>   1
Atom   3C    basis set group =>   1
Atom   4C    basis set group =>   1
Atom   5C    basis set group =>   1
Atom   6H    basis set group =>   2
Atom   7C    basis set group =>   1
Atom   8C    basis set group =>   1
Atom   9H    basis set group =>   2
Atom  10C    basis set group =>   1
Atom  11C    basis set group =>   1
Atom  12H    basis set group =>   2
Atom  13H    basis set group =>   2
Atom  14C    basis set group =>   1
Atom  15C    basis set group =>   1
Atom  16C    basis set group =>   1
Atom  17C    basis set group =>   1
Atom  18C    basis set group =>   1
Atom  19C    basis set group =>   1
Atom  20H    basis set group =>   2
Atom  21C    basis set group =>   1
Atom  22C    basis set group =>   1
Atom  23C    basis set group =>   1
Atom  24H    basis set group =>   2
Atom  25C    basis set group =>   1
Atom  26H    basis set group =>   2
Atom  27H    basis set group =>   2
Atom  28C    basis set group =>   1
Atom  29O    basis set group =>   3
Atom  30C    basis set group =>   1
Atom  31O    basis set group =>   3
Atom  32N    basis set group =>   4
Atom  33C    basis set group =>   1
Atom  34O    basis set group =>   3
Atom  35C    basis set group =>   1
Atom  36O    basis set group =>   3
Atom  37N    basis set group =>   4
Atom  38C    basis set group =>   1
Atom  39H    basis set group =>   2
Atom  40H    basis set group =>   2
Atom  41H    basis set group =>   2
Atom  42C    basis set group =>   1
Atom  43H    basis set group =>   2
Atom  44H    basis set group =>   2
Atom  45H    basis set group =>   2
---------------------------------
AUXILIARY/J BASIS SET INFORMATION
---------------------------------
There are 4 groups of distinct atoms

 Group   1 Type C   : 12s5p4d2f1g contracted to 6s4p3d1f1g pattern {711111/2111/211/2/1}
 Group   2 Type H   : 5s2p1d contracted to 3s1p1d pattern {311/2/1}
 Group   3 Type O   : 12s5p4d2f1g contracted to 6s4p3d1f1g pattern {711111/2111/211/2/1}
 Group   4 Type N   : 12s5p4d2f1g contracted to 6s4p3d1f1g pattern {711111/2111/211/2/1}

Atom   0C    basis set group =>   1
Atom   1C    basis set group =>   1
Atom   2C    basis set group =>   1
Atom   3C    basis set group =>   1
Atom   4C    basis set group =>   1
Atom   5C    basis set group =>   1
Atom   6H    basis set group =>   2
Atom   7C    basis set group =>   1
Atom   8C    basis set group =>   1
Atom   9H    basis set group =>   2
Atom  10C    basis set group =>   1
Atom  11C    basis set group =>   1
Atom  12H    basis set group =>   2
Atom  13H    basis set group =>   2
Atom  14C    basis set group =>   1
Atom  15C    basis set group =>   1
Atom  16C    basis set group =>   1
Atom  17C    basis set group =>   1
Atom  18C    basis set group =>   1
Atom  19C    basis set group =>   1
Atom  20H    basis set group =>   2
Atom  21C    basis set group =>   1
Atom  22C    basis set group =>   1
Atom  23C    basis set group =>   1
Atom  24H    basis set group =>   2
Atom  25C    basis set group =>   1
Atom  26H    basis set group =>   2
Atom  27H    basis set group =>   2
Atom  28C    basis set group =>   1
Atom  29O    basis set group =>   3
Atom  30C    basis set group =>   1
Atom  31O    basis set group =>   3
Atom  32N    basis set group =>   4
Atom  33C    basis set group =>   1
Atom  34O    basis set group =>   3
Atom  35C    basis set group =>   1
Atom  36O    basis set group =>   3
Atom  37N    basis set group =>   4
Atom  38C    basis set group =>   1
Atom  39H    basis set group =>   2
Atom  40H    basis set group =>   2
Atom  41H    basis set group =>   2
Atom  42C    basis set group =>   1
Atom  43H    basis set group =>   2
Atom  44H    basis set group =>   2
Atom  45H    basis set group =>   2
---------------------------------
AUXILIARY/C BASIS SET INFORMATION
---------------------------------
There are 4 groups of distinct atoms

 Group   1 Type C   : 8s6p5d3f1g contracted to 8s6p4d3f1g pattern {11111111/111111/2111/111/1}
 Group   2 Type H   : 4s3p2d contracted to 4s2p1d pattern {1111/21/2}
 Group   3 Type O   : 8s6p5d3f1g contracted to 8s6p4d3f1g pattern {11111111/111111/2111/111/1}
 Group   4 Type N   : 8s6p5d3f1g contracted to 8s6p4d3f1g pattern {11111111/111111/2111/111/1}

Atom   0C    basis set group =>   1
Atom   1C    basis set group =>   1
Atom   2C    basis set group =>   1
Atom   3C    basis set group =>   1
Atom   4C    basis set group =>   1
Atom   5C    basis set group =>   1
Atom   6H    basis set group =>   2
Atom   7C    basis set group =>   1
Atom   8C    basis set group =>   1
Atom   9H    basis set group =>   2
Atom  10C    basis set group =>   1
Atom  11C    basis set group =>   1
Atom  12H    basis set group =>   2
Atom  13H    basis set group =>   2
Atom  14C    basis set group =>   1
Atom  15C    basis set group =>   1
Atom  16C    basis set group =>   1
Atom  17C    basis set group =>   1
Atom  18C    basis set group =>   1
Atom  19C    basis set group =>   1
Atom  20H    basis set group =>   2
Atom  21C    basis set group =>   1
Atom  22C    basis set group =>   1
Atom  23C    basis set group =>   1
Atom  24H    basis set group =>   2
Atom  25C    basis set group =>   1
Atom  26H    basis set group =>   2
Atom  27H    basis set group =>   2
Atom  28C    basis set group =>   1
Atom  29O    basis set group =>   3
Atom  30C    basis set group =>   1
Atom  31O    basis set group =>   3
Atom  32N    basis set group =>   4
Atom  33C    basis set group =>   1
Atom  34O    basis set group =>   3
Atom  35C    basis set group =>   1
Atom  36O    basis set group =>   3
Atom  37N    basis set group =>   4
Atom  38C    basis set group =>   1
Atom  39H    basis set group =>   2
Atom  40H    basis set group =>   2
Atom  41H    basis set group =>   2
Atom  42C    basis set group =>   1
Atom  43H    basis set group =>   2
Atom  44H    basis set group =>   2
Atom  45H    basis set group =>   2


           ************************************************************
           *        Program running with 4 parallel MPI-processes     *
           *              working on a common directory               *
           ************************************************************
------------------------------------------------------------------------------
                           ORCA GTO INTEGRAL CALCULATION
                           -- RI-GTO INTEGRALS CHOSEN --
------------------------------------------------------------------------------
------------------------------------------------------------------------------
                   ___                                                        
                  /   \      - P O W E R E D   B Y -                         
                 /     \                                                     
                 |  |  |   _    _      __       _____    __    __             
                 |  |  |  | |  | |    /  \     |  _  \  |  |  /  |          
                  \  \/   | |  | |   /    \    | | | |  |  | /  /          
                 / \  \   | |__| |  /  /\  \   | |_| |  |  |/  /          
                |  |  |   |  __  | /  /__\  \  |    /   |      \           
                |  |  |   | |  | | |   __   |  |    \   |  |\   \          
                \     /   | |  | | |  |  |  |  | |\  \  |  | \   \       
                 \___/    |_|  |_| |__|  |__|  |_| \__\ |__|  \__/        
                                                                              
                      - O R C A' S   B I G   F R I E N D -                    
                                      &                                       
                       - I N T E G R A L  F E E D E R -                       
                                                                              
 v1 FN, 2020, v2 2021                                                         
------------------------------------------------------------------------------


Reading SHARK input file PDI_1_M06L_def2TZVP_coords.SHARKINP.tmp ... ok
----------------------
SHARK INTEGRAL PACKAGE
----------------------

Number of atoms                             ...     46
Number of basis functions                   ...   1076
Number of shells                            ...    408
Maximum angular momentum                    ...      3
Integral batch strategy                     ... SHARK/LIBINT Hybrid
RI-J (if used) integral strategy            ... SPLIT-RIJ (Revised 2003 algorithm where possible)
Printlevel                                  ...      1
Contraction scheme used                     ... SEGMENTED contraction
Coulomb Range Separation                    ... NOT USED
Exchange Range Separation                   ... NOT USED
Finite Nucleus Model                        ... NOT USED
Auxiliary Coulomb fitting basis             ... AVAILABLE
   # of basis functions in Aux-J            ...   1722
   # of shells in Aux-J                     ...    550
   Maximum angular momentum in Aux-J        ...      4
Auxiliary J/K fitting basis                 ... NOT available
Auxiliary Correlation fitting basis         ... AVAILABLE
   # of basis functions in Aux-C            ...   2642
   # of shells in Aux-C                     ...    802
   Maximum angular momentum in Aux-C        ...      4
Auxiliary 'external' fitting basis          ... NOT available
Integral threshold                          ...     2.500000e-11
Primitive cut-off                           ...     2.500000e-12
Primitive pair pre-selection threshold      ...     2.500000e-12

Calculating pre-screening integrals         ... done (  0.1 sec) Dimension = 408
Organizing shell pair data                  ... done (  0.9 sec)
Shell pair information
Total number of shell pairs                 ...     83436
Shell pairs after pre-screening             ...     50856
Total number of primitive shell pairs       ...    263196
Primitive shell pairs kept                  ...    104270
          la=0 lb=0:  11607 shell pairs
          la=1 lb=0:  14378 shell pairs
          la=1 lb=1:   4389 shell pairs
          la=2 lb=0:   7470 shell pairs
          la=2 lb=1:   4648 shell pairs
          la=2 lb=2:   1215 shell pairs
          la=3 lb=0:   3490 shell pairs
          la=3 lb=1:   2222 shell pairs
          la=3 lb=2:   1144 shell pairs
          la=3 lb=3:    293 shell pairs

Calculating one electron integrals          ... done (  0.1 sec)
Calculating RI/J V-Matrix + Cholesky decomp.... done (  0.2 sec)
Calculating RI/C V-Matrix + Cholesky decomp.... done (  0.4 sec)
Calculating Nuclear repulsion               ... done (  0.0 sec) ENN=   2947.572567001087 Eh

SHARK setup successfully completed in   2.3 seconds

Maximum memory used throughout the entire GTOINT-calculation: 108.4 MB


           ************************************************************
           *        Program running with 4 parallel MPI-processes     *
           *              working on a common directory               *
           ************************************************************
-------------------------------------------------------------------------------
                                 ORCA SCF
-------------------------------------------------------------------------------

------------
SCF SETTINGS
------------
Hamiltonian:
 Density Functional     Method          .... DFT(GTOs)
 Exchange Functional    Exchange        .... B88
   X-Alpha parameter    XAlpha          ....  0.666667
   Becke's b parameter  XBeta           ....  0.004200
 Correlation Functional Correlation     .... LYP
 LDA part of GGA corr.  LDAOpt          .... VWN-3
 Gradients option       PostSCFGGA      .... off
 Hybrid DFT is turned on
   Fraction HF Exchange ScalHFX         ....  0.650000
   Scaling of DF-GGA-X  ScalDFX         ....  0.350000
   Scaling of DF-GGA-C  ScalDFC         ....  0.640000
   Scaling of DF-LDA-C  ScalLDAC        ....  0.640000
   Perturbative correction              ....  0.360000
   Density functional embedding theory  .... OFF
 RI-approximation to the Coulomb term is turned on
   Number of AuxJ basis functions       .... 1722
   RIJ-COSX (HFX calculated with COS-X)).... on


General Settings:
 Integral files         IntName         .... PDI_1_M06L_def2TZVP_coords
 Hartree-Fock type      HFTyp           .... RHF
 Total Charge           Charge          ....    0
 Multiplicity           Mult            ....    1
 Number of Electrons    NEL             ....  216
 Basis Dimension        Dim             .... 1076
 Nuclear Repulsion      ENuc            ....   2947.5725670011 Eh

Convergence Acceleration:
 DIIS                   CNVDIIS         .... on
   Start iteration      DIISMaxIt       ....    12
   Startup error        DIISStart       ....  0.200000
   # of expansion vecs  DIISMaxEq       ....     5
   Bias factor          DIISBfac        ....   1.050
   Max. coefficient     DIISMaxC        ....  10.000
 Trust-Rad. Augm. Hess. CNVTRAH         .... auto
   Auto Start mean grad. ratio tolernc. ....  1.125000
   Auto Start start iteration           ....    20
   Auto Start num. interpolation iter.  ....    10
   Max. Number of Micro iterations      ....    16
   Max. Number of Macro iterations      .... Maxiter - #DIIS iter
   Number of Davidson start vectors     ....     2
   Converg. threshold I  (grad. norm)   ....   1.000e-05
   Converg. threshold II (energy diff.) ....   1.000e-08
   Grad. Scal. Fac. for Micro threshold ....   0.100
   Minimum threshold for Micro iter.    ....   0.010
   NR start threshold (gradient norm)   ....   0.001
   Initial trust radius                 ....   0.400
   Minimum AH scaling param. (alpha)    ....   1.000
   Maximum AH scaling param. (alpha)    .... 1000.000
   Orbital update algorithm             .... Taylor
   White noise on init. David. guess    .... on
   Maximum white noise                  ....   0.010
   Quad. conv. algorithm                .... NR
 SOSCF                  CNVSOSCF        .... on
   Start iteration      SOSCFMaxIt      ....   150
   Startup grad/error   SOSCFStart      ....  0.003300
 Level Shifting         CNVShift        .... on
   Level shift para.    LevelShift      ....    0.2500
   Turn off err/grad.   ShiftErr        ....    0.0010
 Zerner damping         CNVZerner       .... off
 Static damping         CNVDamp         .... on
   Fraction old density DampFac         ....    0.7000
   Max. Damping (<1)    DampMax         ....    0.9800
   Min. Damping (>=0)   DampMin         ....    0.0000
   Turn off err/grad.   DampErr         ....    0.1000
 Fernandez-Rico         CNVRico         .... off

SCF Procedure:
 Maximum # iterations   MaxIter         ....   125
 SCF integral mode      SCFMode         .... Direct
   Integral package                     .... SHARK and LIBINT hybrid scheme
 Reset frequency        DirectResetFreq ....    20
 Integral Threshold     Thresh          ....  2.500e-11 Eh
 Primitive CutOff       TCut            ....  2.500e-12 Eh

Convergence Tolerance:
 Convergence Check Mode ConvCheckMode   .... Total+1el-Energy
 Convergence forced     ConvForced      .... 1
 Energy Change          TolE            ....  1.000e-08 Eh
 1-El. energy change                    ....  1.000e-05 Eh
 Orbital Gradient       TolG            ....  1.000e-05
 Orbital Rotation angle TolX            ....  1.000e-05
 DIIS Error             TolErr          ....  5.000e-07


Diagonalization of the overlap matrix:
Smallest eigenvalue                        ... 1.259e-06
Time for diagonalization                   ...    0.224 sec
Threshold for overlap eigenvalues          ... 1.000e-08
Number of eigenvalues below threshold      ... 0
Time for construction of square roots      ...    0.194 sec
Total time needed                          ...    0.422 sec

Time for model grid setup =    0.569 sec

------------------------------
INITIAL GUESS: MODEL POTENTIAL
------------------------------
Loading Hartree-Fock densities                     ... done
Calculating cut-offs                               ... done
Initializing the effective Hamiltonian             ... done
Setting up the integral package (SHARK)            ... done
Starting the Coulomb interaction                   ... done (   1.4 sec)
Reading the grid                                   ... done
Mapping shells                                     ... done
Starting the XC term evaluation                    ... done (   0.9 sec)
  promolecular density results
     # of electrons  =    215.973391933
     EX              =   -184.028491200
     EC              =     -0.904979596
     EX+EC           =   -184.933470796
Transforming the Hamiltonian                       ... done (   0.2 sec)
Diagonalizing the Hamiltonian                      ... done (   0.2 sec)
Back transforming the eigenvectors                 ... done (   0.1 sec)
Now organizing SCF variables                       ... done
                      ------------------
                      INITIAL GUESS DONE (   3.4 sec)
                      ------------------
-------------------
DFT GRID GENERATION
-------------------

General Integration Accuracy     IntAcc      ... 4.388
Radial Grid Type                 RadialGrid  ... OptM3 with GC (2021)
Angular Grid (max. ang.)         AngularGrid ... 4 (Lebedev-302)
Angular grid pruning method      GridPruning ... 4 (adaptive)
Weight generation scheme         WeightScheme... Becke
Basis function cutoff            BFCut       ... 1.0000e-11
Integration weight cutoff        WCut        ... 1.0000e-14
Angular grids for H and He will be reduced by one unit
Partially contracted basis set               ... off
Rotationally invariant grid construction     ... off

Total number of grid points                  ...   234835
Total number of batches                      ...     3696
Average number of points per batch           ...       63
Average number of grid points per atom       ...     5105
Time for grid setup =    2.153 sec

--------------------
COSX GRID GENERATION
--------------------

GRIDX 1
-------
General Integration Accuracy     IntAcc      ... 3.816
Radial Grid Type                 RadialGrid  ... OptM3 with GC (2021)
Angular Grid (max. ang.)         AngularGrid ... 1 (Lebedev-50)
Angular grid pruning method      GridPruning ... 4 (adaptive)
Weight generation scheme         WeightScheme... Becke
Basis function cutoff            BFCut       ... 1.0000e-11
Integration weight cutoff        WCut        ... 1.0000e-14
Angular grids for H and He will be reduced by one unit
Partially contracted basis set               ... on
Rotationally invariant grid construction     ... off

Total number of grid points                  ...    29840
Total number of batches                      ...      490
Average number of points per batch           ...       60
Average number of grid points per atom       ...      649
UseSFitting                                  ... on

GRIDX 2
-------
General Integration Accuracy     IntAcc      ... 4.020
Radial Grid Type                 RadialGrid  ... OptM3 with GC (2021)
Angular Grid (max. ang.)         AngularGrid ... 2 (Lebedev-110)
Angular grid pruning method      GridPruning ... 4 (adaptive)
Weight generation scheme         WeightScheme... Becke
Basis function cutoff            BFCut       ... 1.0000e-11
Integration weight cutoff        WCut        ... 1.0000e-14
Angular grids for H and He will be reduced by one unit
Partially contracted basis set               ... on
Rotationally invariant grid construction     ... off

Total number of grid points                  ...    65893
Total number of batches                      ...     1058
Average number of points per batch           ...       62
Average number of grid points per atom       ...     1432
UseSFitting                                  ... on

GRIDX 3
-------
General Integration Accuracy     IntAcc      ... 4.338
Radial Grid Type                 RadialGrid  ... OptM3 with GC (2021)
Angular Grid (max. ang.)         AngularGrid ... 3 (Lebedev-194)
Angular grid pruning method      GridPruning ... 4 (adaptive)
Weight generation scheme         WeightScheme... Becke
Basis function cutoff            BFCut       ... 1.0000e-11
Integration weight cutoff        WCut        ... 1.0000e-14
Angular grids for H and He will be reduced by one unit
Partially contracted basis set               ... on
Rotationally invariant grid construction     ... off

Total number of grid points                  ...   144901
Total number of batches                      ...     2289
Average number of points per batch           ...       63
Average number of grid points per atom       ...     3150
UseSFitting                                  ... on

Time for X-Grid setup             =    5.324 sec


--------------------
CPCM SOLVATION MODEL
--------------------
CPCM parameters:
  Epsilon                                         ...       8.9300
  Refrac                                          ...       1.4242
  Rsolv                                           ...       1.3000
  Surface type                                    ... GAUSSIAN VDW
  Epsilon function type                           ...         CPCM
Solvent:                                     ... DICHLOROMETHANE
SMD-CDS solvent descriptors:
  Soln                                       ...    1.4242
  Soln25                                     ...    1.4212
  Sola                                       ...    0.1000
  Solb                                       ...    0.0500
  Solg                                       ...   39.1500
  Solc                                       ...    0.0000
  Solh                                       ...    0.6670
Radii:
 Radius for C  used is    3.4960 Bohr (=   1.8500 Ang.)
 Radius for H  used is    2.2677 Bohr (=   1.2000 Ang.)
 Radius for O  used is    3.9949 Bohr (=   2.1140 Ang.)
 Radius for N  used is    3.5716 Bohr (=   1.8900 Ang.)
Calculating surface                               ...        done! (  0.0s)
GEPOL surface points                              ...         2248
GEPOL Volume                                      ...    2839.0468
GEPOL Surface-area                                ...    1385.5089
Calculating surface distance matrix               ...        done! (  0.0s)
Performing Cholesky decomposition & store         ...        done! (  0.2s)
Overall time for CPCM initialization              ...                 0.2s
--------------
SCF ITERATIONS
--------------
ITER       Energy         Delta-E        Max-DP      RMS-DP      [F,P]     Damp
               ***  Starting incremental Fock matrix formation  ***
  0  -1405.8287993753   0.000000000000 0.21777344  0.00193774  0.2995891 0.7000
  1  -1406.1601566230  -0.331357247718 0.20990000  0.00174246  0.1571417 0.7000
                               ***Turning on DIIS***
  2  -1406.3323198888  -0.172163265729 0.39725933  0.00352271  0.0705976 0.0000
  3  -1406.6480110929  -0.315691204160 0.15684439  0.00116175  0.0629857 0.0000
  4  -1406.6779868067  -0.029975713743 0.03671753  0.00028390  0.0138139 0.0000
  5  -1406.6801467355  -0.002159928849 0.01801174  0.00015742  0.0043276 0.0000
                      *** Initiating the SOSCF procedure ***
                           *** Shutting down DIIS ***
                      *** Re-Reading the Fockian *** 
                      *** Removing any level shift *** 
ITER      Energy       Delta-E        Grad      Rot      Max-DP    RMS-DP
  6  -1406.68046572  -0.0003189833  0.001718  0.001718  0.009752  0.000071
               *** Restarting incremental Fock matrix formation ***
  7  -1406.68045685   0.0000088664  0.001196  0.004741  0.055707  0.000731
  8  -1406.68050539  -0.0000485372  0.000402  0.003653  0.018880  0.000250
  9  -1406.68051359  -0.0000082023  0.000223  0.000480  0.016546  0.000216
 10  -1406.68051760  -0.0000040068  0.000063  0.000357  0.002167  0.000024
 11  -1406.68051778  -0.0000001827  0.000030  0.000048  0.001085  0.000012
 12  -1406.68051783  -0.0000000481  0.000009  0.000030  0.000628  0.000006
 13  -1406.68051785  -0.0000000171  0.000003  0.000011  0.001510  0.000009
                  ***Gradient check signals convergence***
              ***Rediagonalizing the Fockian in SOSCF/NRSCF***

               *****************************************************
               *                     SUCCESS                       *
               *           SCF CONVERGED AFTER  14 CYCLES          *
               *****************************************************

Old exchange energy                            =   -121.257739784 Eh
New exchange energy                            =   -121.257447687 Eh
Exchange energy change after final integration =      0.000292098 Eh
Total energy after final integration           =  -1406.680225771 Eh
Final COS-X integration done in                =    97.876 sec

SMD CDS free energy correction energy :                -9.80155     Kcal/mol
Total Energy after SMD CDS correction =             -1406.695845532 Eh

----------------
TOTAL SCF ENERGY
----------------

Total Energy       :        -1406.69584553 Eh          -38278.13998 eV

Components:
Nuclear Repulsion  :         2947.57256700 Eh           80207.52722 eV
Electronic Energy  :        -4354.26841253 Eh         -118485.66720 eV
One Electron Energy:        -7772.42575798 Eh         -211498.45725 eV
Two Electron Energy:         3418.15734545 Eh           93012.79005 eV
Max COSX asymmetry :            0.00000872 Eh               0.00024 eV
CPCM Dielectric    :           -0.02935129 Eh              -0.79869 eV
SMD CDS (Gcds)     :           -0.01561976 Eh              -0.42504 eV

Virial components:
Potential Energy   :        -2809.10078681 Eh          -76439.51852 eV
Kinetic Energy     :         1402.40494128 Eh           38161.37854 eV
Virial Ratio       :            2.00305968


DFT components:
N(Alpha)           :      108.000137855209 electrons
N(Beta)            :      108.000137855209 electrons
N(Total)           :      216.000275710418 electrons
E(X)               :      -65.445871121932 Eh       
E(C)               :       -4.821952633738 Eh       
E(XC)              :      -70.267823755670 Eh       
DFET-embed. en.    :        0.000000000000 Eh       
CPCM Solvation Model Properties:
Surface-charge          :           -0.04282540
Charge-correction       :            0.00030014 Eh               0.00817 eV
Free-energy (cav+disp)  :           -0.01561976 Eh              -0.42504 eV

---------------
SCF CONVERGENCE
---------------

  Last Energy change         ...   -2.2575e-08  Tolerance :   1.0000e-08
  Last MAX-Density change    ...    2.4425e-15  Tolerance :   1.0000e-07
  Last RMS-Density change    ...    1.4929e-17  Tolerance :   5.0000e-09
  Last Orbital Gradient      ...    1.1665e-06  Tolerance :   1.0000e-05
  Last Orbital Rotation      ...    9.2249e-06  Tolerance :   1.0000e-05

             **** THE GBW FILE WAS UPDATED (PDI_1_M06L_def2TZVP_coords.gbw) ****
             **** DENSITY PDI_1_M06L_def2TZVP_coords.scfp WAS UPDATED ****
             **** ENERGY FILE WAS UPDATED (PDI_1_M06L_def2TZVP_coords.en.tmp) ****
             **** THE GBW FILE WAS UPDATED (PDI_1_M06L_def2TZVP_coords.gbw) ****
             **** DENSITY PDI_1_M06L_def2TZVP_coords.scfp WAS UPDATED ****
----------------
ORBITAL ENERGIES
----------------

  NO   OCC          E(Eh)            E(eV) 
   0   2.0000     -19.925162      -542.1912 
   1   2.0000     -19.925161      -542.1912 
   2   2.0000     -19.925144      -542.1907 
   3   2.0000     -19.925143      -542.1907 
   4   2.0000     -15.081325      -410.3837 
   5   2.0000     -15.081322      -410.3836 
   6   2.0000     -10.911607      -296.9199 
   7   2.0000     -10.911606      -296.9199 
   8   2.0000     -10.909245      -296.8557 
   9   2.0000     -10.909244      -296.8556 
  10   2.0000     -10.820297      -294.4353 
  11   2.0000     -10.820277      -294.4347 
  12   2.0000     -10.819663      -294.4180 
  13   2.0000     -10.819613      -294.4166 
  14   2.0000     -10.815865      -294.3146 
  15   2.0000     -10.815862      -294.3146 
  16   2.0000     -10.812348      -294.2189 
  17   2.0000     -10.812342      -294.2188 
  18   2.0000     -10.803620      -293.9815 
  19   2.0000     -10.803619      -293.9814 
  20   2.0000     -10.803422      -293.9760 
  21   2.0000     -10.803418      -293.9759 
  22   2.0000     -10.802186      -293.9424 
  23   2.0000     -10.802184      -293.9424 
  24   2.0000     -10.802150      -293.9414 
  25   2.0000     -10.802149      -293.9414 
  26   2.0000     -10.795266      -293.7541 
  27   2.0000     -10.795264      -293.7541 
  28   2.0000     -10.795173      -293.7516 
  29   2.0000     -10.795172      -293.7516 
  30   2.0000     -10.794869      -293.7433 
  31   2.0000     -10.794865      -293.7432 
  32   2.0000      -1.270145       -34.5624 
  33   2.0000      -1.270144       -34.5624 
  34   2.0000      -1.249479       -34.0001 
  35   2.0000      -1.249477       -34.0000 
  36   2.0000      -1.128963       -30.7206 
  37   2.0000      -1.128620       -30.7113 
  38   2.0000      -1.100878       -29.9564 
  39   2.0000      -1.072339       -29.1798 
  40   2.0000      -1.034618       -28.1534 
  41   2.0000      -1.012793       -27.5595 
  42   2.0000      -1.010374       -27.4937 
  43   2.0000      -0.952327       -25.9141 
  44   2.0000      -0.944937       -25.7130 
  45   2.0000      -0.932231       -25.3673 
  46   2.0000      -0.917405       -24.9639 
  47   2.0000      -0.890724       -24.2378 
  48   2.0000      -0.876439       -23.8491 
  49   2.0000      -0.856709       -23.3122 
  50   2.0000      -0.839975       -22.8569 
  51   2.0000      -0.801886       -21.8204 
  52   2.0000      -0.797154       -21.6917 
  53   2.0000      -0.787304       -21.4236 
  54   2.0000      -0.777409       -21.1544 
  55   2.0000      -0.756172       -20.5765 
  56   2.0000      -0.751337       -20.4449 
  57   2.0000      -0.729890       -19.8613 
  58   2.0000      -0.697553       -18.9814 
  59   2.0000      -0.672191       -18.2912 
  60   2.0000      -0.668182       -18.1822 
  61   2.0000      -0.657018       -17.8784 
  62   2.0000      -0.643671       -17.5152 
  63   2.0000      -0.626845       -17.0573 
  64   2.0000      -0.617465       -16.8021 
  65   2.0000      -0.599819       -16.3219 
  66   2.0000      -0.595466       -16.2034 
  67   2.0000      -0.594452       -16.1759 
  68   2.0000      -0.589501       -16.0411 
  69   2.0000      -0.589065       -16.0293 
  70   2.0000      -0.577495       -15.7144 
  71   2.0000      -0.565471       -15.3872 
  72   2.0000      -0.562578       -15.3085 
  73   2.0000      -0.561130       -15.2691 
  74   2.0000      -0.549766       -14.9599 
  75   2.0000      -0.544444       -14.8151 
  76   2.0000      -0.543157       -14.7801 
  77   2.0000      -0.533596       -14.5199 
  78   2.0000      -0.530430       -14.4337 
  79   2.0000      -0.519002       -14.1228 
  80   2.0000      -0.507906       -13.8208 
  81   2.0000      -0.506281       -13.7766 
  82   2.0000      -0.504665       -13.7326 
  83   2.0000      -0.500506       -13.6195 
  84   2.0000      -0.497740       -13.5442 
  85   2.0000      -0.496915       -13.5218 
  86   2.0000      -0.486361       -13.2345 
  87   2.0000      -0.486333       -13.2338 
  88   2.0000      -0.483579       -13.1588 
  89   2.0000      -0.482031       -13.1167 
  90   2.0000      -0.466169       -12.6851 
  91   2.0000      -0.456019       -12.4089 
  92   2.0000      -0.449478       -12.2309 
  93   2.0000      -0.444174       -12.0866 
  94   2.0000      -0.424091       -11.5401 
  95   2.0000      -0.407872       -11.0988 
  96   2.0000      -0.402687       -10.9577 
  97   2.0000      -0.392374       -10.6770 
  98   2.0000      -0.390269       -10.6198 
  99   2.0000      -0.374222       -10.1831 
 100   2.0000      -0.374173       -10.1818 
 101   2.0000      -0.357790        -9.7360 
 102   2.0000      -0.355234        -9.6664 
 103   2.0000      -0.328327        -8.9342 
 104   2.0000      -0.326760        -8.8916 
 105   2.0000      -0.321146        -8.7388 
 106   2.0000      -0.315110        -8.5746 
 107   2.0000      -0.248966        -6.7747 
 108   0.0000      -0.071889        -1.9562 
 109   0.0000       0.003993         0.1086 
 110   0.0000       0.008250         0.2245 
 111   0.0000       0.023037         0.6269 
 112   0.0000       0.051704         1.4069 
 113   0.0000       0.070483         1.9179 
 114   0.0000       0.072226         1.9654 
 115   0.0000       0.107415         2.9229 
 116   0.0000       0.108317         2.9474 
 117   0.0000       0.110510         3.0071 
 118   0.0000       0.119866         3.2617 
 119   0.0000       0.124799         3.3960 
 120   0.0000       0.137839         3.7508 
 121   0.0000       0.138489         3.7685 
 122   0.0000       0.142270         3.8714 
 123   0.0000       0.147742         4.0203 
 124   0.0000       0.151428         4.1206 
 125   0.0000       0.154879         4.2145 
 126   0.0000       0.160691         4.3726 
 127   0.0000       0.167893         4.5686 
 128   0.0000       0.170737         4.6460 
 129   0.0000       0.176331         4.7982 
 130   0.0000       0.177270         4.8238 
 131   0.0000       0.180343         4.9074 
 132   0.0000       0.185804         5.0560 
 133   0.0000       0.193481         5.2649 
 134   0.0000       0.197339         5.3699 
 135   0.0000       0.199881         5.4390 
 136   0.0000       0.209990         5.7141 
 137   0.0000       0.212383         5.7792 
 138   0.0000       0.215716         5.8699 
 139   0.0000       0.221557         6.0289 
 140   0.0000       0.222827         6.0634 
 141   0.0000       0.225361         6.1324 
 142   0.0000       0.227744         6.1972 
 143   0.0000       0.238190         6.4815 
 144   0.0000       0.243744         6.6326 
 145   0.0000       0.248212         6.7542 
 146   0.0000       0.249514         6.7896 
 147   0.0000       0.261053         7.1036 
 148   0.0000       0.264773         7.2048 
 149   0.0000       0.269880         7.3438 
 150   0.0000       0.274312         7.4644 
 151   0.0000       0.274885         7.4800 
 152   0.0000       0.280507         7.6330 
 153   0.0000       0.282781         7.6949 
 154   0.0000       0.285831         7.7779 
 155   0.0000       0.287295         7.8177 
 156   0.0000       0.292089         7.9481 
 157   0.0000       0.294621         8.0171 
 158   0.0000       0.296600         8.0709 
 159   0.0000       0.303261         8.2522 
 160   0.0000       0.308743         8.4013 
 161   0.0000       0.310810         8.4576 
 162   0.0000       0.312246         8.4966 
 163   0.0000       0.315471         8.5844 
 164   0.0000       0.322138         8.7658 
 165   0.0000       0.324289         8.8244 
 166   0.0000       0.327586         8.9141 
 167   0.0000       0.328176         8.9301 
 168   0.0000       0.334475         9.1015 
 169   0.0000       0.339202         9.2302 
 170   0.0000       0.342538         9.3209 
 171   0.0000       0.349668         9.5149 
 172   0.0000       0.351234         9.5576 
 173   0.0000       0.353009         9.6059 
 174   0.0000       0.353017         9.6061 
 175   0.0000       0.361922         9.8484 
 176   0.0000       0.368647        10.0314 
 177   0.0000       0.368992        10.0408 
 178   0.0000       0.370625        10.0852 
 179   0.0000       0.374192        10.1823 
 180   0.0000       0.383049        10.4233 
 181   0.0000       0.384050        10.4505 
 182   0.0000       0.389010        10.5855 
 183   0.0000       0.396894        10.8000 
 184   0.0000       0.398269        10.8375 
 185   0.0000       0.400796        10.9062 
 186   0.0000       0.401374        10.9220 
 187   0.0000       0.401672        10.9300 
 188   0.0000       0.406787        11.0692 
 189   0.0000       0.407794        11.0967 
 190   0.0000       0.411291        11.1918 
 191   0.0000       0.417218        11.3531 
 192   0.0000       0.422893        11.5075 
 193   0.0000       0.425881        11.5888 
 194   0.0000       0.427388        11.6298 
 195   0.0000       0.430543        11.7157 
 196   0.0000       0.434763        11.8305 
 197   0.0000       0.447647        12.1811 
 198   0.0000       0.448909        12.2154 
 199   0.0000       0.454621        12.3709 
 200   0.0000       0.459206        12.4956 
 201   0.0000       0.462226        12.5778 
 202   0.0000       0.464772        12.6471 
 203   0.0000       0.466253        12.6874 
 204   0.0000       0.473156        12.8752 
 205   0.0000       0.475554        12.9405 
 206   0.0000       0.478213        13.0128 
 207   0.0000       0.487563        13.2673 
 208   0.0000       0.489081        13.3086 
 209   0.0000       0.491538        13.3754 
 210   0.0000       0.492113        13.3911 
 211   0.0000       0.494914        13.4673 
 212   0.0000       0.498967        13.5776 
 213   0.0000       0.504856        13.7378 
 214   0.0000       0.506255        13.7759 
 215   0.0000       0.511024        13.9057 
 216   0.0000       0.514992        14.0137 
 217   0.0000       0.525671        14.3042 
 218   0.0000       0.525690        14.3047 
 219   0.0000       0.527679        14.3589 
 220   0.0000       0.528993        14.3946 
 221   0.0000       0.546573        14.8730 
 222   0.0000       0.547994        14.9117 
 223   0.0000       0.555123        15.1057 
 224   0.0000       0.560004        15.2385 
 225   0.0000       0.562580        15.3086 
 226   0.0000       0.563916        15.3449 
 227   0.0000       0.568204        15.4616 
 228   0.0000       0.578030        15.7290 
 229   0.0000       0.578263        15.7353 
 230   0.0000       0.580443        15.7947 
 231   0.0000       0.581059        15.8114 
 232   0.0000       0.594131        16.1671 
 233   0.0000       0.595594        16.2069 
 234   0.0000       0.597803        16.2670 
 235   0.0000       0.597949        16.2710 
 236   0.0000       0.601207        16.3597 
 237   0.0000       0.606211        16.4958 
 238   0.0000       0.609631        16.5889 
 239   0.0000       0.612230        16.6596 
 240   0.0000       0.616371        16.7723 
 241   0.0000       0.626086        17.0367 
 242   0.0000       0.626666        17.0525 
 243   0.0000       0.628519        17.1029 
 244   0.0000       0.637200        17.3391 
 245   0.0000       0.643588        17.5129 
 246   0.0000       0.646715        17.5980 
 247   0.0000       0.651397        17.7254 
 248   0.0000       0.654308        17.8046 
 249   0.0000       0.659350        17.9418 
 250   0.0000       0.662484        18.0271 
 251   0.0000       0.664546        18.0832 
 252   0.0000       0.669823        18.2268 
 253   0.0000       0.670693        18.2505 
 254   0.0000       0.673658        18.3312 
 255   0.0000       0.675568        18.3832 
 256   0.0000       0.683540        18.6001 
 257   0.0000       0.685913        18.6646 
 258   0.0000       0.689686        18.7673 
 259   0.0000       0.692488        18.8436 
 260   0.0000       0.694675        18.9031 
 261   0.0000       0.695546        18.9268 
 262   0.0000       0.697847        18.9894 
 263   0.0000       0.701099        19.0779 
 264   0.0000       0.708887        19.2898 
 265   0.0000       0.709098        19.2955 
 266   0.0000       0.710613        19.3368 
 267   0.0000       0.714524        19.4432 
 268   0.0000       0.719871        19.5887 
 269   0.0000       0.720076        19.5943 
 270   0.0000       0.723832        19.6965 
 271   0.0000       0.732396        19.9295 
 272   0.0000       0.736105        20.0304 
 273   0.0000       0.742338        20.2000 
 274   0.0000       0.743545        20.2329 
 275   0.0000       0.754846        20.5404 
 276   0.0000       0.755043        20.5458 
 277   0.0000       0.766606        20.8604 
 278   0.0000       0.778290        21.1783 
 279   0.0000       0.778780        21.1917 
 280   0.0000       0.781862        21.2755 
 281   0.0000       0.789749        21.4902 
 282   0.0000       0.794680        21.6243 
 283   0.0000       0.797492        21.7009 
 284   0.0000       0.798271        21.7220 
 285   0.0000       0.800365        21.7790 
 286   0.0000       0.802479        21.8366 
 287   0.0000       0.805365        21.9151 
 288   0.0000       0.812631        22.1128 
 289   0.0000       0.822835        22.3905 
 290   0.0000       0.828424        22.5426 
 291   0.0000       0.833679        22.6855 
 292   0.0000       0.838145        22.8071 
 293   0.0000       0.840082        22.8598 
 294   0.0000       0.842998        22.9391 
 295   0.0000       0.845128        22.9971 
 296   0.0000       0.846356        23.0305 
 297   0.0000       0.848866        23.0988 
 298   0.0000       0.854960        23.2646 
 299   0.0000       0.855854        23.2890 
 300   0.0000       0.863572        23.4990 
 301   0.0000       0.864961        23.5368 
 302   0.0000       0.877404        23.8754 
 303   0.0000       0.878774        23.9127 
 304   0.0000       0.880586        23.9620 
 305   0.0000       0.885185        24.0871 
 306   0.0000       0.888854        24.1869 
 307   0.0000       0.892222        24.2786 
 308   0.0000       0.897535        24.4232 
 309   0.0000       0.902419        24.5561 
 310   0.0000       0.909628        24.7522 
 311   0.0000       0.919316        25.0159 
 312   0.0000       0.923959        25.1422 
 313   0.0000       0.925376        25.1808 
 314   0.0000       0.931029        25.3346 
 315   0.0000       0.932500        25.3746 
 316   0.0000       0.935347        25.4521 
 317   0.0000       0.940440        25.5907 
 318   0.0000       0.946190        25.7471 
 319   0.0000       0.952141        25.9091 
 320   0.0000       0.952383        25.9156 
 321   0.0000       0.957402        26.0522 
 322   0.0000       0.961720        26.1697 
 323   0.0000       0.974041        26.5050 
 324   0.0000       0.975320        26.5398 
 325   0.0000       0.980089        26.6696 
 326   0.0000       0.980320        26.6759 
 327   0.0000       0.984622        26.7929 
 328   0.0000       0.988570        26.9004 
 329   0.0000       0.990854        26.9625 
 330   0.0000       0.997820        27.1521 
 331   0.0000       1.003439        27.3050 
 332   0.0000       1.006300        27.3828 
 333   0.0000       1.014324        27.6012 
 334   0.0000       1.019128        27.7319 
 335   0.0000       1.023278        27.8448 
 336   0.0000       1.044622        28.4256 
 337   0.0000       1.048403        28.5285 
 338   0.0000       1.058116        28.7928 
 339   0.0000       1.060234        28.8504 
 340   0.0000       1.064288        28.9608 
 341   0.0000       1.082231        29.4490 
 342   0.0000       1.083559        29.4852 
 343   0.0000       1.086689        29.5703 
 344   0.0000       1.088927        29.6312 
 345   0.0000       1.089861        29.6566 
 346   0.0000       1.092710        29.7341 
 347   0.0000       1.099184        29.9103 
 348   0.0000       1.103462        30.0267 
 349   0.0000       1.110983        30.2314 
 350   0.0000       1.113295        30.2943 
 351   0.0000       1.127371        30.6773 
 352   0.0000       1.135136        30.8886 
 353   0.0000       1.135636        30.9022 
 354   0.0000       1.146885        31.2083 
 355   0.0000       1.156729        31.4762 
 356   0.0000       1.162146        31.6236 
 357   0.0000       1.170884        31.8614 
 358   0.0000       1.175523        31.9876 
 359   0.0000       1.178614        32.0717 
 360   0.0000       1.178947        32.0808 
 361   0.0000       1.185796        32.2671 
 362   0.0000       1.186513        32.2867 
 363   0.0000       1.199890        32.6507 
 364   0.0000       1.205124        32.7931 
 365   0.0000       1.222845        33.2753 
 366   0.0000       1.225686        33.3526 
 367   0.0000       1.226559        33.3764 
 368   0.0000       1.229296        33.4509 
 369   0.0000       1.237988        33.6874 
 370   0.0000       1.243956        33.8498 
 371   0.0000       1.270786        34.5799 
 372   0.0000       1.273903        34.6647 
 373   0.0000       1.279735        34.8234 
 374   0.0000       1.280007        34.8308 
 375   0.0000       1.298671        35.3386 
 376   0.0000       1.301775        35.4231 
 377   0.0000       1.304279        35.4912 
 378   0.0000       1.307016        35.5657 
 379   0.0000       1.324413        36.0391 
 380   0.0000       1.327990        36.1364 
 381   0.0000       1.338863        36.4323 
 382   0.0000       1.341218        36.4964 
 383   0.0000       1.343045        36.5461 
 384   0.0000       1.349631        36.7253 
 385   0.0000       1.363642        37.1066 
 386   0.0000       1.370162        37.2840 
 387   0.0000       1.383188        37.6385 
 388   0.0000       1.391883        37.8751 
 389   0.0000       1.393495        37.9189 
 390   0.0000       1.394243        37.9393 
 391   0.0000       1.404748        38.2251 
 392   0.0000       1.416127        38.5348 
 393   0.0000       1.419353        38.6225 
 394   0.0000       1.423567        38.7372 
 395   0.0000       1.432454        38.9791 
 396   0.0000       1.434712        39.0405 
 397   0.0000       1.436327        39.0845 
 398   0.0000       1.442309        39.2472 
 399   0.0000       1.451865        39.5073 
 400   0.0000       1.464600        39.8538 
 401   0.0000       1.469652        39.9913 
 402   0.0000       1.485347        40.4183 
 403   0.0000       1.494054        40.6553 
 404   0.0000       1.499462        40.8024 
 405   0.0000       1.504151        40.9300 
 406   0.0000       1.504583        40.9418 
 407   0.0000       1.505981        40.9798 
 408   0.0000       1.510533        41.1037 
 409   0.0000       1.511973        41.1429 
 410   0.0000       1.519528        41.3484 
 411   0.0000       1.536675        41.8150 
 412   0.0000       1.550816        42.1998 
 413   0.0000       1.551403        42.2158 
 414   0.0000       1.560473        42.4626 
 415   0.0000       1.567263        42.6474 
 416   0.0000       1.570185        42.7269 
 417   0.0000       1.570371        42.7320 
 418   0.0000       1.571367        42.7591 
 419   0.0000       1.585500        43.1436 
 420   0.0000       1.585668        43.1482 
 421   0.0000       1.585727        43.1498 
 422   0.0000       1.586295        43.1653 
 423   0.0000       1.594945        43.4006 
 424   0.0000       1.602092        43.5951 
 425   0.0000       1.603132        43.6234 
 426   0.0000       1.606766        43.7223 
 427   0.0000       1.614140        43.9230 
 428   0.0000       1.637508        44.5589 
 429   0.0000       1.638883        44.5963 
 430   0.0000       1.640097        44.6293 
 431   0.0000       1.640295        44.6347 
 432   0.0000       1.647120        44.8204 
 433   0.0000       1.655561        45.0501 
 434   0.0000       1.658352        45.1261 
 435   0.0000       1.664027        45.2805 
 436   0.0000       1.683176        45.8016 
 437   0.0000       1.689068        45.9619 
 438   0.0000       1.689508        45.9738 
 439   0.0000       1.689743        45.9802 
 440   0.0000       1.691556        46.0296 
 441   0.0000       1.691853        46.0377 
 442   0.0000       1.695243        46.1299 
 443   0.0000       1.699121        46.2354 
 444   0.0000       1.701436        46.2984 
 445   0.0000       1.710000        46.5315 
 446   0.0000       1.711647        46.5763 
 447   0.0000       1.715365        46.6775 
 448   0.0000       1.721115        46.8339 
 449   0.0000       1.723529        46.8996 
 450   0.0000       1.728588        47.0373 
 451   0.0000       1.739382        47.3310 
 452   0.0000       1.747311        47.5468 
 453   0.0000       1.748052        47.5669 
 454   0.0000       1.758220        47.8436 
 455   0.0000       1.759636        47.8821 
 456   0.0000       1.767700        48.1016 
 457   0.0000       1.769360        48.1467 
 458   0.0000       1.776828        48.3499 
 459   0.0000       1.780274        48.4437 
 460   0.0000       1.793392        48.8007 
 461   0.0000       1.799898        48.9777 
 462   0.0000       1.803716        49.0816 
 463   0.0000       1.811669        49.2980 
 464   0.0000       1.817224        49.4492 
 465   0.0000       1.820301        49.5329 
 466   0.0000       1.826028        49.6887 
 467   0.0000       1.828096        49.7450 
 468   0.0000       1.836285        49.9678 
 469   0.0000       1.849807        50.3358 
 470   0.0000       1.850024        50.3417 
 471   0.0000       1.856844        50.5273 
 472   0.0000       1.860136        50.6169 
 473   0.0000       1.870931        50.9106 
 474   0.0000       1.880430        51.1691 
 475   0.0000       1.883638        51.2564 
 476   0.0000       1.892675        51.5023 
 477   0.0000       1.893584        51.5270 
 478   0.0000       1.903602        51.7997 
 479   0.0000       1.904477        51.8235 
 480   0.0000       1.906046        51.8662 
 481   0.0000       1.907316        51.9007 
 482   0.0000       1.916293        52.1450 
 483   0.0000       1.928066        52.4653 
 484   0.0000       1.931385        52.5557 
 485   0.0000       1.933865        52.6231 
 486   0.0000       1.941690        52.8361 
 487   0.0000       1.949815        53.0572 
 488   0.0000       1.957076        53.2548 
 489   0.0000       1.961031        53.3624 
 490   0.0000       1.968137        53.5557 
 491   0.0000       1.977294        53.8049 
 492   0.0000       1.997187        54.3462 
 493   0.0000       1.998465        54.3810 
 494   0.0000       2.001668        54.4682 
 495   0.0000       2.026228        55.1365 
 496   0.0000       2.035210        55.3809 
 497   0.0000       2.039377        55.4943 
 498   0.0000       2.043676        55.6113 
 499   0.0000       2.053591        55.8811 
 500   0.0000       2.056282        55.9543 
 501   0.0000       2.066688        56.2374 
 502   0.0000       2.067908        56.2706 
 503   0.0000       2.073849        56.4323 
 504   0.0000       2.087153        56.7943 
 505   0.0000       2.088476        56.8303 
 506   0.0000       2.095673        57.0262 
 507   0.0000       2.113613        57.5143 
 508   0.0000       2.118168        57.6383 
 509   0.0000       2.118321        57.6424 
 510   0.0000       2.151434        58.5435 
 511   0.0000       2.159680        58.7679 
 512   0.0000       2.163044        58.8594 
 513   0.0000       2.177683        59.2578 
 514   0.0000       2.192766        59.6682 
 515   0.0000       2.193271        59.6819 
 516   0.0000       2.195672        59.7473 
 517   0.0000       2.196891        59.7804 
 518   0.0000       2.205085        60.0034 
 519   0.0000       2.213758        60.2394 
 520   0.0000       2.218448        60.3670 
 521   0.0000       2.221992        60.4635 
 522   0.0000       2.231184        60.7136 
 523   0.0000       2.238757        60.9197 
 524   0.0000       2.250273        61.2330 
 525   0.0000       2.256277        61.3964 
 526   0.0000       2.268446        61.7276 
 527   0.0000       2.270207        61.7755 
 528   0.0000       2.276500        61.9467 
 529   0.0000       2.292599        62.3848 
 530   0.0000       2.296342        62.4867 
 531   0.0000       2.298134        62.5354 
 532   0.0000       2.300804        62.6081 
 533   0.0000       2.316400        63.0324 
 534   0.0000       2.326958        63.3198 
 535   0.0000       2.336089        63.5682 
 536   0.0000       2.337609        63.6096 
 537   0.0000       2.339311        63.6559 
 538   0.0000       2.348507        63.9061 
 539   0.0000       2.355064        64.0846 
 540   0.0000       2.356894        64.1344 
 541   0.0000       2.378004        64.7088 
 542   0.0000       2.381215        64.7962 
 543   0.0000       2.385800        64.9209 
 544   0.0000       2.391719        65.0820 
 545   0.0000       2.403428        65.4006 
 546   0.0000       2.405100        65.4461 
 547   0.0000       2.411010        65.6069 
 548   0.0000       2.415244        65.7221 
 549   0.0000       2.416369        65.7528 
 550   0.0000       2.420651        65.8693 
 551   0.0000       2.438324        66.3502 
 552   0.0000       2.440116        66.3989 
 553   0.0000       2.445613        66.5485 
 554   0.0000       2.450655        66.6857 
 555   0.0000       2.455467        66.8166 
 556   0.0000       2.457997        66.8855 
 557   0.0000       2.458682        66.9041 
 558   0.0000       2.476606        67.3919 
 559   0.0000       2.477590        67.4187 
 560   0.0000       2.482507        67.5525 
 561   0.0000       2.489407        67.7402 
 562   0.0000       2.495737        67.9125 
 563   0.0000       2.498491        67.9874 
 564   0.0000       2.514511        68.4233 
 565   0.0000       2.526910        68.7607 
 566   0.0000       2.528865        68.8139 
 567   0.0000       2.536370        69.0181 
 568   0.0000       2.537765        69.0561 
 569   0.0000       2.540992        69.1439 
 570   0.0000       2.542675        69.1897 
 571   0.0000       2.544872        69.2495 
 572   0.0000       2.554120        69.5011 
 573   0.0000       2.560255        69.6681 
 574   0.0000       2.576186        70.1016 
 575   0.0000       2.595197        70.6189 
 576   0.0000       2.598980        70.7218 
 577   0.0000       2.610392        71.0324 
 578   0.0000       2.614795        71.1522 
 579   0.0000       2.624454        71.4150 
 580   0.0000       2.640642        71.8555 
 581   0.0000       2.643404        71.9307 
 582   0.0000       2.656253        72.2803 
 583   0.0000       2.661749        72.4299 
 584   0.0000       2.667936        72.5982 
[...]
   107a -> 109a  :     0.495800 

STATE  6:  E=   0.135575 au      3.689 eV    29755.3 cm**-1 <S**2> =   0.000000
   103a -> 108a  :     0.404506 
   104a -> 108a  :     0.016691 
   106a -> 108a  :     0.023694 
   107a -> 110a  :     0.521710 

STATE  7:  E=   0.154413 au      4.202 eV    33889.8 cm**-1 <S**2> =   0.000000
   104a -> 108a  :     0.031144 
   104a -> 112a  :     0.022282 
   106a -> 108a  :     0.109508 
   107a -> 109a  :     0.030551 
   107a -> 110a  :     0.037209 
   107a -> 111a  :     0.737199 

STATE  8:  E=   0.137308 au      3.736 eV    30135.6 cm**-1 <S**2> =   0.000000
   103a -> 108a  :     0.022578 
   104a -> 108a  :     0.440332 
   104a -> 114a  :     0.011522 
   107a -> 109a  :     0.421567 
   107a -> 111a  :     0.052172 

STATE  9:  E=   0.143084 au      3.894 eV    31403.2 cm**-1 <S**2> =   0.000000
    97a -> 113a  :     0.045193 
    98a -> 110a  :     0.044767 
    98a -> 124a  :     0.014671 
    99a -> 108a  :     0.024350 
    99a -> 109a  :     0.183867 
    99a -> 117a  :     0.037825 
   100a -> 108a  :     0.512588 
   100a -> 114a  :     0.075607 

STATE 10:  E=   0.143195 au      3.897 eV    31427.6 cm**-1 <S**2> =   0.000000
    97a -> 110a  :     0.047944 
    97a -> 124a  :     0.015775 
    98a -> 113a  :     0.042292 
    99a -> 108a  :     0.512268 
    99a -> 114a  :     0.075343 
   100a -> 108a  :     0.024367 
   100a -> 109a  :     0.184023 
   100a -> 117a  :     0.037870 

STATE 11:  E=   0.159763 au      4.347 eV    35063.9 cm**-1 <S**2> =   0.000000
    97a -> 109a  :     0.161896 
    97a -> 117a  :     0.027128 
    98a -> 108a  :     0.491835 
    98a -> 114a  :     0.052450 
    99a -> 113a  :     0.074229 
   100a -> 110a  :     0.085566 
   100a -> 124a  :     0.024958 
   102a -> 108a  :     0.016427 

STATE 12:  E=   0.160876 au      4.378 eV    35308.2 cm**-1 <S**2> =   0.000000
    97a -> 108a  :     0.483024 
    97a -> 114a  :     0.063436 
    98a -> 109a  :     0.168595 
    98a -> 117a  :     0.027155 
    99a -> 110a  :     0.094823 
    99a -> 124a  :     0.026928 
   100a -> 113a  :     0.080880 

STATE 13:  E=   0.162004 au      4.408 eV    35555.7 cm**-1 <S**2> =   0.000000
    96a -> 108a  :     0.036692 
    98a -> 108a  :     0.016624 
   101a -> 109a  :     0.049044 
   102a -> 108a  :     0.425213 
   102a -> 114a  :     0.014976 
   103a -> 109a  :     0.049652 
   104a -> 110a  :     0.027923 
   104a -> 111a  :     0.032473 
   105a -> 108a  :     0.024865 
   107a -> 112a  :     0.246518 
   107a -> 113a  :     0.034773 

STATE 14:  E=   0.158451 au      4.312 eV    34775.9 cm**-1 <S**2> =   0.000000
   101a -> 108a  :     0.826483 
   101a -> 114a  :     0.013682 
   102a -> 109a  :     0.104984 

STATE 15:  E=   0.176191 au      4.794 eV    38669.5 cm**-1 <S**2> =   0.000000
   101a -> 109a  :     0.025484 
   102a -> 108a  :     0.350300 
   104a -> 110a  :     0.033103 
   104a -> 111a  :     0.020764 
   105a -> 108a  :     0.074864 
   106a -> 109a  :     0.039063 
   107a -> 112a  :     0.384899 
   107a -> 113a  :     0.034902 

STATE 16:  E=   0.189250 au      5.150 eV    41535.5 cm**-1 <S**2> =   0.000000
    95a -> 108a  :     0.080729 
    96a -> 112a  :     0.012565 
   103a -> 111a  :     0.116532 
   105a -> 113a  :     0.051245 
   106a -> 110a  :     0.644219 
   107a -> 114a  :     0.029809 

STATE 17:  E=   0.199854 au      5.438 eV    43862.9 cm**-1 <S**2> =   0.000000
    96a -> 108a  :     0.088898 
   101a -> 109a  :     0.014501 
   102a -> 108a  :     0.016881 
   103a -> 109a  :     0.087217 
   104a -> 110a  :     0.195695 
   104a -> 111a  :     0.014868 
   105a -> 108a  :     0.041189 
   107a -> 112a  :     0.099378 
   107a -> 113a  :     0.387210 

STATE 18:  E=   0.204973 au      5.578 eV    44986.3 cm**-1 <S**2> =   0.000000
    95a -> 108a  :     0.071822 
   103a -> 110a  :     0.159002 
   103a -> 111a  :     0.011054 
   104a -> 109a  :     0.043233 
   104a -> 117a  :     0.010328 
   105a -> 112a  :     0.044294 
   106a -> 110a  :     0.029803 
   106a -> 111a  :     0.183404 
   107a -> 114a  :     0.389891 

STATE 19:  E=   0.205659 au      5.596 eV    45136.8 cm**-1 <S**2> =   0.000000
    95a -> 108a  :     0.029091 
    96a -> 113a  :     0.013500 
   103a -> 109a  :     0.011200 
   103a -> 110a  :     0.145205 
   103a -> 111a  :     0.042149 
   104a -> 109a  :     0.277901 
   105a -> 112a  :     0.070646 
   106a -> 111a  :     0.202244 
   107a -> 108a  :     0.014075 
   107a -> 114a  :     0.150074 

STATE 20:  E=   0.197080 au      5.363 eV    43254.1 cm**-1 <S**2> =   0.000000
    93a -> 108a  :     0.028119 
    96a -> 111a  :     0.011610 
   103a -> 112a  :     0.043673 
   105a -> 110a  :     0.784851 
   106a -> 113a  :     0.077711 
   107a -> 109a  :     0.010693 

STATE 21:  E=   0.193754 au      5.272 eV    42524.1 cm**-1 <S**2> =   0.000000
    94a -> 108a  :     0.011035 
    96a -> 108a  :     0.209465 
   101a -> 109a  :     0.010929 
   103a -> 109a  :     0.152943 
   104a -> 110a  :     0.035395 
   105a -> 114a  :     0.010870 
   106a -> 109a  :     0.398879 
   107a -> 112a  :     0.010007 
   107a -> 113a  :     0.115188 

STATE 22:  E=   0.197443 au      5.373 eV    43333.6 cm**-1 <S**2> =   0.000000
    91a -> 109a  :     0.042338 
    94a -> 108a  :     0.862486 
   106a -> 109a  :     0.022071 

STATE 23:  E=   0.193672 au      5.270 eV    42506.1 cm**-1 <S**2> =   0.000000
    94a -> 108a  :     0.011961 
    96a -> 108a  :     0.145433 
   101a -> 109a  :     0.016724 
   102a -> 108a  :     0.041904 
   103a -> 109a  :     0.146514 
   104a -> 110a  :     0.097283 
   105a -> 108a  :     0.019076 
   105a -> 114a  :     0.016802 
   106a -> 109a  :     0.399514 
   107a -> 112a  :     0.051567 
   107a -> 113a  :     0.020137 

STATE 24:  E=   0.219805 au      5.981 eV    48241.6 cm**-1 <S**2> =   0.000000
   104a -> 108a  :     0.021548 
   105a -> 109a  :     0.180520 
   105a -> 111a  :     0.485826 
   106a -> 112a  :     0.181433 
   107a -> 117a  :     0.033264 

STATE 25:  E=   0.204919 au      5.576 eV    44974.5 cm**-1 <S**2> =   0.000000
   105a -> 109a  :     0.702631 
   105a -> 111a  :     0.126344 
   106a -> 108a  :     0.031213 
   106a -> 112a  :     0.046050 
   106a -> 114a  :     0.021470 

STATE 26:  E=   0.208891 au      5.684 eV    45846.2 cm**-1 <S**2> =   0.000000
    95a -> 108a  :     0.034343 
    96a -> 113a  :     0.010934 
   103a -> 110a  :     0.551577 
   104a -> 110a  :     0.020397 
   105a -> 112a  :     0.057680 
   106a -> 111a  :     0.249909 
   107a -> 114a  :     0.030006 

STATE 27:  E=   0.196989 au      5.360 eV    43234.1 cm**-1 <S**2> =   0.000000
    96a -> 108a  :     0.283515 
   103a -> 109a  :     0.208446 
   103a -> 110a  :     0.010514 
   104a -> 110a  :     0.245918 
   106a -> 109a  :     0.024014 
   107a -> 113a  :     0.165850 

STATE 28:  E=   0.203917 au      5.549 eV    44754.6 cm**-1 <S**2> =   0.000000
    82a -> 109a  :     0.012099 
    83a -> 110a  :     0.011483 
    92a -> 108a  :     0.473909 
    95a -> 108a  :     0.048983 
    97a -> 109a  :     0.012238 
    97a -> 117a  :     0.016683 
    98a -> 108a  :     0.163133 
    98a -> 114a  :     0.033322 
    99a -> 113a  :     0.036310 
   100a -> 110a  :     0.055656 
   100a -> 124a  :     0.011877 
   103a -> 111a  :     0.015090 
   106a -> 110a  :     0.026862 
   107a -> 114a  :     0.010799 

STATE 29:  E=   0.203320 au      5.533 eV    44623.6 cm**-1 <S**2> =   0.000000
    92a -> 108a  :     0.070941 
    95a -> 108a  :     0.303641 
    98a -> 108a  :     0.020512 
   103a -> 111a  :     0.127098 
   104a -> 109a  :     0.087940 
   106a -> 110a  :     0.182679 
   106a -> 111a  :     0.053467 
   107a -> 114a  :     0.073562 

STATE 30:  E=   0.214571 au      5.839 eV    47092.9 cm**-1 <S**2> =   0.000000
    95a -> 108a  :     0.015400 
    96a -> 112a  :     0.012304 
   103a -> 111a  :     0.464830 
   104a -> 109a  :     0.069921 
   104a -> 111a  :     0.037985 
   104a -> 117a  :     0.013352 
   105a -> 112a  :     0.023663 
   106a -> 110a  :     0.034759 
   106a -> 111a  :     0.052876 
   107a -> 114a  :     0.241715 


-------------------------
TD-DFT-EXCITATION SPECTRA
-------------------------

Center of mass = ( -0.0000, -0.0000,  0.0001)
Calculating the Dipole integrals                  ... done
Transforming integrals                            ... done
Calculating the Linear Momentum integrals         ... done
Transforming integrals                            ... done
Calculating angular momentum integrals            ... done
Transforming integrals                            ... done

-----------------------------------------------------------------------------
         ABSORPTION SPECTRUM VIA TRANSITION ELECTRIC DIPOLE MOMENTS
-----------------------------------------------------------------------------
State   Energy    Wavelength  fosc         T2        TX        TY        TZ  
        (cm-1)      (nm)                 (au**2)    (au)      (au)      (au) 
-----------------------------------------------------------------------------
   1   19197.0    520.9   0.970970297  16.65134   4.08060  -0.00457  -0.00011
   2   27529.1    363.3   0.000086768   0.00104   0.00000  -0.00005  -0.03221
   3   30175.6    331.4   0.000147080   0.00160   0.00000   0.00009  -0.04006
   4   29143.4    343.1   0.194232309   2.19410   0.00096  -1.48125  -0.00008
   5   31964.1    312.9   0.000000464   0.00000   0.00001   0.00007  -0.00218
   6   29755.3    336.1   0.000000172   0.00000  -0.00002   0.00004   0.00138
   7   33889.8    295.1   0.000449911   0.00437   0.00006   0.00004  -0.06611
   8   30135.6    331.8   0.000028014   0.00031  -0.00000  -0.00001   0.01749
   9   31403.2    318.4   0.000298820   0.00313  -0.00080   0.00028   0.05596
  10   31427.6    318.2   0.000016147   0.00017  -0.00368   0.00147  -0.01239
  11   35063.9    285.2   0.000058343   0.00055  -0.01189  -0.02016  -0.00004
  12   35308.2    283.2   0.000000366   0.00000   0.00003   0.00035   0.00181
  13   35555.7    281.2   0.010294284   0.09532  -0.00163  -0.30873  -0.00010
  14   34775.9    287.6   0.000565372   0.00535   0.00002   0.00053  -0.07316
  15   38669.5    258.6   1.034894996   8.81055  -0.01506   2.96822   0.00003
  16   41535.5    240.8   0.004500968   0.03567   0.17256   0.07680   0.00008
  17   43862.9    228.0   0.094351989   0.70816   0.01042  -0.84146  -0.00017
  18   44986.3    222.3   0.113438387   0.83015  -0.91077  -0.02554  -0.00020
  19   45136.8    221.5   0.022935784   0.16729  -0.40841  -0.02208  -0.00014
  20   43254.1    231.2   0.000000013   0.00000  -0.00004   0.00002  -0.00031
  21   42524.1    235.2   0.157435789   1.21883  -0.03488  -1.10346  -0.00008
  22   43333.6    230.8   0.021835511   0.16589  -0.00445  -0.40727  -0.00001
  23   42506.1    235.3   0.243942310   1.88935  -0.04891   1.37366  -0.00001
  24   48241.6    207.3   0.000056724   0.00039  -0.00128  -0.00001  -0.01963
  25   44974.5    222.3   0.000236917   0.00173   0.00184   0.00017  -0.04160
  26   45846.2    218.1   2.441353222  17.53084   4.18694   0.01958  -0.00008
  27   43234.1    231.3   0.023510737   0.17903  -0.01040   0.42299  -0.00004
  28   44754.6    223.4   0.020066138   0.14761  -0.38419   0.00162  -0.00000
  29   44623.6    224.1   0.046949098   0.34637  -0.58847  -0.00817  -0.00002
  30   47092.9    212.3   0.042075050   0.29413  -0.53761   0.07148  -0.00006

-----------------------------------------------------------------------------
         ABSORPTION SPECTRUM VIA TRANSITION VELOCITY DIPOLE MOMENTS
-----------------------------------------------------------------------------
State   Energy    Wavelength   fosc        P2         PX        PY        PZ  
        (cm-1)      (nm)                 (au**2)     (au)      (au)      (au) 
-----------------------------------------------------------------------------
   1   19197.0    520.9   1.156131456   0.15169  -0.38947   0.00048   0.00001
   2   27529.1    363.3   0.000110727   0.00002  -0.00000   0.00001   0.00456
   3   30175.6    331.4   0.000176376   0.00004   0.00000  -0.00001   0.00603
   4   29143.4    343.1   0.251428029   0.05008  -0.00025   0.22378   0.00001
   5   31964.1    312.9   0.000000569   0.00000  -0.00000  -0.00001   0.00035
   6   29755.3    336.1   0.000000562   0.00000   0.00001  -0.00001  -0.00034
   7   33889.8    295.1   0.000606724   0.00014  -0.00001  -0.00001   0.01185
   8   30135.6    331.8   0.000047933   0.00001  -0.00000   0.00000  -0.00314
   9   31403.2    318.4   0.000514634   0.00011   0.00016  -0.00006  -0.01051
  10   31427.6    318.2   0.000028080   0.00001   0.00072  -0.00032   0.00233
  11   35063.9    285.2   0.000121085   0.00003   0.00228   0.00488   0.00000
  12   35308.2    283.2   0.000001886   0.00000  -0.00001  -0.00008  -0.00067
  13   35555.7    281.2   0.017921265   0.00435  -0.00019   0.06599   0.00002
  14   34775.9    287.6   0.000940575   0.00022  -0.00001  -0.00011   0.01495
  15   38669.5    258.6   1.452752883   0.38394   0.00254  -0.61963  -0.00001
  16   41535.5    240.8   0.005963877   0.00169  -0.03775  -0.01636  -0.00002
  17   43862.9    228.0   0.114033214   0.03419  -0.00267   0.18487   0.00004
  18   44986.3    222.3   0.134355922   0.04131   0.20318   0.00522   0.00004
  19   45136.8    221.5   0.026154431   0.00807   0.08969   0.00487   0.00004
  20   43254.1    231.2   0.000000024   0.00000   0.00001  -0.00000   0.00008
  21   42524.1    235.2   0.225153473   0.06544   0.00825   0.25567   0.00001
  22   43333.6    230.8   0.030281907   0.00897   0.00105   0.09470   0.00000
  23   42506.1    235.3   0.353407230   0.10267   0.01146  -0.32021  -0.00000
  24   48241.6    207.3   0.000064977   0.00002   0.00030   0.00000   0.00462
  25   44974.5    222.3   0.000315996   0.00010  -0.00043  -0.00004   0.00985
  26   45846.2    218.1   3.118767186   0.97722  -0.98853  -0.00510   0.00003
  27   43234.1    231.3   0.035314013   0.01043   0.00264  -0.10212   0.00001
  28   44754.6    223.4   0.029602343   0.00905   0.09516  -0.00034   0.00000
  29   44623.6    224.1   0.071746222   0.02188   0.14791   0.00205   0.00001
  30   47092.9    212.3   0.062404674   0.02009   0.14053  -0.01838   0.00003

-------------------------------------------------------------------
                             CD SPECTRUM
-------------------------------------------------------------------
State  Energy     Wavelength     R         MX        MY        MZ   
       (cm-1)       (nm)     (1e40*cgs)   (au)      (au)      (au)  
-------------------------------------------------------------------
   1   19197.0    520.9     12.47753   0.00649   0.00080   0.00001
   2   27529.1    363.3      9.82029  -0.00000   0.00003  -0.64665
   3   30175.6    331.4    -25.54513   0.00002  -0.00005   1.35265
   4   29143.4    343.1     -0.19220   0.00028   0.00028   0.00010
   5   31964.1    312.9     -0.00902  -0.00004  -0.00012   0.00876
   6   29755.3    336.1      0.15558   0.00004  -0.00003   0.23934
   7   33889.8    295.1     40.72769  -0.00003   0.00004  -1.30673
   8   30135.6    331.8      2.85279   0.00002  -0.00007   0.34590
   9   31403.2    318.4      0.61605  -0.00611  -0.10429   0.02379
  10   31427.6    318.2     -0.24980  -0.02740  -0.47086  -0.00497
  11   35063.9    285.2      1.78526  -0.32655   0.00478  -0.00031
  12   35308.2    283.2      0.03168  -0.00060   0.00009   0.03704
  13   35555.7    281.2      5.20473   0.05960  -0.03607   0.00003
  14   34775.9    287.6     61.06325   0.00003  -0.00013  -1.77047
  15   38669.5    258.6    -87.37229   0.00338  -0.06242   0.00033
  16   41535.5    240.8     -0.97602  -0.01083  -0.00263  -0.00000
  17   43862.9    228.0    -13.34147  -0.00111   0.03362   0.00003
  18   44986.3    222.3      4.05411  -0.00943  -0.00040  -0.00002
  19   45136.8    221.5     -1.88463   0.00968   0.00196  -0.00001
  20   43254.1    231.2     -0.00026   0.00000  -0.00003   0.00172
  21   42524.1    235.2     -1.68305  -0.00031   0.00324  -0.00000
  22   43333.6    230.8     -8.60539   0.00242   0.04479   0.00006
  23   42506.1    235.3    -10.18542  -0.00057  -0.01575   0.00004
  24   48241.6    207.3      0.18797   0.00007   0.00008  -0.02031
  25   44974.5    222.3      0.47397  -0.00002  -0.00008  -0.02417
  26   45846.2    218.1     31.21142   0.01582  -0.00160   0.00001
  27   43234.1    231.3     -0.71777  -0.00254  -0.00366   0.00001
  28   44754.6    223.4    -24.25052   0.13391   0.00489   0.00001
  29   44623.6    224.1     14.29319  -0.05152  -0.00002   0.00000
  30   47092.9    212.3      2.73145  -0.01073   0.00034   0.00003

Total run time:    44362.905 sec

           *** ORCA-CIS/TD-DFT FINISHED WITHOUT ERROR ***

Maximum memory used throughout the entire CIS-calculation: 5438.9 MB

-----------------------
CIS/TD-DFT TOTAL ENERGY
-----------------------

    E(SCF)  =  -1406.695845532 Eh
    DE(CIS) =      0.087467754 Eh (Root  1)
    ----------------------------- ---------
    E(tot)  =  -1406.608377777 Eh


-------------------------   --------------------
FINAL SINGLE POINT ENERGY     -1406.608377777312
-------------------------   --------------------


                            ***************************************
                            *     ORCA property calculations      *
                            ***************************************


  WARNING: The energy has been calculated at the MP2 level but the densities
           used in the property calculations are still SCF densities
           MP2 response densities have not been calculated 
           use %mp2 Density relaxed end
           or  %mp2 Density unrelaxed end

                                    ---------------------
                                    Active property flags
                                    ---------------------
   (+) Dipole Moment


------------------------------------------------------------------------------
                       ORCA ELECTRIC PROPERTIES CALCULATION
------------------------------------------------------------------------------

Dipole Moment Calculation                       ... on
Quadrupole Moment Calculation                   ... off
Polarizability Calculation                      ... off
GBWName                                         ... PDI_1_M06L_def2TZVP_coords.gbw
Electron density                                ... PDI_1_M06L_def2TZVP_coords.scfp
The origin for moment calculation is the CENTER OF MASS  = (-0.000000, -0.000000  0.000137)

-------------
DIPOLE MOMENT
-------------
                                X             Y             Z
Electronic contribution:      0.00010      -0.00012       0.01837
Nuclear contribution   :      0.00001       0.00005      -0.02957
                        -----------------------------------------
Total Dipole Moment    :      0.00011      -0.00006      -0.01120
                        -----------------------------------------
Magnitude (a.u.)       :      0.01120
Magnitude (Debye)      :      0.02847



--------------------
Rotational spectrum 
--------------------
 
Rotational constants in cm-1:     0.013982     0.002362     0.002023 
Rotational constants in MHz :   419.179379    70.800426    60.635339 

 Dipole components along the rotational axes: 
x,y,z [a.u.] :     0.000115     0.000064    -0.011198 
x,y,z [Debye]:     0.000292     0.000164    -0.028463 

 

Timings for individual modules:

Sum of individual times         ...    46315.874 sec (= 771.931 min)
GTO integral calculation        ...        2.636 sec (=   0.044 min)   0.0 %
SCF iterations                  ...      725.577 sec (=  12.093 min)   1.6 %
MP2 module                      ...     1223.895 sec (=  20.398 min)   2.6 %
CIS module                      ...    44363.767 sec (= 739.396 min)  95.8 %
                             ****ORCA TERMINATED NORMALLY****
TOTAL RUN TIME: 0 days 12 hours 51 minutes 59 seconds 350 msec
