 Entering Gaussian System, Link 0=g09
 Input=/home/png4rjv/fotokatalizis/benchmark/OPCs/PDI_1_wB97XD_def2TZVP.gjf
 Output=/home/png4rjv/fotokatalizis/benchmark/OPCs/PDI_1_wB97XD_def2TZVP.log
 Initial command:
 /opt/nce/packages/global/g09/l1.exe "/home/png4rjv/fotokatalizis/benchmark/OPCs/PDI_1_wB97XD_def2TZVP/Gau-30379.inp" -scrdir="/home/png4rjv/fotokatalizis/benchmark/OPCs/PDI_1_wB97XD_def2TZVP/"
 Default is to use a total of  12 processors:
                               12 via shared-memory
                                1 via Linda
 Entering Link 1 = /opt/nce/packages/global/g09/l1.exe PID=     30380.
  
 Copyright (c) 1988,1990,1992,1993,1995,1998,2003,2009,2015,
            Gaussian, Inc.  All Rights Reserved.
  
 This is part of the Gaussian(R) 09 program.  It is based on
 the Gaussian(R) 03 system (copyright 2003, Gaussian, Inc.),
 the Gaussian(R) 98 system (copyright 1998, Gaussian, Inc.),
 the Gaussian(R) 94 system (copyright 1995, Gaussian, Inc.),
 the Gaussian 92(TM) system (copyright 1992, Gaussian, Inc.),
 the Gaussian 90(TM) system (copyright 1990, Gaussian, Inc.),
 the Gaussian 88(TM) system (copyright 1988, Gaussian, Inc.),
 the Gaussian 86(TM) system (copyright 1986, Carnegie Mellon
 University), and the Gaussian 82(TM) system (copyright 1983,
 Carnegie Mellon University). Gaussian is a federally registered
 trademark of Gaussian, Inc.
  
 This software contains proprietary and confidential information,
 including trade secrets, belonging to Gaussian, Inc.
  
 This software is provided under written license and may be
 used, copied, transmitted, or stored only in accord with that
 written license.
  
 The following legend is applicable only to US Government
 contracts under FAR:
  
                    RESTRICTED RIGHTS LEGEND
  
 Use, reproduction and disclosure by the US Government is
 subject to restrictions as set forth in subparagraphs (a)
 and (c) of the Commercial Computer Software - Restricted
 Rights clause in FAR 52.227-19.
  
 Gaussian, Inc.
 340 Quinnipiac St., Bldg. 40, Wallingford CT 06492
  
  
 ---------------------------------------------------------------
 Warning -- This program may not be used in any manner that
 competes with the business of Gaussian, Inc. or will provide
 assistance to any competitor of Gaussian, Inc.  The licensee
 of this program is prohibited from giving any competitor of
 Gaussian, Inc. access to this program.  By using this program,
 the user acknowledges that Gaussian, Inc. is engaged in the
 business of creating and licensing software in the field of
 computational chemistry and represents and warrants to the
 licensee that it is not a competitor of Gaussian, Inc. and that
 it will not use this program in any manner prohibited above.
 ---------------------------------------------------------------
  

 Cite this work as:
 Gaussian 09, Revision E.01,
 M. J. Frisch, G. W. Trucks, H. B. Schlegel, G. E. Scuseria, 
 M. A. Robb, J. R. Cheeseman, G. Scalmani, V. Barone, B. Mennucci, 
 G. A. Petersson, H. Nakatsuji, M. Caricato, X. Li, H. P. Hratchian, 
 A. F. Izmaylov, J. Bloino, G. Zheng, J. L. Sonnenberg, M. Hada, 
 M. Ehara, K. Toyota, R. Fukuda, J. Hasegawa, M. Ishida, T. Nakajima, 
 Y. Honda, O. Kitao, H. Nakai, T. Vreven, J. A. Montgomery, Jr., 
 J. E. Peralta, F. Ogliaro, M. Bearpark, J. J. Heyd, E. Brothers, 
 K. N. Kudin, V. N. Staroverov, T. Keith, R. Kobayashi, J. Normand, 
 K. Raghavachari, A. Rendell, J. C. Burant, S. S. Iyengar, J. Tomasi, 
 M. Cossi, N. Rega, J. M. Millam, M. Klene, J. E. Knox, J. B. Cross, 
 V. Bakken, C. Adamo, J. Jaramillo, R. Gomperts, R. E. Stratmann, 
 O. Yazyev, A. J. Austin, R. Cammi, C. Pomelli, J. W. Ochterski, 
 R. L. Martin, K. Morokuma, V. G. Zakrzewski, G. A. Voth, 
 P. Salvador, J. J. Dannenberg, S. Dapprich, A. D. Daniels, 
 O. Farkas, J. B. Foresman, J. V. Ortiz, J. Cioslowski, 
 and D. J. Fox, Gaussian, Inc., Wallingford CT, 2013.
 
 ******************************************
 Gaussian 09:  ES64L-G09RevE.01 30-Nov-2015
                 2-Apr-2021 
 ******************************************
 %chk=cp.chk
 Default route:  MaxDisk=500GB
 ----------------------------------------------------------------------
 #p wB97XD/def2TZVP opt freq=noraman nosymm int=ultrafine scrf=(SMD,sol
 vent=Dichloromethane)
 ----------------------------------------------------------------------
 1/14=-1,18=20,19=15,26=4,38=1/1,3;
 2/9=110,12=2,15=1,17=6,18=5,40=1/2;
 3/5=44,7=101,11=2,16=1,25=1,30=1,70=32201,71=1,72=9,74=-58,75=-5/1,2,3;
 4//1;
 5/5=2,38=5,53=9/2;
 6/7=2,8=2,9=2,10=2,28=1/1;
 7/30=1/1,2,3,16;
 1/14=-1,18=20,19=15,26=4/3(2);
 2/9=110,15=1/2;
 99//99;
 2/9=110,15=1/2;
 3/5=44,7=101,11=2,16=1,25=1,30=1,70=32205,71=1,72=9,74=-58,75=-5/1,2,3;
 4/5=5,16=3,69=1/1;
 5/5=2,38=5,53=9/2;
 7/30=1/1,2,3,16;
 1/14=-1,18=20,19=15,26=4/3(-5);
 2/9=110,15=1/2;
 6/7=2,8=2,9=2,10=2,19=2,28=1/1;
 99/9=1/99;
 Leave Link    1 at Fri Apr  2 15:05:19 2021, MaxMem=           0 cpu:         1.9
 (Enter /opt/nce/packages/global/g09/l101.exe)
 -----
 Title
 -----
 Symbolic Z-matrix:
 Charge =  0 Multiplicity = 1
 C                     0.00132   1.476     2.43555 
 C                     0.00061   0.7324    1.25204 
 C                    -0.00146   1.43172   0.00275 
 C                    -0.00279   2.8618    0.00555 
 C                    -0.00201   3.57346   1.23089 
 C                     0.00005   2.87646   2.42921 
 H                     0.0029    0.96857   3.39915 
 C                    -0.00225   0.7374   -1.2495 
 C                    -0.00492   3.57681  -1.2175 
 H                     0.00063   3.44368   3.36116 
 C                    -0.00573   2.88562  -2.41882 
 C                    -0.00441   1.48512  -2.43045 
 H                    -0.0074    3.45704  -3.3483 
 H                    -0.00513   0.981    -3.39579 
 C                     0.0019   -0.73741   1.2493 
 C                     0.00121  -1.43172  -0.00294 
 C                     0.00381  -1.48513   2.43026 
 C                    -0.00076  -0.73241  -1.25224 
 C                     0.00255  -2.86181  -0.00574 
 C                     0.00513  -2.88562   2.41862 
 H                     0.00434  -0.981     3.3956 
 C                    -0.00119  -1.476    -2.43575 
 C                     0.00193  -3.57346  -1.23109 
 C                     0.00453  -3.57681   1.21732 
 H                     0.00666  -3.45704   3.34811 
 C                     0.00011  -2.87646  -2.4294 
 H                    -0.00257  -0.96857  -3.39935 
 H                    -0.00031  -3.44368  -3.36136 
 C                    -0.0034    5.05887   1.25658 
 O                    -0.00249   5.68818   2.29871 
 C                    -0.00632   5.06055  -1.23005 
 O                    -0.0084    5.70969  -2.26019 
 N                    -0.00529   5.70493   0.01208 
 C                     0.00315  -5.05887  -1.25679 
 O                     0.00283  -5.68819  -2.29892 
 C                     0.00607  -5.06055   1.22984 
 O                     0.00803  -5.70971   2.25997 
 N                     0.00526  -5.70492  -0.01229 
 C                    -0.0067    7.1665   -0.01856 
 H                     0.8798    7.53083  -0.55646 
 H                    -0.8966    7.52938  -0.55182 
 H                    -0.0043    7.52498   1.0148 
 C                     0.00692  -7.16649   0.01842 
 H                    -0.87969  -7.53098   0.55602 
 H                     0.00504  -7.525    -1.01492 
 H                     0.89667  -7.52917   0.55208 
 
 NAtoms=     46 NQM=       46 NQMF=       0 NMMI=      0 NMMIF=      0
                NMic=       0 NMicF=      0.
                    Isotopes and Nuclear Properties:
 (Nuclear quadrupole moments (NQMom) in fm**2, nuclear magnetic moments (NMagM)
  in nuclear magnetons)

  Atom         1           2           3           4           5           6           7           8           9          10
 IAtWgt=          12          12          12          12          12          12           1          12          12           1
 AtmWgt=  12.0000000  12.0000000  12.0000000  12.0000000  12.0000000  12.0000000   1.0078250  12.0000000  12.0000000   1.0078250
 NucSpn=           0           0           0           0           0           0           1           0           0           1
 AtZEff=   0.0000000   0.0000000   0.0000000   0.0000000   0.0000000   0.0000000   0.0000000   0.0000000   0.0000000   0.0000000
 NQMom=    0.0000000   0.0000000   0.0000000   0.0000000   0.0000000   0.0000000   0.0000000   0.0000000   0.0000000   0.0000000
 NMagM=    0.0000000   0.0000000   0.0000000   0.0000000   0.0000000   0.0000000   2.7928460   0.0000000   0.0000000   2.7928460
 AtZNuc=   6.0000000   6.0000000   6.0000000   6.0000000   6.0000000   6.0000000   1.0000000   6.0000000   6.0000000   1.0000000

  Atom        11          12          13          14          15          16          17          18          19          20
 IAtWgt=          12          12           1           1          12          12          12          12          12          12
 AtmWgt=  12.0000000  12.0000000   1.0078250   1.0078250  12.0000000  12.0000000  12.0000000  12.0000000  12.0000000  12.0000000
 NucSpn=           0           0           1           1           0           0           0           0           0           0
 AtZEff=   0.0000000   0.0000000   0.0000000   0.0000000   0.0000000   0.0000000   0.0000000   0.0000000   0.0000000   0.0000000
 NQMom=    0.0000000   0.0000000   0.0000000   0.0000000   0.0000000   0.0000000   0.0000000   0.0000000   0.0000000   0.0000000
 NMagM=    0.0000000   0.0000000   2.7928460   2.7928460   0.0000000   0.0000000   0.0000000   0.0000000   0.0000000   0.0000000
 AtZNuc=   6.0000000   6.0000000   1.0000000   1.0000000   6.0000000   6.0000000   6.0000000   6.0000000   6.0000000   6.0000000

  Atom        21          22          23          24          25          26          27          28          29          30
 IAtWgt=           1          12          12          12           1          12           1           1          12          16
 AtmWgt=   1.0078250  12.0000000  12.0000000  12.0000000   1.0078250  12.0000000   1.0078250   1.0078250  12.0000000  15.9949146
 NucSpn=           1           0           0           0           1           0           1           1           0           0
 AtZEff=   0.0000000   0.0000000   0.0000000   0.0000000   0.0000000   0.0000000   0.0000000   0.0000000   0.0000000   0.0000000
 NQMom=    0.0000000   0.0000000   0.0000000   0.0000000   0.0000000   0.0000000   0.0000000   0.0000000   0.0000000   0.0000000
 NMagM=    2.7928460   0.0000000   0.0000000   0.0000000   2.7928460   0.0000000   2.7928460   2.7928460   0.0000000   0.0000000
 AtZNuc=   1.0000000   6.0000000   6.0000000   6.0000000   1.0000000   6.0000000   1.0000000   1.0000000   6.0000000   8.0000000

  Atom        31          32          33          34          35          36          37          38          39          40
 IAtWgt=          12          16          14          12          16          12          16          14          12           1
 AtmWgt=  12.0000000  15.9949146  14.0030740  12.0000000  15.9949146  12.0000000  15.9949146  14.0030740  12.0000000   1.0078250
 NucSpn=           0           0           2           0           0           0           0           2           0           1
 AtZEff=   0.0000000   0.0000000   0.0000000   0.0000000   0.0000000   0.0000000   0.0000000   0.0000000   0.0000000   0.0000000
 NQMom=    0.0000000   0.0000000   2.0440000   0.0000000   0.0000000   0.0000000   0.0000000   2.0440000   0.0000000   0.0000000
 NMagM=    0.0000000   0.0000000   0.4037610   0.0000000   0.0000000   0.0000000   0.0000000   0.4037610   0.0000000   2.7928460
 AtZNuc=   6.0000000   8.0000000   7.0000000   6.0000000   8.0000000   6.0000000   8.0000000   7.0000000   6.0000000   1.0000000

  Atom        41          42          43          44          45          46
 IAtWgt=           1           1          12           1           1           1
 AtmWgt=   1.0078250   1.0078250  12.0000000   1.0078250   1.0078250   1.0078250
 NucSpn=           1           1           0           1           1           1
 AtZEff=   0.0000000   0.0000000   0.0000000   0.0000000   0.0000000   0.0000000
 NQMom=    0.0000000   0.0000000   0.0000000   0.0000000   0.0000000   0.0000000
 NMagM=    2.7928460   2.7928460   0.0000000   2.7928460   2.7928460   2.7928460
 AtZNuc=   1.0000000   1.0000000   6.0000000   1.0000000   1.0000000   1.0000000
 Leave Link  101 at Fri Apr  2 15:05:19 2021, MaxMem=  5242880000 cpu:         5.1
 (Enter /opt/nce/packages/global/g09/l103.exe)

 GradGradGradGradGradGradGradGradGradGradGradGradGradGradGradGradGradGrad
 Berny optimization.
 Initialization pass.
                           ----------------------------
                           !    Initial Parameters    !
                           ! (Angstroms and Degrees)  !
 --------------------------                            --------------------------
 ! Name  Definition              Value          Derivative Info.                !
 --------------------------------------------------------------------------------
 ! R1    R(1,2)                  1.3977         estimate D2E/DX2                !
 ! R2    R(1,6)                  1.4005         estimate D2E/DX2                !
 ! R3    R(1,7)                  1.089          estimate D2E/DX2                !
 ! R4    R(2,3)                  1.4317         estimate D2E/DX2                !
 ! R5    R(2,15)                 1.4698         estimate D2E/DX2                !
 ! R6    R(3,4)                  1.4301         estimate D2E/DX2                !
 ! R7    R(3,8)                  1.4318         estimate D2E/DX2                !
 ! R8    R(4,5)                  1.417          estimate D2E/DX2                !
 ! R9    R(4,9)                  1.4167         estimate D2E/DX2                !
 ! R10   R(5,6)                  1.3863         estimate D2E/DX2                !
 ! R11   R(5,29)                 1.4856         estimate D2E/DX2                !
 ! R12   R(6,10)                 1.091          estimate D2E/DX2                !
 ! R13   R(8,12)                 1.3978         estimate D2E/DX2                !
 ! R14   R(8,18)                 1.4698         estimate D2E/DX2                !
 ! R15   R(9,11)                 1.386          estimate D2E/DX2                !
 ! R16   R(9,31)                 1.4838         estimate D2E/DX2                !
 ! R17   R(11,12)                1.4005         estimate D2E/DX2                !
 ! R18   R(11,13)                1.0911         estimate D2E/DX2                !
 ! R19   R(12,14)                1.089          estimate D2E/DX2                !
 ! R20   R(15,16)                1.4318         estimate D2E/DX2                !
 ! R21   R(15,17)                1.3978         estimate D2E/DX2                !
 ! R22   R(16,18)                1.4317         estimate D2E/DX2                !
 ! R23   R(16,19)                1.4301         estimate D2E/DX2                !
 ! R24   R(17,20)                1.4005         estimate D2E/DX2                !
 ! R25   R(17,21)                1.089          estimate D2E/DX2                !
 ! R26   R(18,22)                1.3977         estimate D2E/DX2                !
 ! R27   R(19,23)                1.417          estimate D2E/DX2                !
 ! R28   R(19,24)                1.4167         estimate D2E/DX2                !
 ! R29   R(20,24)                1.386          estimate D2E/DX2                !
 ! R30   R(20,25)                1.0911         estimate D2E/DX2                !
 ! R31   R(22,26)                1.4005         estimate D2E/DX2                !
 ! R32   R(22,27)                1.089          estimate D2E/DX2                !
 ! R33   R(23,26)                1.3863         estimate D2E/DX2                !
 ! R34   R(23,34)                1.4856         estimate D2E/DX2                !
 ! R35   R(24,36)                1.4838         estimate D2E/DX2                !
 ! R36   R(26,28)                1.091          estimate D2E/DX2                !
 ! R37   R(29,30)                1.2174         estimate D2E/DX2                !
 ! R38   R(29,33)                1.4022         estimate D2E/DX2                !
 ! R39   R(31,32)                1.2176         estimate D2E/DX2                !
 ! R40   R(31,33)                1.3993         estimate D2E/DX2                !
 ! R41   R(33,39)                1.4619         estimate D2E/DX2                !
 ! R42   R(34,35)                1.2174         estimate D2E/DX2                !
 ! R43   R(34,38)                1.4022         estimate D2E/DX2                !
 ! R44   R(36,37)                1.2176         estimate D2E/DX2                !
 ! R45   R(36,38)                1.3993         estimate D2E/DX2                !
 ! R46   R(38,43)                1.4619         estimate D2E/DX2                !
 ! R47   R(39,40)                1.0991         estimate D2E/DX2                !
 ! R48   R(39,41)                1.0991         estimate D2E/DX2                !
 ! R49   R(39,42)                1.0938         estimate D2E/DX2                !
 ! R50   R(43,44)                1.0991         estimate D2E/DX2                !
 ! R51   R(43,45)                1.0938         estimate D2E/DX2                !
 ! R52   R(43,46)                1.0991         estimate D2E/DX2                !
 ! A1    A(2,1,6)              121.8818         estimate D2E/DX2                !
 ! A2    A(2,1,7)              120.0875         estimate D2E/DX2                !
 ! A3    A(6,1,7)              118.0306         estimate D2E/DX2                !
 ! A4    A(1,2,3)              118.62           estimate D2E/DX2                !
 ! A5    A(1,2,15)             122.2481         estimate D2E/DX2                !
 ! A6    A(3,2,15)             119.1318         estimate D2E/DX2                !
 ! A7    A(2,3,4)              119.1265         estimate D2E/DX2                !
 ! A8    A(2,3,8)              121.7551         estimate D2E/DX2                !
 ! A9    A(4,3,8)              119.1184         estimate D2E/DX2                !
 ! A10   A(3,4,5)              120.2593         estimate D2E/DX2                !
 ! A11   A(3,4,9)              120.1989         estimate D2E/DX2                !
 ! A12   A(5,4,9)              119.5418         estimate D2E/DX2                !
 ! A13   A(4,5,6)              119.6685         estimate D2E/DX2                !
 ! A14   A(4,5,29)             121.138          estimate D2E/DX2                !
 ! A15   A(6,5,29)             119.1935         estimate D2E/DX2                !
 ! A16   A(1,6,5)              120.4438         estimate D2E/DX2                !
 ! A17   A(1,6,10)             121.0671         estimate D2E/DX2                !
 ! A18   A(5,6,10)             118.4891         estimate D2E/DX2                !
 ! A19   A(3,8,12)             118.6537         estimate D2E/DX2                !
 ! A20   A(3,8,18)             119.1131         estimate D2E/DX2                !
 ! A21   A(12,8,18)            122.2332         estimate D2E/DX2                !
 ! A22   A(4,9,11)             119.7746         estimate D2E/DX2                !
 ! A23   A(4,9,31)             120.7955         estimate D2E/DX2                !
 ! A24   A(11,9,31)            119.4299         estimate D2E/DX2                !
 ! A25   A(9,11,12)            120.3903         estimate D2E/DX2                !
 ! A26   A(9,11,13)            118.5038         estimate D2E/DX2                !
 ! A27   A(12,11,13)           121.1059         estimate D2E/DX2                !
 ! A28   A(8,12,11)            121.864          estimate D2E/DX2                !
 ! A29   A(8,12,14)            120.0855         estimate D2E/DX2                !
 ! A30   A(11,12,14)           118.0505         estimate D2E/DX2                !
 ! A31   A(2,15,16)            119.1131         estimate D2E/DX2                !
 ! A32   A(2,15,17)            122.233          estimate D2E/DX2                !
 ! A33   A(16,15,17)           118.6539         estimate D2E/DX2                !
 ! A34   A(15,16,18)           121.755          estimate D2E/DX2                !
 ! A35   A(15,16,19)           119.1184         estimate D2E/DX2                !
 ! A36   A(18,16,19)           119.1266         estimate D2E/DX2                !
 ! A37   A(15,17,20)           121.864          estimate D2E/DX2                !
 ! A38   A(15,17,21)           120.0854         estimate D2E/DX2                !
 ! A39   A(20,17,21)           118.0506         estimate D2E/DX2                !
 ! A40   A(8,18,16)            119.1319         estimate D2E/DX2                !
 ! A41   A(8,18,22)            122.248          estimate D2E/DX2                !
 ! A42   A(16,18,22)           118.6201         estimate D2E/DX2                !
 ! A43   A(16,19,23)           120.2592         estimate D2E/DX2                !
 ! A44   A(16,19,24)           120.1986         estimate D2E/DX2                !
 ! A45   A(23,19,24)           119.5422         estimate D2E/DX2                !
 ! A46   A(17,20,24)           120.3902         estimate D2E/DX2                !
 ! A47   A(17,20,25)           121.1061         estimate D2E/DX2                !
 ! A48   A(24,20,25)           118.5037         estimate D2E/DX2                !
 ! A49   A(18,22,26)           121.8817         estimate D2E/DX2                !
 ! A50   A(18,22,27)           120.0876         estimate D2E/DX2                !
 ! A51   A(26,22,27)           118.0307         estimate D2E/DX2                !
 ! A52   A(19,23,26)           119.6682         estimate D2E/DX2                !
 ! A53   A(19,23,34)           121.1383         estimate D2E/DX2                !
 ! A54   A(26,23,34)           119.1935         estimate D2E/DX2                !
 ! A55   A(19,24,20)           119.7749         estimate D2E/DX2                !
 ! A56   A(19,24,36)           120.7943         estimate D2E/DX2                !
 ! A57   A(20,24,36)           119.4308         estimate D2E/DX2                !
 ! A58   A(22,26,23)           120.4442         estimate D2E/DX2                !
 ! A59   A(22,26,28)           121.0669         estimate D2E/DX2                !
 ! A60   A(23,26,28)           118.4889         estimate D2E/DX2                !
 ! A61   A(5,29,30)            122.1176         estimate D2E/DX2                !
 ! A62   A(5,29,33)            116.4446         estimate D2E/DX2                !
 ! A63   A(30,29,33)           121.4377         estimate D2E/DX2                !
 ! A64   A(9,31,32)            122.7013         estimate D2E/DX2                !
 ! A65   A(9,31,33)            116.9344         estimate D2E/DX2                !
 ! A66   A(32,31,33)           120.3644         estimate D2E/DX2                !
 ! A67   A(29,33,31)           125.1457         estimate D2E/DX2                !
 ! A68   A(29,33,39)           118.6365         estimate D2E/DX2                !
 ! A69   A(31,33,39)           116.2178         estimate D2E/DX2                !
 ! A70   A(23,34,35)           122.1182         estimate D2E/DX2                !
 ! A71   A(23,34,38)           116.4436         estimate D2E/DX2                !
 ! A72   A(35,34,38)           121.4381         estimate D2E/DX2                !
 ! A73   A(24,36,37)           122.7018         estimate D2E/DX2                !
 ! A74   A(24,36,38)           116.9351         estimate D2E/DX2                !
 ! A75   A(37,36,38)           120.3631         estimate D2E/DX2                !
 ! A76   A(34,38,36)           125.1464         estimate D2E/DX2                !
 ! A77   A(34,38,43)           118.6386         estimate D2E/DX2                !
 ! A78   A(36,38,43)           116.2151         estimate D2E/DX2                !
 ! A79   A(33,39,40)           109.9314         estimate D2E/DX2                !
 ! A80   A(33,39,41)           109.9403         estimate D2E/DX2                !
 ! A81   A(33,39,42)           107.9308         estimate D2E/DX2                !
 ! A82   A(40,39,41)           107.8288         estimate D2E/DX2                !
 ! A83   A(40,39,42)           110.6082         estimate D2E/DX2                !
 ! A84   A(41,39,42)           110.6068         estimate D2E/DX2                !
 ! A85   A(38,43,44)           109.9332         estimate D2E/DX2                !
 ! A86   A(38,43,45)           107.9301         estimate D2E/DX2                !
 ! A87   A(38,43,46)           109.9396         estimate D2E/DX2                !
 ! A88   A(44,43,45)           110.6118         estimate D2E/DX2                !
 ! A89   A(44,43,46)           107.8252         estimate D2E/DX2                !
 ! A90   A(45,43,46)           110.6065         estimate D2E/DX2                !
 ! D1    D(6,1,2,3)              0.0008         estimate D2E/DX2                !
 ! D2    D(6,1,2,15)          -179.9984         estimate D2E/DX2                !
 ! D3    D(7,1,2,3)           -179.9995         estimate D2E/DX2                !
 ! D4    D(7,1,2,15)             0.0013         estimate D2E/DX2                !
 ! D5    D(2,1,6,5)              0.0017         estimate D2E/DX2                !
 ! D6    D(2,1,6,10)          -179.9999         estimate D2E/DX2                !
 ! D7    D(7,1,6,5)           -179.9981         estimate D2E/DX2                !
 ! D8    D(7,1,6,10)             0.0003         estimate D2E/DX2                !
 ! D9    D(1,2,3,4)             -0.0029         estimate D2E/DX2                !
 ! D10   D(1,2,3,8)            179.998          estimate D2E/DX2                !
 ! D11   D(15,2,3,4)           179.9963         estimate D2E/DX2                !
 ! D12   D(15,2,3,8)            -0.0028         estimate D2E/DX2                !
 ! D13   D(1,2,15,16)         -179.9936         estimate D2E/DX2                !
 ! D14   D(1,2,15,17)            0.0049         estimate D2E/DX2                !
 ! D15   D(3,2,15,16)            0.0072         estimate D2E/DX2                !
 ! D16   D(3,2,15,17)         -179.9942         estimate D2E/DX2                !
 ! D17   D(2,3,4,5)              0.0028         estimate D2E/DX2                !
 ! D18   D(2,3,4,9)           -179.9967         estimate D2E/DX2                !
 ! D19   D(8,3,4,5)           -179.9981         estimate D2E/DX2                !
 ! D20   D(8,3,4,9)              0.0024         estimate D2E/DX2                !
 ! D21   D(2,3,8,12)           179.9941         estimate D2E/DX2                !
 ! D22   D(2,3,8,18)            -0.0062         estimate D2E/DX2                !
 ! D23   D(4,3,8,12)            -0.005          estimate D2E/DX2                !
 ! D24   D(4,3,8,18)           179.9947         estimate D2E/DX2                !
 ! D25   D(3,4,5,6)             -0.0004         estimate D2E/DX2                !
 ! D26   D(3,4,5,29)          -179.9985         estimate D2E/DX2                !
 ! D27   D(9,4,5,6)            179.9991         estimate D2E/DX2                !
 ! D28   D(9,4,5,29)             0.001          estimate D2E/DX2                !
 ! D29   D(3,4,9,11)             0.0014         estimate D2E/DX2                !
 ! D30   D(3,4,9,31)           179.9998         estimate D2E/DX2                !
 ! D31   D(5,4,9,11)          -179.9981         estimate D2E/DX2                !
 ! D32   D(5,4,9,31)             0.0003         estimate D2E/DX2                !
 ! D33   D(4,5,6,1)             -0.0018         estimate D2E/DX2                !
 ! D34   D(4,5,6,10)           179.9997         estimate D2E/DX2                !
 ! D35   D(29,5,6,1)           179.9963         estimate D2E/DX2                !
 ! D36   D(29,5,6,10)           -0.0022         estimate D2E/DX2                !
 ! D37   D(4,5,29,30)         -179.985          estimate D2E/DX2                !
 ! D38   D(4,5,29,33)           -0.0099         estimate D2E/DX2                !
 ! D39   D(6,5,29,30)            0.0169         estimate D2E/DX2                !
 ! D40   D(6,5,29,33)          179.9921         estimate D2E/DX2                !
 ! D41   D(3,8,12,11)            0.0039         estimate D2E/DX2                !
 ! D42   D(3,8,12,14)         -179.9952         estimate D2E/DX2                !
 ! D43   D(18,8,12,11)        -179.9958         estimate D2E/DX2                !
 ! D44   D(18,8,12,14)           0.0051         estimate D2E/DX2                !
 ! D45   D(3,8,18,16)            0.0107         estimate D2E/DX2                !
 ! D46   D(3,8,18,22)         -179.9891         estimate D2E/DX2                !
 ! D47   D(12,8,18,16)        -179.9896         estimate D2E/DX2                !
 ! D48   D(12,8,18,22)           0.0106         estimate D2E/DX2                !
 ! D49   D(4,9,11,12)           -0.0026         estimate D2E/DX2                !
 ! D50   D(4,9,11,13)          179.998          estimate D2E/DX2                !
 ! D51   D(31,9,11,12)         179.999          estimate D2E/DX2                !
 ! D52   D(31,9,11,13)          -0.0004         estimate D2E/DX2                !
 ! D53   D(4,9,31,32)         -179.9862         estimate D2E/DX2                !
 ! D54   D(4,9,31,33)            0.0074         estimate D2E/DX2                !
 ! D55   D(11,9,31,32)           0.0122         estimate D2E/DX2                !
 ! D56   D(11,9,31,33)        -179.9942         estimate D2E/DX2                !
 ! D57   D(9,11,12,8)           -0.0001         estimate D2E/DX2                !
 ! D58   D(9,11,12,14)         179.999          estimate D2E/DX2                !
 ! D59   D(13,11,12,8)         179.9993         estimate D2E/DX2                !
 ! D60   D(13,11,12,14)         -0.0016         estimate D2E/DX2                !
 ! D61   D(2,15,16,18)          -0.0026         estimate D2E/DX2                !
 ! D62   D(2,15,16,19)         179.9962         estimate D2E/DX2                !
 ! D63   D(17,15,16,18)        179.9988         estimate D2E/DX2                !
 ! D64   D(17,15,16,19)         -0.0024         estimate D2E/DX2                !
 ! D65   D(2,15,17,20)        -179.9954         estimate D2E/DX2                !
 ! D66   D(2,15,17,21)           0.0034         estimate D2E/DX2                !
 ! D67   D(16,15,17,20)          0.0032         estimate D2E/DX2                !
 ! D68   D(16,15,17,21)       -179.9981         estimate D2E/DX2                !
 ! D69   D(15,16,18,8)          -0.0063         estimate D2E/DX2                !
 ! D70   D(15,16,18,22)        179.9935         estimate D2E/DX2                !
 ! D71   D(19,16,18,8)         179.9948         estimate D2E/DX2                !
 ! D72   D(19,16,18,22)         -0.0054         estimate D2E/DX2                !
 ! D73   D(15,16,19,23)       -179.9985         estimate D2E/DX2                !
 ! D74   D(15,16,19,24)          0.0            estimate D2E/DX2                !
 ! D75   D(18,16,19,23)          0.0003         estimate D2E/DX2                !
 ! D76   D(18,16,19,24)        179.9988         estimate D2E/DX2                !
 ! D77   D(15,17,20,24)         -0.0015         estimate D2E/DX2                !
 ! D78   D(15,17,20,25)        179.9972         estimate D2E/DX2                !
 ! D79   D(21,17,20,24)        179.9998         estimate D2E/DX2                !
 ! D80   D(21,17,20,25)         -0.0015         estimate D2E/DX2                !
 ! D81   D(8,18,22,26)        -179.9939         estimate D2E/DX2                !
 ! D82   D(8,18,22,27)           0.0063         estimate D2E/DX2                !
 ! D83   D(16,18,22,26)          0.0063         estimate D2E/DX2                !
 ! D84   D(16,18,22,27)       -179.9935         estimate D2E/DX2                !
 ! D85   D(16,19,23,26)          0.0041         estimate D2E/DX2                !
 ! D86   D(16,19,23,34)       -179.9934         estimate D2E/DX2                !
 ! D87   D(24,19,23,26)       -179.9945         estimate D2E/DX2                !
 ! D88   D(24,19,23,34)          0.0081         estimate D2E/DX2                !
 ! D89   D(16,19,24,20)          0.0018         estimate D2E/DX2                !
 ! D90   D(16,19,24,36)       -179.9935         estimate D2E/DX2                !
 ! D91   D(23,19,24,20)       -179.9997         estimate D2E/DX2                !
 ! D92   D(23,19,24,36)          0.005          estimate D2E/DX2                !
 ! D93   D(17,20,24,19)         -0.0011         estimate D2E/DX2                !
 ! D94   D(17,20,24,36)        179.9943         estimate D2E/DX2                !
 ! D95   D(25,20,24,19)       -179.9998         estimate D2E/DX2                !
 ! D96   D(25,20,24,36)         -0.0044         estimate D2E/DX2                !
 ! D97   D(18,22,26,23)         -0.0019         estimate D2E/DX2                !
 ! D98   D(18,22,26,28)        179.9957         estimate D2E/DX2                !
 ! D99   D(27,22,26,23)        179.9979         estimate D2E/DX2                !
 ! D100  D(27,22,26,28)         -0.0046         estimate D2E/DX2                !
 ! D101  D(19,23,26,22)         -0.0033         estimate D2E/DX2                !
 ! D102  D(19,23,26,28)        179.999          estimate D2E/DX2                !
 ! D103  D(34,23,26,22)        179.9942         estimate D2E/DX2                !
 ! D104  D(34,23,26,28)         -0.0035         estimate D2E/DX2                !
 ! D105  D(19,23,34,35)       -179.9902         estimate D2E/DX2                !
 ! D106  D(19,23,34,38)         -0.0157         estimate D2E/DX2                !
 ! D107  D(26,23,34,35)          0.0124         estimate D2E/DX2                !
 ! D108  D(26,23,34,38)        179.9868         estimate D2E/DX2                !
 ! D109  D(19,24,36,37)        179.9863         estimate D2E/DX2                !
 ! D110  D(19,24,36,38)         -0.01           estimate D2E/DX2                !
 ! D111  D(20,24,36,37)         -0.009          estimate D2E/DX2                !
 ! D112  D(20,24,36,38)        179.9947         estimate D2E/DX2                !
 ! D113  D(5,29,33,31)           0.0189         estimate D2E/DX2                !
 ! D114  D(5,29,33,39)        -179.999          estimate D2E/DX2                !
 ! D115  D(30,29,33,31)        179.9942         estimate D2E/DX2                !
 ! D116  D(30,29,33,39)         -0.0237         estimate D2E/DX2                !
 ! D117  D(9,31,33,29)          -0.0178         estimate D2E/DX2                !
 ! D118  D(9,31,33,39)         179.9998         estimate D2E/DX2                !
 ! D119  D(32,31,33,29)        179.976          estimate D2E/DX2                !
 ! D120  D(32,31,33,39)         -0.0065         estimate D2E/DX2                !
 ! D121  D(29,33,39,40)        120.8123         estimate D2E/DX2                !
 ! D122  D(29,33,39,41)       -120.6325         estimate D2E/DX2                !
 ! D123  D(29,33,39,42)          0.0917         estimate D2E/DX2                !
 ! D124  D(31,33,39,40)        -59.204          estimate D2E/DX2                !
 ! D125  D(31,33,39,41)         59.3511         estimate D2E/DX2                !
 ! D126  D(31,33,39,42)       -179.9247         estimate D2E/DX2                !
 ! D127  D(23,34,38,36)          0.0107         estimate D2E/DX2                !
 ! D128  D(23,34,38,43)       -179.9827         estimate D2E/DX2                !
 ! D129  D(35,34,38,36)        179.9854         estimate D2E/DX2                !
 ! D130  D(35,34,38,43)         -0.0081         estimate D2E/DX2                !
 ! D131  D(24,36,38,34)          0.0016         estimate D2E/DX2                !
 ! D132  D(24,36,38,43)        179.9952         estimate D2E/DX2                !
 ! D133  D(37,36,38,34)       -179.9948         estimate D2E/DX2                !
 ! D134  D(37,36,38,43)         -0.0012         estimate D2E/DX2                !
 ! D135  D(34,38,43,44)       -120.7869         estimate D2E/DX2                !
 ! D136  D(34,38,43,45)         -0.0613         estimate D2E/DX2                !
 ! D137  D(34,38,43,46)        120.6617         estimate D2E/DX2                !
 ! D138  D(36,38,43,44)         59.2191         estimate D2E/DX2                !
 ! D139  D(36,38,43,45)        179.9447         estimate D2E/DX2                !
 ! D140  D(36,38,43,46)        -59.3323         estimate D2E/DX2                !
 --------------------------------------------------------------------------------
 Trust Radius=3.00D-01 FncErr=1.00D-07 GrdErr=1.00D-06
 Number of steps in this run=    276 maximum allowed number of steps=    276.
 GradGradGradGradGradGradGradGradGradGradGradGradGradGradGradGradGradGrad

 Leave Link  103 at Fri Apr  2 15:05:19 2021, MaxMem=  5242880000 cpu:         0.2
 (Enter /opt/nce/packages/global/g09/l202.exe)
                          Input orientation:                          
 ---------------------------------------------------------------------
 Center     Atomic      Atomic             Coordinates (Angstroms)
 Number     Number       Type             X           Y           Z
 ---------------------------------------------------------------------
      1          6           0        0.001321    1.476003    2.435548
      2          6           0        0.000613    0.732401    1.252043
      3          6           0       -0.001456    1.431715    0.002746
      4          6           0       -0.002790    2.861797    0.005546
      5          6           0       -0.002008    3.573455    1.230892
      6          6           0        0.000051    2.876458    2.429206
      7          1           0        0.002897    0.968574    3.399150
      8          6           0       -0.002245    0.737403   -1.249501
      9          6           0       -0.004915    3.576806   -1.217504
     10          1           0        0.000626    3.443684    3.361155
     11          6           0       -0.005728    2.885620   -2.418816
     12          6           0       -0.004407    1.485122   -2.430451
     13          1           0       -0.007402    3.457039   -3.348304
     14          1           0       -0.005126    0.980999   -3.395793
     15          6           0        0.001901   -0.737409    1.249303
     16          6           0        0.001211   -1.431722   -0.002944
     17          6           0        0.003814   -1.485125    2.430255
     18          6           0       -0.000756   -0.732406   -1.252241
     19          6           0        0.002547   -2.861805   -0.005743
     20          6           0        0.005128   -2.885622    2.418624
     21          1           0        0.004343   -0.980998    3.395595
     22          6           0       -0.001188   -1.476004   -2.435746
     23          6           0        0.001933   -3.573462   -1.231093
     24          6           0        0.004526   -3.576808    1.217315
     25          1           0        0.006663   -3.457042    3.348111
     26          6           0        0.000114   -2.876458   -2.429403
     27          1           0       -0.002566   -0.968574   -3.399348
     28          1           0       -0.000314   -3.443682   -3.361355
     29          6           0       -0.003401    5.058866    1.256583
     30          8           0       -0.002489    5.688182    2.298708
     31          6           0       -0.006323    5.060552   -1.230049
     32          8           0       -0.008404    5.709686   -2.260186
     33          7           0       -0.005291    5.704931    0.012083
     34          6           0        0.003150   -5.058870   -1.256794
     35          8           0        0.002825   -5.688189   -2.298918
     36          6           0        0.006073   -5.060548    1.229839
     37          8           0        0.008033   -5.709710    2.259967
     38          7           0        0.005263   -5.704922   -0.012287
     39          6           0       -0.006697    7.166503   -0.018559
     40          1           0        0.879797    7.530826   -0.556459
     41          1           0       -0.896597    7.529380   -0.551823
     42          1           0       -0.004304    7.524984    1.014802
     43          6           0        0.006919   -7.166488    0.018422
     44          1           0       -0.879688   -7.530976    0.556020
     45          1           0        0.005044   -7.525002   -1.014923
     46          1           0        0.896668   -7.529169    0.552078
 ---------------------------------------------------------------------
                    Distance matrix (angstroms):
                    1          2          3          4          5
     1  C    0.000000
     2  C    1.397723   0.000000
     3  C    2.433207   1.431708   0.000000
     4  C    2.797383   2.467406   1.430085   0.000000
     5  C    2.418783   2.841134   2.468885   1.417015   0.000000
     6  C    1.400470   2.445955   2.824003   2.423706   1.386278
     7  H    1.089043   2.160058   3.427839   3.885984   3.389214
     8  C    3.758341   2.501551   1.431849   2.467426   3.767697
     9  C    4.214048   3.766873   2.467881   1.416719   2.448400
    10  H    2.174515   3.435027   3.914963   3.405689   2.134214
    11  C    5.054891   4.255772   2.824504   2.424481   3.713960
    12  C    4.866011   3.758640   2.433785   2.798092   4.215041
    13  H    6.113716   5.346673   3.915547   3.406265   4.580679
    14  H    5.852316   4.654483   3.428298   3.886710   5.303494
    15  C    2.511249   1.469813   2.501802   3.808049   4.310905
    16  C    3.794879   2.501684   2.863444   4.293529   5.155013
    17  C    2.961134   2.511098   3.794836   4.977448   5.198821
    18  C    4.298472   2.901224   2.501682   3.807930   4.970552
    19  C    4.977598   3.807932   4.293530   5.723616   6.553004
    20  C    4.361659   3.801450   4.947313   6.233445   6.567376
    21  H    2.637907   2.744188   4.163249   5.124408   5.042720
    22  C    5.695951   4.298470   3.794875   4.977592   6.240294
    23  C    6.240301   4.970556   5.155014   6.553004   7.559088
    24  C    5.197596   4.309351   5.153690   6.551647   7.150279
    25  H    5.016745   4.684546   5.923806   7.148465   7.342382
    26  C    6.527761   5.155280   4.947293   6.233503   7.416141
    27  H    6.326293   4.952652   4.163608   5.124943   6.486074
    28  H    7.603117   6.222790   5.923400   7.148083   8.386236
    29  C    3.771855   4.326469   3.837751   2.528281   1.485634
    30  O    4.214403   5.065104   4.836213   3.639649   2.369030
    31  C    5.126953   4.989361   3.832527   2.522148   2.875362
    32  O    6.322506   6.091732   4.839622   3.639237   4.092817
    33  N    4.874121   5.124801   4.273228   2.843143   2.455340
    34  C    7.505862   6.311346   6.611668   8.020630   8.983632
    35  O    8.587247   7.337118   7.482694   8.855103   9.911490
    36  C    6.646823   5.792994   6.607215   8.016391   8.634007
    37  O    7.187861   6.520488   7.489665   8.863028   9.340035
    38  N    7.586672   6.560311   7.136656   8.566741   9.361294
    39  C    6.197136   6.558365   5.734830   4.304775   3.804096
    40  H    6.810632   7.089586   6.187768   4.784835   4.430913
    41  H    6.809847   7.089277   6.187919   4.784964   4.430317
    42  H    6.213592   6.796727   6.176746   4.771154   3.957434
    43  C    8.974140   7.994642   8.598221  10.028298  10.808170
    44  H    9.243077   8.339231   9.022596  10.444219  11.159488
    45  H    9.639702   8.562935   9.014348  10.436810  11.323404
    46  H    9.243497   8.339449   9.022518  10.444132  11.159600
                    6          7          8          9         10
     6  C    0.000000
     7  H    2.140285   0.000000
     8  C    4.255402   4.654398   0.000000
     9  C    3.713355   5.302493   2.839585   0.000000
    10  H    1.090997   2.475403   5.346224   4.580597   0.000000
    11  C    4.848034   6.125673   2.445843   1.385961   5.806853
    12  C    5.054909   5.852446   1.397759   2.417929   6.113811
    13  H    5.806613   7.191710   3.435320   2.134165   6.709477
    14  H    6.125635   6.794959   2.160073   3.388681   7.191745
    15  C    3.801606   2.744489   2.901570   4.969671   4.684171
    16  C    4.947299   4.163612   2.501803   5.153692   5.923407
    17  C    4.361585   2.638067   4.298869   6.239340   5.015949
    18  C    5.155284   4.952654   1.469812   4.309354   6.222793
    19  C    6.233510   5.124949   3.808051   6.551651   7.148090
    20  C    5.762092   3.976967   5.155726   7.415154   6.399101
    21  H    3.976669   1.949576   4.952763   6.484932   4.424818
    22  C    6.527763   6.326294   2.511244   5.197597   7.603117
    23  C    7.416149   6.486081   4.310906   7.150284   8.386244
    24  C    6.566075   5.041915   4.969672   7.556628   7.340529
    25  H    6.399817   4.425912   6.223462   8.385702   6.900741
    26  C    7.530081   6.982572   3.801600   6.566075   8.571742
    27  H    6.982573   7.069098   2.744485   5.041917   8.072944
    28  H    8.571742   8.072945   4.684165   7.340529   9.624342
    29  C    2.477491   4.617480   4.995548   2.884027   2.652933
    30  O    2.814752   4.846205   6.090977   4.101422   2.483259
    31  C    4.261508   6.178499   4.323195   1.483800   4.867593
    32  O    5.478837   7.382842   5.073965   2.374105   6.060885
    33  N    3.720588   5.822832   5.125226   2.457804   4.040985
    34  C    8.749631   7.616291   5.796280   8.635769   9.675685
    35  O    9.783064   8.762447   6.510725   9.327896  10.743721
    36  C    8.027115   6.407514   6.305825   8.977388   8.767240
    37  O    8.587839   6.774750   7.340418   9.916267   9.219398
    38  N    8.921939   7.494895   6.560054   9.359654   9.750750
    39  C    4.939239   7.077793   6.545882   3.784626   5.028111
    40  H    5.599222   7.712260   6.885412   4.105359   5.729343
    41  H    5.598231   7.711255   6.886042   4.106223   5.727942
    42  H    4.858946   6.976509   7.155301   4.535559   4.707697
    43  C   10.328247   8.809573   8.004949  10.814158  11.124282
    44  H   10.611195   9.005814   8.508578  11.282439  11.361641
    45  H   10.956844   9.572089   8.265737  11.103661  11.809409
    46  H   10.611532   9.006458   8.508228  11.282152  11.362100
                   11         12         13         14         15
    11  C    0.000000
    12  C    1.400547   0.000000
    13  H    1.091087   2.175068   0.000000
    14  H    2.140576   1.089048   2.476496   0.000000
    15  C    5.155724   4.298869   6.223461   4.952766   0.000000
    16  C    4.947315   3.794839   5.923807   4.163254   1.431850
    17  C    6.528169   5.696393   7.603740   6.326506   1.397759
    18  C    3.801452   2.511100   4.684546   2.744192   2.501550
    19  C    6.233449   4.977452   7.148469   5.124416   2.467428
    20  C    7.530483   6.528171   8.572454   6.982715   2.445842
    21  H    6.982708   6.326503   8.073195   7.069121   2.160072
    22  C    4.361659   2.961132   5.016743   2.637910   3.758340
    23  C    6.567380   5.198824   7.342385   5.042727   3.767700
    24  C    7.415155   6.239344   8.385703   6.484941   2.839580
    25  H    8.572454   7.603742   9.625315   8.073202   3.435320
    26  C    5.762091   4.361582   6.399814   3.976671   4.255398
    27  H    3.976967   2.638065   4.425910   1.949578   4.654397
    28  H    6.399099   5.015945   6.900737   4.424818   5.346222
    29  C    4.269843   5.134770   4.875536   6.186566   5.796282
    30  O    5.487203   6.326979   6.071801   7.388161   6.510721
    31  C    2.478608   3.771560   2.656738   4.618788   6.305839
    32  O    2.828519   4.227996   2.501683   4.863136   7.340412
    33  N    3.722605   4.875732   4.042923   5.824874   6.560069
    34  C    8.029028   6.648410   8.768993   6.407449   4.995553
    35  O    8.574652   7.174520   9.205244   6.758792   6.090985
    36  C    8.743821   7.499575   9.669998   7.609000   4.323185
    37  O    9.786261   8.588701  10.746266   8.760901   5.073978
    38  N    8.921262   7.585799   9.750420   7.493314   5.125213
    39  C    4.907871   6.172140   4.984709   7.047423   8.004959
    40  H    5.082368   6.390947   5.017695   7.193409   8.508536
    41  H    5.083681   6.392050   5.019456   7.194733   8.508299
    42  H    5.771779   6.953395   5.965306   7.891583   8.265722
    43  C   10.343363   8.991522  11.144253   8.833943   6.545850
    44  H   10.868253   9.538089  11.693635   9.425253   6.885521
    45  H   10.504860   9.120644  11.227201   8.832933   7.155288
    46  H   10.867767   9.537550  11.693036   9.424536   6.885836
                   16         17         18         19         20
    16  C    0.000000
    17  C    2.433786   0.000000
    18  C    1.431709   3.758641   0.000000
    19  C    1.430086   2.798095   2.467409   0.000000
    20  C    2.824506   1.400546   4.255775   2.424485   0.000000
    21  H    3.428298   1.089048   4.654482   3.886713   2.140576
    22  C    2.433206   4.866012   1.397720   2.797387   5.054896
    23  C    2.468887   4.215047   2.841136   1.417018   3.713969
    24  C    2.467881   2.417925   3.766876   1.416723   1.385959
    25  H    3.915549   2.175069   5.346675   3.406268   1.091086
    26  C    2.823998   5.054908   2.445950   2.423706   4.848038
    27  H    3.427839   5.852447   2.160057   3.885988   6.125678
    28  H    3.914960   6.113813   3.435023   3.405689   5.806860
    29  C    6.611669   6.648412   6.311342   8.020632   8.029029
    30  O    7.482690   7.174516   7.337111   8.855100   8.574646
    31  C    6.607228   7.499588   5.793003   8.016405   8.743834
    32  O    7.489656   8.588696   6.520472   8.863018   9.786254
    33  N    7.136672   7.585812   6.560323   8.566758   8.921275
    34  C    3.837753   5.134782   4.326468   2.528285   4.269860
    35  O    4.836219   6.326992   5.065109   3.639656   5.487221
    36  C    3.832513   3.771558   4.989347   2.522131   2.478611
    37  O    4.839627   4.228018   6.091735   3.639235   2.828543
    38  N    4.273212   4.875726   5.124787   2.843126   3.722604
    39  C    8.598243   8.991522   7.994671  10.028320  10.343366
    40  H    9.022503   9.538091   8.339094  10.444120  10.868236
    41  H    9.022676   9.537548   8.339678  10.444299  10.867793
    42  H    9.014345   9.120616   8.562943  10.436807  10.504833
    43  C    5.734809   6.172101   6.558358   4.304753   4.907829
    44  H    6.187837   6.391060   7.089632   4.784880   5.082471
    45  H    6.176745   6.953371   6.796743   4.771148   5.771749
    46  H    6.187791   6.391808   7.089212   4.784862   5.083440
                   21         22         23         24         25
    21  H    0.000000
    22  C    5.852316   0.000000
    23  C    5.303500   2.418787   0.000000
    24  C    3.388677   4.214056   2.448412   0.000000
    25  H    2.476500   6.113720   4.580686   2.134160   0.000000
    26  C    6.125634   1.400469   1.386277   3.713363   5.806616
    27  H    6.794958   1.089044   3.389217   5.302501   7.191715
    28  H    7.191746   2.174514   2.134213   4.580607   6.709483
    29  C    6.407448   7.505853   8.983632   8.635767   8.768995
    30  O    6.758785   8.587236   9.911486   9.327888   9.205240
    31  C    7.609009   6.646826   8.634018   8.977399   9.670012
    32  O    8.760895   7.187838   9.340020   9.916257  10.746261
    33  N    7.493323   7.586680   9.361309   9.359667   9.750435
    34  C    6.186579   3.771853   1.485631   2.884047   4.875553
    35  O    7.388175   4.214409   2.369034   4.101442   6.071818
    36  C    4.618791   5.126941   2.875348   1.483794   2.656748
    37  O    4.863166   6.322505   4.092810   2.374112   2.501714
    38  N    5.824871   4.874109   2.455325   2.457802   4.042925
    39  C    8.833931   8.974171  10.808199  10.814169  11.144252
    40  H    9.425301   9.242881  11.159345  11.282371  11.693642
    41  H    9.424454   9.243801  11.159833  11.282255  11.693025
    42  H    8.832892   9.639713  11.323409  11.103642  11.227170
    43  C    7.047382   6.197146   3.804096   3.784594   4.984658
    44  H    7.193532   6.810662   4.430908   4.105434   5.017801
    45  H    7.891556   6.213626   3.957450   4.535540   5.965263
    46  H    7.194468   6.809849   4.430335   4.106046   5.019176
                   26         27         28         29         30
    26  C    0.000000
    27  H    2.140285   0.000000
    28  H    1.090999   2.475401   0.000000
    29  C    8.749621   7.616280   9.675675   0.000000
    30  O    9.783052   8.762434  10.743708   1.217400   0.000000
    31  C    8.027118   6.407514   8.767240   2.486634   3.584140
    32  O    8.587816   6.774724   9.219370   3.576487   4.558949
    33  N    8.921946   7.494901   9.750755   1.402207   2.286688
    34  C    2.477487   4.617477   2.652927  10.425243  11.319927
    35  O    2.814758   4.846209   2.483263  11.319930  12.270290
    36  C    4.261495   6.178487   4.867582  10.119454  10.801748
    37  O    5.478829   7.382840   6.060876  10.815227  11.397963
    38  N    3.720576   5.822820   4.040977  10.838323  11.625127
    39  C   10.328276   8.809610  11.124314   2.463358   2.748668
    40  H   10.611000   9.005575  11.361420   3.190258   3.510804
    41  H   10.611827   9.006826  11.362433   3.189290   3.509269
    42  H   10.956850   9.572108  11.809420   2.477942   2.241040
    43  C    4.939256   7.077809   5.028144  12.287898  13.055357
    44  H    5.599227   7.712289   5.729319  12.639731  13.362357
    45  H    4.858985   6.976553   4.707754  12.787241  13.622351
    46  H    5.598282   7.711277   5.728066  12.639821  13.362543
                   31         32         33         34         35
    31  C    0.000000
    32  O    1.217605   0.000000
    33  N    1.399327   2.272276   0.000000
    34  C   10.119462  10.815208  10.838336   0.000000
    35  O   10.801759  11.397946  11.625144   1.217401   0.000000
    36  C   10.415751  11.321591  10.834140   2.486635   3.584141
    37  O   11.321615  12.281476  11.633881   3.576482   4.558939
    38  N   10.834136  11.633852  11.409884   1.402207   2.286694
    39  C    2.429555   2.673427   1.461894  12.287924  13.055391
    40  H    2.709462   2.647289   2.107253  12.639597  13.362171
    41  H    2.710662   2.649279   2.107375  12.640038  13.362838
    42  H    3.333584   3.744445   2.077989  12.787243  13.622361
    43  C   12.290621  13.076244  12.871426   2.463381   2.748718
    44  H   12.747525  13.564855  13.275906   3.190142   3.510750
    45  H   12.587398  13.293150  13.269739   2.477965   2.241100
    46  H   12.747252  13.564485  13.275787   3.189478   3.509464
                   36         37         38         39         40
    36  C    0.000000
    37  O    1.217612   0.000000
    38  N    1.399320   2.272261   0.000000
    39  C   12.290624  13.076267  12.871432   0.000000
    40  H   12.747429  13.564808  13.275766   1.099063   0.000000
    41  H   12.747369  13.564587  13.275963   1.099078   1.776401
    42  H   12.587373  13.293145  13.269718   1.093778   1.802923
    43  C    2.429509   2.673336   1.461890  14.333045  14.734431
    44  H    2.709542   2.647356   2.107269  14.734590  15.204975
    45  H    3.333540   3.744356   2.077973  14.725257  15.088185
    46  H    2.710463   2.648960   2.107365  14.734465  15.100748
                   41         42         43         44         45
    41  H    0.000000
    42  H    1.802920   0.000000
    43  C   14.734655  14.725225   0.000000
    44  H   15.101057  15.088363   1.099061   0.000000
    45  H   15.088467  15.186242   1.093772   1.802955   0.000000
    46  H   15.205075  15.088187   1.099081   1.776361   1.802915
                   46
    46  H    0.000000
 Symmetry turned off by external request.
 Stoichiometry    C26H14N2O4
 Framework group  C1[X(C26H14N2O4)]
 Deg. of freedom   132
 Full point group                 C1      NOp   1
 Rotational constants (GHZ):      0.4148324      0.0698284      0.0598127
 Leave Link  202 at Fri Apr  2 15:05:20 2021, MaxMem=  5242880000 cpu:         0.2
 (Enter /opt/nce/packages/global/g09/l301.exe)
 Standard basis: def2TZVP (5D, 7F)
 Ernie: Thresh=  0.10000D-02 Tol=  0.10000D-05 Strict=F.
  1076 basis functions,  1744 primitive gaussians,  1236 cartesian basis functions
   108 alpha electrons      108 beta electrons
       nuclear repulsion energy      2928.4823429911 Hartrees.
 IExCor= 4639 DFT=T Ex+Corr=wB97XD ExCW=0 ScaHFX=  1.000000
 ScaDFX=  1.000000  1.000000  1.000000  1.000000 ScalE2=  1.000000  1.000000
 IRadAn=      5 IRanWt=     -1 IRanGd=            0 ICorTp=0 IEmpDi=121
  HFx wShort=  0.000000 wLong=  0.200000 cFull=  0.222036 cShort=  0.000000 cLong=  0.777964
  DFx wShort=  0.000000 wLong=  0.200000 cFull=  0.000000 cShort=  0.000000 cLong=  1.000000
 NAtoms=   46 NActive=   46 NUniq=   46 SFac= 1.00D+00 NAtFMM=   60 NAOKFM=F Big=F
 Integral buffers will be    131072 words long.
 Raffenetti 2 integral format.
 Two-electron integral symmetry is turned off.
 R6Disp:  Grimme-D2 Dispersion energy=       -0.0365679700 Hartrees.
 Nuclear repulsion after empirical dispersion term =     2928.4457750210 Hartrees.
 ------------------------------------------------------------------------------
 Polarizable Continuum Model (PCM)
 =================================
 Model                : PCM (using non-symmetric T matrix).
 Atomic radii         : SMD-Coulomb.
 Polarization charges : Total charges.
 Charge compensation  : None.
 Solution method      : On-the-fly selection.
 Cavity type          : VdW (van der Waals Surface) (Alpha=1.000).
 Cavity algorithm     : GePol (No added spheres)
                        Default sphere list used, NSphG=   46.
                        Lebedev-Laikov grids with approx.  5.0 points / Ang**2.
                        Smoothing algorithm: York/Karplus (Gamma=1.0000).
                        Polarization charges: spherical gaussians, with
                                              point-specific exponents (IZeta= 3).
                        Self-potential: point-specific (ISelfS= 7).
                        Self-field    : sphere-specific E.n sum rule (ISelfD= 2).
 1st derivatives      : Analytical E(r).r(x)/FMM algorithm (CHGder, D1EAlg=3).
                        Cavity 1st derivative terms included.
 Solvent              : Dichloromethane, Eps=   8.930000 Eps(inf)=   2.028346
 ------------------------------------------------------------------------------
 GePol: Number of generator spheres                  =      46
 GePol: Total number of spheres                      =      46
 GePol: Number of exposed spheres                    =      46 (100.00%)
 GePol: Number of points                             =    3482
 GePol: Average weight of points                     =       0.12
 GePol: Minimum weight of points                     =   0.15D-09
 GePol: Maximum weight of points                     =    0.20498
 GePol: Number of points with low weight             =     232
 GePol: Fraction of low-weight points (<1% of avg)   =       6.66%
 GePol: Cavity surface area                          =    402.754 Ang**2
 GePol: Cavity volume                                =    431.339 Ang**3
 ------------------------------------------------------------------------------
 Atomic radii for non-electrostatic terms: SMD-CDS.
 ------------------------------------------------------------------------------
 PCM non-electrostatic energy =        -0.0153616657 Hartrees.
 Nuclear repulsion after PCM non-electrostatic terms =     2928.4304133553 Hartrees.
 Leave Link  301 at Fri Apr  2 15:05:20 2021, MaxMem=  5242880000 cpu:         2.3
 (Enter /opt/nce/packages/global/g09/l302.exe)
 NPDir=0 NMtPBC=     1 NCelOv=     1 NCel=       1 NClECP=     1 NCelD=      1
         NCelK=      1 NCelE2=     1 NClLst=     1 CellRange=     0.0.
 One-electron integrals computed using PRISM.
   1 Symmetry operations used in ECPInt.
 ECPInt:  NShTT=   83436 NPrTT=  263196 LenC2=   64604 LenP2D=  139720.
 LDataN:  DoStor=T MaxTD1= 6 Len=  172
 NBasis=  1076 RedAO= T EigKep=  1.32D-06  NBF=  1076
 NBsUse=  1076 1.00D-06 EigRej= -1.00D+00 NBFU=  1076
 Precomputing XC quadrature grid using
 IXCGrd= 4 IRadAn=           5 IRanWt=          -1 IRanGd=           0 AccXCQ= 0.00D+00.
 Generated NRdTot=       0 NPtTot=           0 NUsed=           0 NTot=          32
 NSgBfM=  1145  1146  1156  1156  1156 MxSgAt=    46 MxSgA2=    46.
 Leave Link  302 at Fri Apr  2 15:05:22 2021, MaxMem=  5242880000 cpu:        28.9
 (Enter /opt/nce/packages/global/g09/l303.exe)
 DipDrv:  MaxL=1.
 Leave Link  303 at Fri Apr  2 15:05:22 2021, MaxMem=  5242880000 cpu:         3.1
 (Enter /opt/nce/packages/global/g09/l401.exe)
 ExpMin= 9.52D-02 ExpMax= 2.70D+04 ExpMxC= 9.22D+02 IAcc=3 IRadAn=         5 AccDes= 0.00D+00
 Harris functional with IExCor= 4639 and IRadAn=       5 diagonalized for initial guess.
 HarFok:  IExCor= 4639 AccDes= 0.00D+00 IRadAn=         5 IDoV= 1 UseB2=F ITyADJ=14
 ICtDFT=  3500011 ScaDFX=  1.000000  1.000000  1.000000  1.000000
 FoFCou: FMM=F IPFlag=           0 FMFlag=      100000 FMFlg1=           0
         NFxFlg=           0 DoJE=T BraDBF=F KetDBF=T FulRan=T
         wScrn=  0.000000 ICntrl=     500 IOpCl=  0 I1Cent=   200000004 NGrid=           0
         NMat0=    1 NMatS0=      1 NMatT0=    0 NMatD0=    1 NMtDS0=    0 NMtDT0=    0
 Symmetry not used in FoFCou.
 Harris En= -1350.66447818736    
 JPrj=0 DoOrth=F DoCkMO=F.
 Leave Link  401 at Fri Apr  2 15:05:33 2021, MaxMem=  5242880000 cpu:       119.2
 (Enter /opt/nce/packages/global/g09/l502.exe)
 Closed shell SCF:
 Using DIIS extrapolation, IDIIS=  1040.
 Two-electron integral symmetry not used.
 IVT=     4623978 IEndB=     4623978 NGot=  5242880000 MDV=  5239801595
 LenX=  5239801595 LenY=  5238272663
 Requested convergence on RMS density matrix=1.00D-08 within 128 cycles.
 Requested convergence on MAX density matrix=1.00D-06.
 Requested convergence on             energy=1.00D-06.
 No special actions if energy rises.
 Fock matrices will be formed incrementally for  20 cycles.

 Cycle   1  Pass 1  IDiag  1:
 FoFJK:  IHMeth= 1 ICntrl=       0 DoSepK=T KAlg= 0 I1Cent=   0 FoldK=F
 IRaf=         1 NMat=   1 IRICut=       1 DoRegI=T DoRafI=F ISym2E= 0.
 FoFCou: FMM=F IPFlag=           0 FMFlag=      100000 FMFlg1=           0
         NFxFlg=           0 DoJE=T BraDBF=F KetDBF=F FulRan=T
         wScrn=  0.000000 ICntrl=     500 IOpCl=  0 I1Cent=           0 NGrid=           0
         NMat0=    1 NMatS0=      1 NMatT0=    0 NMatD0=    1 NMtDS0=    0 NMtDT0=    0
 Symmetry not used in FoFCou.
 Inv3:  Mode=1 IEnd=    36372972.
 Iteration    1 A*A^-1 deviation from unit magnitude is 5.88D-15 for   3472.
 Iteration    1 A*A^-1 deviation from orthogonality  is 3.18D-15 for   1292     34.
 Iteration    1 A^-1*A deviation from unit magnitude is 5.11D-15 for   3449.
 Iteration    1 A^-1*A deviation from orthogonality  is 4.99D-14 for   1576   1522.
 E= -1409.39863561028    
 DIIS: error= 6.02D-02 at cycle   1 NSaved=   1.
 NSaved= 1 IEnMin= 1 EnMin= -1409.39863561028     IErMin= 1 ErrMin= 6.02D-02
 ErrMax= 6.02D-02  0.00D+00 EMaxC= 1.00D-01 BMatC= 3.10D+00 BMatP= 3.10D+00
 IDIUse=3 WtCom= 3.98D-01 WtEn= 6.02D-01
 Coeff-Com:  0.100D+01
 Coeff-En:   0.100D+01
 Coeff:      0.100D+01
 Gap=     0.194 Goal=   None    Shift=    0.000
 GapD=    0.194 DampG=1.000 DampE=0.500 DampFc=0.5000 IDamp=-1.
 Damping current iteration by 5.00D-01
 RMSDP=3.90D-03 MaxDP=3.24D-01              OVMax= 1.11D-01

 Cycle   2  Pass 1  IDiag  1:
 RMSU=  1.27D-03    CP:  8.18D-01
 E= -1409.59990369576     Delta-E=       -0.201268085473 Rises=F Damp=T
 DIIS: error= 2.80D-02 at cycle   2 NSaved=   2.
 NSaved= 2 IEnMin= 2 EnMin= -1409.59990369576     IErMin= 2 ErrMin= 2.80D-02
 ErrMax= 2.80D-02  0.00D+00 EMaxC= 1.00D-01 BMatC= 6.52D-01 BMatP= 3.10D+00
 IDIUse=3 WtCom= 7.20D-01 WtEn= 2.80D-01
 Coeff-Com: -0.723D+00 0.172D+01
 Coeff-En:   0.000D+00 0.100D+01
 Coeff:     -0.520D+00 0.152D+01
 Gap=     0.216 Goal=   None    Shift=    0.000
 RMSDP=1.68D-03 MaxDP=1.48D-01 DE=-2.01D-01 OVMax= 1.13D-01

 Cycle   3  Pass 1  IDiag  1:
 RMSU=  5.48D-04    CP:  6.65D-01  1.78D+00
 E= -1409.73967067436     Delta-E=       -0.139766978608 Rises=F Damp=F
 DIIS: error= 8.46D-03 at cycle   3 NSaved=   3.
 NSaved= 3 IEnMin= 3 EnMin= -1409.73967067436     IErMin= 3 ErrMin= 8.46D-03
 ErrMax= 8.46D-03  0.00D+00 EMaxC= 1.00D-01 BMatC= 8.16D-02 BMatP= 6.52D-01
 IDIUse=3 WtCom= 9.15D-01 WtEn= 8.46D-02
 Coeff-Com: -0.361D+00 0.789D+00 0.572D+00
 Coeff-En:   0.000D+00 0.000D+00 0.100D+01
 Coeff:     -0.331D+00 0.722D+00 0.608D+00
 Gap=     0.202 Goal=   None    Shift=    0.000
 RMSDP=2.79D-04 MaxDP=2.61D-02 DE=-1.40D-01 OVMax= 6.54D-02

 Cycle   4  Pass 1  IDiag  1:
 RMSU=  1.59D-04    CP:  6.56D-01  1.86D+00  6.49D-01
 E= -1409.80172089964     Delta-E=       -0.062050225274 Rises=F Damp=F
 DIIS: error= 3.32D-03 at cycle   4 NSaved=   4.
 NSaved= 4 IEnMin= 4 EnMin= -1409.80172089964     IErMin= 4 ErrMin= 3.32D-03
 ErrMax= 3.32D-03  0.00D+00 EMaxC= 1.00D-01 BMatC= 7.59D-03 BMatP= 8.16D-02
 IDIUse=3 WtCom= 9.67D-01 WtEn= 3.32D-02
 Coeff-Com: -0.166D+00 0.357D+00 0.342D+00 0.467D+00
 Coeff-En:   0.000D+00 0.000D+00 0.000D+00 0.100D+01
 Coeff:     -0.160D+00 0.345D+00 0.331D+00 0.485D+00
 Gap=     0.203 Goal=   None    Shift=    0.000
 RMSDP=1.89D-04 MaxDP=1.20D-02 DE=-6.21D-02 OVMax= 1.21D-02

 Cycle   5  Pass 1  IDiag  1:
 RMSU=  1.06D-04    CP:  6.41D-01  1.92D+00  6.70D-01  6.62D-01
 E= -1409.80679861396     Delta-E=       -0.005077714321 Rises=F Damp=F
 DIIS: error= 4.39D-04 at cycle   5 NSaved=   5.
 NSaved= 5 IEnMin= 5 EnMin= -1409.80679861396     IErMin= 5 ErrMin= 4.39D-04
 ErrMax= 4.39D-04  0.00D+00 EMaxC= 1.00D-01 BMatC= 1.85D-04 BMatP= 7.59D-03
 IDIUse=3 WtCom= 9.96D-01 WtEn= 4.39D-03
 Coeff-Com: -0.123D-01 0.255D-01 0.471D-01 0.162D+00 0.778D+00
 Coeff-En:   0.000D+00 0.000D+00 0.000D+00 0.000D+00 0.100D+01
 Coeff:     -0.123D-01 0.254D-01 0.469D-01 0.161D+00 0.779D+00
 Gap=     0.204 Goal=   None    Shift=    0.000
 RMSDP=3.18D-05 MaxDP=2.33D-03 DE=-5.08D-03 OVMax= 3.97D-03

 Cycle   6  Pass 1  IDiag  1:
 RMSU=  1.53D-05    CP:  6.39D-01  1.93D+00  6.76D-01  7.38D-01  1.11D+00
 E= -1409.80696536678     Delta-E=       -0.000166752819 Rises=F Damp=F
 DIIS: error= 2.18D-04 at cycle   6 NSaved=   6.
 NSaved= 6 IEnMin= 6 EnMin= -1409.80696536678     IErMin= 6 ErrMin= 2.18D-04
 ErrMax= 2.18D-04  0.00D+00 EMaxC= 1.00D-01 BMatC= 2.70D-05 BMatP= 1.85D-04
 IDIUse=3 WtCom= 9.98D-01 WtEn= 2.18D-03
 Coeff-Com:  0.183D-01-0.396D-01-0.276D-01-0.613D-02 0.318D+00 0.737D+00
 Coeff-En:   0.000D+00 0.000D+00 0.000D+00 0.000D+00 0.000D+00 0.100D+01
 Coeff:      0.182D-01-0.395D-01-0.275D-01-0.612D-02 0.317D+00 0.738D+00
 Gap=     0.204 Goal=   None    Shift=    0.000
 RMSDP=2.09D-05 MaxDP=1.39D-03 DE=-1.67D-04 OVMax= 2.70D-03

 Cycle   7  Pass 1  IDiag  1:
 RMSU=  6.35D-06    CP:  6.37D-01  1.94D+00  6.80D-01  7.54D-01  1.22D+00
                    CP:  1.17D+00
 E= -1409.80700288191     Delta-E=       -0.000037515137 Rises=F Damp=F
 DIIS: error= 1.19D-04 at cycle   7 NSaved=   7.
 NSaved= 7 IEnMin= 7 EnMin= -1409.80700288191     IErMin= 7 ErrMin= 1.19D-04
 ErrMax= 1.19D-04  0.00D+00 EMaxC= 1.00D-01 BMatC= 2.13D-06 BMatP= 2.70D-05
 IDIUse=3 WtCom= 9.99D-01 WtEn= 1.19D-03
 Coeff-Com:  0.559D-02-0.119D-01-0.107D-01-0.193D-01 0.778D-03 0.188D+00
 Coeff-Com:  0.848D+00
 Coeff-En:   0.000D+00 0.000D+00 0.000D+00 0.000D+00 0.000D+00 0.000D+00
 Coeff-En:   0.100D+01
 Coeff:      0.559D-02-0.119D-01-0.106D-01-0.193D-01 0.777D-03 0.188D+00
 Coeff:      0.848D+00
 Gap=     0.205 Goal=   None    Shift=    0.000
 RMSDP=7.65D-06 MaxDP=4.37D-04 DE=-3.75D-05 OVMax= 1.35D-03

 Cycle   8  Pass 1  IDiag  1:
 RMSU=  2.49D-06    CP:  6.36D-01  1.94D+00  6.80D-01  7.54D-01  1.26D+00
                    CP:  1.33D+00  1.10D+00
 E= -1409.80700774756     Delta-E=       -0.000004865648 Rises=F Damp=F
 DIIS: error= 3.87D-05 at cycle   8 NSaved=   8.
 NSaved= 8 IEnMin= 8 EnMin= -1409.80700774756     IErMin= 8 ErrMin= 3.87D-05
 ErrMax= 3.87D-05  0.00D+00 EMaxC= 1.00D-01 BMatC= 5.20D-07 BMatP= 2.13D-06
 IDIUse=1 WtCom= 1.00D+00 WtEn= 0.00D+00
 Coeff-Com: -0.135D-02 0.299D-02 0.117D-02-0.785D-02-0.612D-01-0.593D-01
 Coeff-Com:  0.350D+00 0.775D+00
 Coeff:     -0.135D-02 0.299D-02 0.117D-02-0.785D-02-0.612D-01-0.593D-01
 Coeff:      0.350D+00 0.775D+00
 Gap=     0.205 Goal=   None    Shift=    0.000
 RMSDP=2.50D-06 MaxDP=1.30D-04 DE=-4.87D-06 OVMax= 7.12D-04

 Cycle   9  Pass 1  IDiag  1:
 RMSU=  1.15D-06    CP:  6.36D-01  1.94D+00  6.80D-01  7.56D-01  1.27D+00
                    CP:  1.36D+00  1.25D+00  9.74D-01
 E= -1409.80700890090     Delta-E=       -0.000001153340 Rises=F Damp=F
 DIIS: error= 1.99D-05 at cycle   9 NSaved=   9.
 NSaved= 9 IEnMin= 9 EnMin= -1409.80700890090     IErMin= 9 ErrMin= 1.99D-05
 ErrMax= 1.99D-05  0.00D+00 EMaxC= 1.00D-01 BMatC= 5.25D-08 BMatP= 5.20D-07
 IDIUse=1 WtCom= 1.00D+00 WtEn= 0.00D+00
 Coeff-Com: -0.137D-02 0.295D-02 0.219D-02 0.272D-03-0.183D-01-0.430D-01
 Coeff-Com: -0.898D-02 0.233D+00 0.833D+00
 Coeff:     -0.137D-02 0.295D-02 0.219D-02 0.272D-03-0.183D-01-0.430D-01
 Coeff:     -0.898D-02 0.233D+00 0.833D+00
 Gap=     0.205 Goal=   None    Shift=    0.000
 RMSDP=6.91D-07 MaxDP=3.46D-05 DE=-1.15D-06 OVMax= 2.37D-04

 Cycle  10  Pass 1  IDiag  1:
 RMSU=  4.34D-07    CP:  6.36D-01  1.94D+00  6.80D-01  7.55D-01  1.27D+00
                    CP:  1.37D+00  1.26D+00  1.03D+00  1.28D+00
 E= -1409.80700904671     Delta-E=       -0.000000145810 Rises=F Damp=F
 DIIS: error= 4.66D-06 at cycle  10 NSaved=  10.
 NSaved=10 IEnMin=10 EnMin= -1409.80700904671     IErMin=10 ErrMin= 4.66D-06
 ErrMax= 4.66D-06  0.00D+00 EMaxC= 1.00D-01 BMatC= 7.64D-09 BMatP= 5.25D-08
 IDIUse=1 WtCom= 1.00D+00 WtEn= 0.00D+00
 Coeff-Com: -0.108D-03 0.223D-03 0.281D-03 0.904D-03 0.461D-02-0.225D-02
 Coeff-Com: -0.581D-01-0.621D-01 0.227D+00 0.889D+00
 Coeff:     -0.108D-03 0.223D-03 0.281D-03 0.904D-03 0.461D-02-0.225D-02
 Coeff:     -0.581D-01-0.621D-01 0.227D+00 0.889D+00
 Gap=     0.205 Goal=   None    Shift=    0.000
 RMSDP=2.92D-07 MaxDP=1.74D-05 DE=-1.46D-07 OVMax= 1.05D-04

 Cycle  11  Pass 1  IDiag  1:
 RMSU=  1.69D-07    CP:  6.36D-01  1.94D+00  6.80D-01  7.55D-01  1.27D+00
                    CP:  1.36D+00  1.27D+00  1.07D+00  1.41D+00  1.08D+00
 E= -1409.80700906996     Delta-E=       -0.000000023242 Rises=F Damp=F
 DIIS: error= 1.46D-06 at cycle  11 NSaved=  11.
 NSaved=11 IEnMin=11 EnMin= -1409.80700906996     IErMin=11 ErrMin= 1.46D-06
 ErrMax= 1.46D-06  0.00D+00 EMaxC= 1.00D-01 BMatC= 1.11D-09 BMatP= 7.64D-09
 IDIUse=1 WtCom= 1.00D+00 WtEn= 0.00D+00
 Coeff-Com:  0.121D-03-0.261D-03-0.164D-03 0.304D-03 0.378D-02 0.390D-02
 Coeff-Com: -0.194D-01-0.473D-01-0.184D-01 0.315D+00 0.762D+00
 Coeff:      0.121D-03-0.261D-03-0.164D-03 0.304D-03 0.378D-02 0.390D-02
 Coeff:     -0.194D-01-0.473D-01-0.184D-01 0.315D+00 0.762D+00
 Gap=     0.205 Goal=   None    Shift=    0.000
 RMSDP=9.53D-08 MaxDP=4.00D-06 DE=-2.32D-08 OVMax= 2.31D-05

 Cycle  12  Pass 1  IDiag  1:
 RMSU=  5.23D-08    CP:  6.36D-01  1.94D+00  6.80D-01  7.55D-01  1.27D+00
                    CP:  1.36D+00  1.27D+00  1.07D+00  1.43D+00  1.15D+00
                    CP:  1.23D+00
 E= -1409.80700907240     Delta-E=       -0.000000002446 Rises=F Damp=F
 DIIS: error= 7.14D-07 at cycle  12 NSaved=  12.
 NSaved=12 IEnMin=12 EnMin= -1409.80700907240     IErMin=12 ErrMin= 7.14D-07
 ErrMax= 7.14D-07  0.00D+00 EMaxC= 1.00D-01 BMatC= 1.29D-10 BMatP= 1.11D-09
 IDIUse=1 WtCom= 1.00D+00 WtEn= 0.00D+00
 Coeff-Com:  0.403D-04-0.860D-04-0.788D-04-0.237D-04 0.125D-03 0.998D-03
 Coeff-Com:  0.480D-02 0.666D-03-0.404D-01-0.672D-01 0.160D+00 0.941D+00
 Coeff:      0.403D-04-0.860D-04-0.788D-04-0.237D-04 0.125D-03 0.998D-03
 Coeff:      0.480D-02 0.666D-03-0.404D-01-0.672D-01 0.160D+00 0.941D+00
 Gap=     0.205 Goal=   None    Shift=    0.000
 RMSDP=4.33D-08 MaxDP=1.81D-06 DE=-2.45D-09 OVMax= 9.52D-06

 Cycle  13  Pass 1  IDiag  1:
 RMSU=  2.09D-08    CP:  6.36D-01  1.94D+00  6.80D-01  7.55D-01  1.27D+00
                    CP:  1.36D+00  1.27D+00  1.07D+00  1.43D+00  1.18D+00
                    CP:  1.35D+00  1.18D+00
 E= -1409.80700907276     Delta-E=       -0.000000000355 Rises=F Damp=F
 DIIS: error= 2.17D-07 at cycle  13 NSaved=  13.
 NSaved=13 IEnMin=13 EnMin= -1409.80700907276     IErMin=13 ErrMin= 2.17D-07
 ErrMax= 2.17D-07  0.00D+00 EMaxC= 1.00D-01 BMatC= 1.54D-11 BMatP= 1.29D-10
 IDIUse=1 WtCom= 1.00D+00 WtEn= 0.00D+00
 Coeff-Com: -0.144D-05 0.336D-05-0.540D-05-0.292D-04-0.325D-03-0.992D-04
 Coeff-Com:  0.324D-02 0.532D-02-0.954D-02-0.487D-01-0.374D-01 0.235D+00
 Coeff-Com:  0.853D+00
 Coeff:     -0.144D-05 0.336D-05-0.540D-05-0.292D-04-0.325D-03-0.992D-04
 Coeff:      0.324D-02 0.532D-02-0.954D-02-0.487D-01-0.374D-01 0.235D+00
 Coeff:      0.853D+00
 Gap=     0.205 Goal=   None    Shift=    0.000
 RMSDP=1.08D-08 MaxDP=4.89D-07 DE=-3.55D-10 OVMax= 2.64D-06

 Cycle  14  Pass 1  IDiag  1:
 RMSU=  6.21D-09    CP:  6.36D-01  1.94D+00  6.80D-01  7.55D-01  1.27D+00
                    CP:  1.36D+00  1.27D+00  1.07D+00  1.43D+00  1.18D+00
                    CP:  1.37D+00  1.27D+00  1.22D+00
 E= -1409.80700907279     Delta-E=       -0.000000000037 Rises=F Damp=F
 DIIS: error= 9.47D-08 at cycle  14 NSaved=  14.
 NSaved=14 IEnMin=14 EnMin= -1409.80700907279     IErMin=14 ErrMin= 9.47D-08
 ErrMax= 9.47D-08  0.00D+00 EMaxC= 1.00D-01 BMatC= 3.01D-12 BMatP= 1.54D-11
 IDIUse=1 WtCom= 1.00D+00 WtEn= 0.00D+00
 Coeff-Com: -0.587D-05 0.126D-04 0.797D-05-0.819D-05-0.139D-03-0.180D-03
 Coeff-Com:  0.391D-03 0.194D-02 0.227D-02-0.879D-02-0.398D-01-0.556D-01
 Coeff-Com:  0.329D+00 0.771D+00
 Coeff:     -0.587D-05 0.126D-04 0.797D-05-0.819D-05-0.139D-03-0.180D-03
 Coeff:      0.391D-03 0.194D-02 0.227D-02-0.879D-02-0.398D-01-0.556D-01
 Coeff:      0.329D+00 0.771D+00
 Gap=     0.205 Goal=   None    Shift=    0.000
 RMSDP=4.51D-09 MaxDP=2.09D-07 DE=-3.73D-11 OVMax= 1.50D-06

 Error on total polarization charges =  0.03864
 SCF Done:  E(RwB97XD) =  -1409.80700907     A.U. after   14 cycles
            NFock= 14  Conv=0.45D-08     -V/T= 2.0053
 KE= 1.402326987151D+03 PE=-9.139417615464D+03 EE= 3.398853205885D+03
 SMD-CDS (non-electrostatic) energy       (kcal/mol) =      -9.64
 (included in total energy above)
 Leave Link  502 at Fri Apr  2 15:41:56 2021, MaxMem=  5242880000 cpu:     26170.4
 (Enter /opt/nce/packages/global/g09/l601.exe)
 Copying SCF densities to generalized density rwf, IOpCl= 0 IROHF=0.

 **********************************************************************

            Population analysis using the SCF density.

 **********************************************************************

 Alpha  occ. eigenvalues --  -19.23864 -19.23864 -19.23827 -19.23827 -14.49368
 Alpha  occ. eigenvalues --  -14.49368 -10.41470 -10.41469 -10.41240 -10.41240
 Alpha  occ. eigenvalues --  -10.33208 -10.33208 -10.33177 -10.33173 -10.32742
 Alpha  occ. eigenvalues --  -10.32742 -10.32639 -10.32637 -10.31819 -10.31819
 Alpha  occ. eigenvalues --  -10.31786 -10.31786 -10.31377 -10.31377 -10.31376
 Alpha  occ. eigenvalues --  -10.31376 -10.31031 -10.31031 -10.30954 -10.30954
 Alpha  occ. eigenvalues --  -10.30947 -10.30947  -1.17475  -1.17475  -1.15609
 Alpha  occ. eigenvalues --   -1.15609  -1.04835  -1.04814  -1.02075  -0.99596
 Alpha  occ. eigenvalues --   -0.96193  -0.94335  -0.94050  -0.89057  -0.88259
 Alpha  occ. eigenvalues --   -0.87150  -0.85801  -0.83410  -0.82680  -0.80848
 Alpha  occ. eigenvalues --   -0.78994  -0.76030  -0.75497  -0.74557  -0.73970
 Alpha  occ. eigenvalues --   -0.71946  -0.71314  -0.69368  -0.66990  -0.64482
 Alpha  occ. eigenvalues --   -0.64005  -0.62960  -0.61824  -0.60384  -0.59397
 Alpha  occ. eigenvalues --   -0.57809  -0.57757  -0.57728  -0.57463  -0.56872
 Alpha  occ. eigenvalues --   -0.55582  -0.55184  -0.54199  -0.53883  -0.53155
 Alpha  occ. eigenvalues --   -0.53056  -0.52779  -0.52435  -0.51687  -0.50619
 Alpha  occ. eigenvalues --   -0.50576  -0.49933  -0.49897  -0.49156  -0.49102
 Alpha  occ. eigenvalues --   -0.48810  -0.48440  -0.47592  -0.47443  -0.47294
 Alpha  occ. eigenvalues --   -0.46819  -0.45481  -0.44669  -0.43806  -0.42184
 Alpha  occ. eigenvalues --   -0.41718  -0.41627  -0.37880  -0.37747  -0.36495
 Alpha  occ. eigenvalues --   -0.36053  -0.35997  -0.35984  -0.34996  -0.34744
 Alpha  occ. eigenvalues --   -0.34487  -0.34058  -0.27631
 Alpha virt. eigenvalues --   -0.07158  -0.00339   0.00495   0.01814   0.04122
 Alpha virt. eigenvalues --    0.05786   0.06013   0.09334   0.12945   0.12968
 Alpha virt. eigenvalues --    0.13304   0.13578   0.14282   0.15001   0.15597
 Alpha virt. eigenvalues --    0.15792   0.16319   0.16738   0.17429   0.18173
 Alpha virt. eigenvalues --    0.18764   0.18803   0.19019   0.19204   0.19604
 Alpha virt. eigenvalues --    0.20159   0.20688   0.20883   0.21400   0.21863
 Alpha virt. eigenvalues --    0.21894   0.23229   0.23719   0.23820   0.24106
 Alpha virt. eigenvalues --    0.24648   0.25427   0.25993   0.26113   0.26492
 Alpha virt. eigenvalues --    0.26910   0.27154   0.27494   0.27911   0.27989
 Alpha virt. eigenvalues --    0.28036   0.28521   0.28689   0.28758   0.29244
 Alpha virt. eigenvalues --    0.29258   0.29799   0.29933   0.30047   0.31003
 Alpha virt. eigenvalues --    0.31105   0.31541   0.31740   0.31781   0.32103
 Alpha virt. eigenvalues --    0.32556   0.32790   0.33205   0.33503   0.34820
 Alpha virt. eigenvalues --    0.34910   0.34976   0.35143   0.35882   0.35904
 Alpha virt. eigenvalues --    0.36499   0.36507   0.37142   0.37830   0.38029
 Alpha virt. eigenvalues --    0.38435   0.38490   0.39220   0.40226   0.40377
 Alpha virt. eigenvalues --    0.40529   0.40576   0.40909   0.41348   0.42398
 Alpha virt. eigenvalues --    0.42595   0.42657   0.42868   0.43139   0.43346
 Alpha virt. eigenvalues --    0.43907   0.44004   0.44815   0.45073   0.45216
 Alpha virt. eigenvalues --    0.46007   0.46141   0.46213   0.46671   0.47363
 Alpha virt. eigenvalues --    0.47748   0.47857   0.47884   0.48744   0.48854
 Alpha virt. eigenvalues --    0.49877   0.49891   0.50194   0.50390   0.51068
 Alpha virt. eigenvalues --    0.51957   0.52368   0.52421   0.53001   0.53100
 Alpha virt. eigenvalues --    0.53774   0.54166   0.54581   0.55142   0.55411
 Alpha virt. eigenvalues --    0.56020   0.56214   0.57107   0.57220   0.57434
 Alpha virt. eigenvalues --    0.57573   0.57593   0.58348   0.58971   0.59238
 Alpha virt. eigenvalues --    0.59290   0.59597   0.60077   0.60325   0.60677
 Alpha virt. eigenvalues --    0.61342   0.62193   0.62349   0.62571   0.62696
 Alpha virt. eigenvalues --    0.63414   0.63461   0.64514   0.64624   0.65608
 Alpha virt. eigenvalues --    0.65638   0.65666   0.65895   0.66429   0.66651
 Alpha virt. eigenvalues --    0.67443   0.67949   0.68085   0.68397   0.68515
 Alpha virt. eigenvalues --    0.68766   0.69358   0.69974   0.70023   0.70115
 Alpha virt. eigenvalues --    0.70182   0.70304   0.71087   0.71130   0.71667
 Alpha virt. eigenvalues --    0.71974   0.72526   0.73564   0.73648   0.73865
 Alpha virt. eigenvalues --    0.76161   0.76230   0.76461   0.77201   0.77312
 Alpha virt. eigenvalues --    0.77415   0.77998   0.78283   0.78504   0.78601
 Alpha virt. eigenvalues --    0.79128   0.79489   0.80071   0.80346   0.80953
 Alpha virt. eigenvalues --    0.80974   0.81277   0.81536   0.82035   0.82485
 Alpha virt. eigenvalues --    0.82917   0.82960   0.83350   0.83996   0.84227
 Alpha virt. eigenvalues --    0.84833   0.85673   0.86016   0.86111   0.86251
 Alpha virt. eigenvalues --    0.86818   0.86941   0.88004   0.88376   0.89038
 Alpha virt. eigenvalues --    0.89349   0.89914   0.90146   0.90486   0.91472
 Alpha virt. eigenvalues --    0.91568   0.92015   0.92084   0.92650   0.94320
 Alpha virt. eigenvalues --    0.94548   0.94612   0.95055   0.95149   0.95273
 Alpha virt. eigenvalues --    0.95486   0.96624   0.97341   0.97996   0.98182
 Alpha virt. eigenvalues --    0.98354   0.98751   1.00259   1.00960   1.02241
 Alpha virt. eigenvalues --    1.02807   1.03607   1.03796   1.04650   1.04755
 Alpha virt. eigenvalues --    1.04853   1.05058   1.06333   1.06423   1.06446
[...]
    43  C    0.000085  -0.002779   0.000001   0.000099   0.006869   0.008374
    44  H    0.000345  -0.000092   0.000000  -0.000002  -0.000571  -0.001569
    45  H   -0.000877  -0.000036   0.000000   0.000010   0.006825   0.001199
    46  H    0.000195  -0.000008  -0.000000  -0.000003  -0.000224  -0.001585
              25         26         27         28         29         30
     1  C    0.000402  -0.000059   0.000003  -0.000001   0.010185   0.005162
     2  C   -0.001293   0.000744  -0.000245  -0.000006   0.001901   0.000461
     3  C   -0.000090   0.000979  -0.000404  -0.000080   0.007503   0.000024
     4  C    0.000002  -0.000012   0.000007   0.000002  -0.029385  -0.014378
     5  C   -0.000001  -0.000017   0.000015   0.000000   0.157846  -0.201944
     6  C    0.000012   0.000006  -0.000002   0.000000  -0.072605   0.068258
     7  H    0.000070  -0.000002   0.000000   0.000000  -0.000910  -0.000221
     8  C   -0.000005   0.018260  -0.031010  -0.001205  -0.001041   0.000065
     9  C    0.000000   0.000072  -0.000318  -0.000001  -0.041631  -0.001349
    10  H   -0.000000   0.000000   0.000000   0.000000  -0.014178   0.020977
    11  C   -0.000000  -0.000974   0.001777   0.000010   0.004708   0.000284
    12  C   -0.000001   0.001020   0.005689   0.000365  -0.000963  -0.000023
    13  H    0.000000   0.000012   0.000070  -0.000000   0.000303   0.000003
    14  H    0.000000   0.001825   0.005449   0.000066   0.000008  -0.000000
    15  C    0.019501  -0.004201   0.000801   0.000456  -0.000432  -0.000034
    16  C   -0.002223  -0.121046   0.020508  -0.002152  -0.000074  -0.000001
    17  C   -0.053564  -0.000226   0.000015  -0.000011   0.000071   0.000003
    18  C    0.000457   0.078278  -0.072955   0.018827   0.000039   0.000001
    19  C    0.011109  -0.047827  -0.003543   0.010386   0.000000   0.000000
    20  C    0.482321  -0.000542  -0.000012   0.000005   0.000000   0.000000
    21  H   -0.006682  -0.000009  -0.000000   0.000000   0.000008   0.000001
    22  C   -0.000019   0.242697   0.473878  -0.053939   0.000005   0.000000
    23  C   -0.000701   0.147097   0.016901  -0.093405  -0.000000   0.000000
    24  C   -0.097717  -0.009542   0.000238  -0.000697   0.000000  -0.000000
    25  H    0.480219   0.000015  -0.000000  -0.000001  -0.000000  -0.000000
    26  C    0.000015   5.409278  -0.054084   0.480677  -0.000000  -0.000000
    27  H   -0.000000  -0.054084   0.498857  -0.006586   0.000000   0.000000
    28  H   -0.000001   0.480677  -0.006586   0.479061   0.000000   0.000000
    29  C   -0.000000  -0.000000   0.000000   0.000000   4.676511   0.700726
    30  O   -0.000000  -0.000000   0.000000   0.000000   0.700726   7.952203
    31  C    0.000000   0.000001   0.000007  -0.000000  -0.070087  -0.003707
    32  O   -0.000000   0.000000   0.000001  -0.000000  -0.001977  -0.000207
    33  N    0.000000   0.000000   0.000000   0.000000   0.457173  -0.104762
    34  C    0.000303  -0.072584  -0.000910  -0.014177  -0.000000   0.000000
    35  O    0.000003   0.068266  -0.000221   0.020980   0.000000  -0.000000
    36  C   -0.014148   0.001692   0.000013   0.000180  -0.000000  -0.000000
    37  O    0.021666   0.000261  -0.000000   0.000002  -0.000000   0.000000
    38  N    0.001459   0.033045  -0.000010   0.001361   0.000000   0.000000
    39  C    0.000000  -0.000000  -0.000000   0.000000  -0.049920  -0.019018
    40  H    0.000000   0.000000  -0.000000  -0.000000   0.005528   0.000859
    41  H   -0.000000  -0.000000  -0.000000   0.000000   0.005198   0.000792
    42  H    0.000000   0.000000  -0.000000   0.000000  -0.024469   0.018051
    43  C   -0.000175  -0.001312   0.000000  -0.000044   0.000000  -0.000000
    44  H   -0.000007  -0.000012  -0.000000  -0.000000   0.000000  -0.000000
    45  H   -0.000003  -0.000467   0.000000  -0.000035   0.000000  -0.000000
    46  H   -0.000002  -0.000022   0.000000  -0.000001  -0.000000  -0.000000
              31         32         33         34         35         36
     1  C   -0.001749  -0.000027  -0.000067   0.000005   0.000000   0.000090
     2  C    0.002640   0.000075  -0.000252   0.000039   0.000001  -0.000896
     3  C    0.028070   0.000924  -0.008644  -0.000074  -0.000001  -0.000073
     4  C   -0.065246  -0.009541  -0.078207   0.000000   0.000000   0.000001
     5  C   -0.039201  -0.002056  -0.093044  -0.000000   0.000000  -0.000000
     6  C    0.001695   0.000261   0.033041  -0.000000  -0.000000   0.000001
     7  H    0.000013  -0.000000  -0.000010   0.000000   0.000000   0.000007
     8  C   -0.009825   0.000038  -0.000073  -0.000431  -0.000034   0.000071
     9  C    0.164493  -0.206385  -0.085462   0.000000  -0.000000   0.000000
    10  H    0.000181   0.000002   0.001360   0.000000   0.000000  -0.000000
    11  C   -0.094213   0.066524   0.034616   0.000000   0.000000  -0.000000
    12  C    0.021367   0.006614  -0.000211   0.000071   0.000003   0.000001
    13  H   -0.014147   0.021668   0.001459  -0.000000  -0.000000   0.000000
    14  H   -0.000816  -0.000205  -0.000012   0.000008   0.000001   0.000000
    15  C    0.000071   0.000000  -0.000010  -0.001042   0.000065  -0.009830
    16  C   -0.000073  -0.000001  -0.000003   0.007496   0.000024   0.028077
    17  C    0.000001   0.000000   0.000001  -0.000963  -0.000023   0.021374
    18  C   -0.000896  -0.000043  -0.000007   0.001908   0.000462   0.002641
    19  C    0.000001   0.000000  -0.000000  -0.029363  -0.014378  -0.065258
    20  C   -0.000000  -0.000000   0.000000   0.004709   0.000284  -0.094226
    21  H    0.000000   0.000000   0.000000   0.000008  -0.000000  -0.000816
    22  C    0.000090   0.000004   0.000001   0.010175   0.005163  -0.001749
    23  C   -0.000000  -0.000000  -0.000000   0.157820  -0.201959  -0.039200
    24  C    0.000000   0.000000  -0.000000  -0.041634  -0.001349   0.164513
    25  H    0.000000  -0.000000   0.000000   0.000303   0.000003  -0.014148
    26  C    0.000001   0.000000   0.000000  -0.072584   0.068266   0.001692
    27  H    0.000007   0.000001   0.000000  -0.000910  -0.000221   0.000013
    28  H   -0.000000  -0.000000   0.000000  -0.014177   0.020980   0.000180
    29  C   -0.070087  -0.001977   0.457173  -0.000000   0.000000  -0.000000
    30  O   -0.003707  -0.000207  -0.104762   0.000000  -0.000000  -0.000000
    31  C    4.714091   0.707792   0.435909  -0.000000  -0.000000  -0.000000
    32  O    0.707792   7.931151  -0.111653  -0.000000   0.000000  -0.000000
    33  N    0.435909  -0.111653   6.441743   0.000000   0.000000   0.000000
    34  C   -0.000000  -0.000000   0.000000   4.676493   0.700725  -0.070084
    35  O   -0.000000   0.000000   0.000000   0.700725   7.952209  -0.003706
    36  C   -0.000000  -0.000000   0.000000  -0.070084  -0.003706   4.714109
    37  O   -0.000000  -0.000000   0.000000  -0.001977  -0.000207   0.707788
    38  N    0.000000   0.000000   0.000000   0.457188  -0.104761   0.435890
    39  C   -0.055861   0.005628   0.251818   0.000000  -0.000000   0.000000
    40  H   -0.010383   0.002592  -0.031957  -0.000000  -0.000000   0.000000
    41  H   -0.009308   0.002085  -0.032752   0.000000  -0.000000  -0.000000
    42  H    0.008855   0.001653  -0.029381   0.000000  -0.000000   0.000000
    43  C    0.000000  -0.000000   0.000000  -0.049921  -0.019021  -0.055859
    44  H   -0.000000   0.000000  -0.000000   0.005195   0.000793  -0.009312
    45  H    0.000000  -0.000000  -0.000000  -0.024469   0.018053   0.008855
    46  H    0.000000   0.000000   0.000000   0.005531   0.000858  -0.010378
              37         38         39         40         41         42
     1  C    0.000004   0.000001   0.000099  -0.000003  -0.000002   0.000010
     2  C   -0.000043  -0.000007  -0.000030   0.000003   0.000002  -0.000008
     3  C   -0.000001  -0.000003   0.000712   0.000019   0.000028   0.000009
     4  C    0.000000  -0.000000   0.000085   0.000198   0.000342  -0.000877
     5  C   -0.000000  -0.000000   0.006870  -0.000228  -0.000567   0.006825
     6  C    0.000000   0.000000  -0.001313  -0.000022  -0.000012  -0.000466
     7  H    0.000001   0.000000   0.000000   0.000000  -0.000000   0.000000
     8  C    0.000000  -0.000010  -0.000055  -0.000006  -0.000006   0.000003
     9  C    0.000000  -0.000000   0.008375  -0.001586  -0.001568   0.001199
    10  H   -0.000000   0.000000  -0.000044  -0.000001  -0.000000  -0.000035
    11  C   -0.000000   0.000000  -0.002780  -0.000009  -0.000091  -0.000036
    12  C    0.000000   0.000001   0.000074   0.000006   0.000006  -0.000001
    13  H   -0.000000   0.000000  -0.000175  -0.000002  -0.000007  -0.000003
    14  H    0.000000   0.000000   0.000001  -0.000000   0.000000   0.000000
    15  C    0.000037  -0.000073   0.000000   0.000000  -0.000000   0.000000
    16  C    0.000925  -0.008644   0.000000   0.000000   0.000000  -0.000000
    17  C    0.006611  -0.000211  -0.000000  -0.000000   0.000000  -0.000000
    18  C    0.000075  -0.000251  -0.000000  -0.000000  -0.000000   0.000000
    19  C   -0.009538  -0.078200   0.000000   0.000000  -0.000000  -0.000000
    20  C    0.066511   0.034609  -0.000000  -0.000000   0.000000   0.000000
    21  H   -0.000205  -0.000012  -0.000000  -0.000000   0.000000  -0.000000
    22  C   -0.000027  -0.000067  -0.000000   0.000000  -0.000000  -0.000000
    23  C   -0.002056  -0.093055   0.000000  -0.000000  -0.000000   0.000000
    24  C   -0.206360  -0.085457   0.000000   0.000000   0.000000  -0.000000
    25  H    0.021666   0.001459   0.000000   0.000000  -0.000000   0.000000
    26  C    0.000261   0.033045  -0.000000   0.000000  -0.000000   0.000000
    27  H   -0.000000  -0.000010  -0.000000  -0.000000  -0.000000  -0.000000
    28  H    0.000002   0.001361   0.000000  -0.000000   0.000000   0.000000
    29  C   -0.000000   0.000000  -0.049920   0.005528   0.005198  -0.024469
    30  O    0.000000   0.000000  -0.019018   0.000859   0.000792   0.018051
    31  C   -0.000000   0.000000  -0.055861  -0.010383  -0.009308   0.008855
    32  O   -0.000000   0.000000   0.005628   0.002592   0.002085   0.001653
    33  N    0.000000   0.000000   0.251818  -0.031957  -0.032752  -0.029381
    34  C   -0.001977   0.457188   0.000000  -0.000000   0.000000   0.000000
    35  O   -0.000207  -0.104761  -0.000000  -0.000000  -0.000000  -0.000000
    36  C    0.707788   0.435890   0.000000   0.000000  -0.000000   0.000000
    37  O    7.931143  -0.111654  -0.000000   0.000000   0.000000  -0.000000
    38  N   -0.111654   6.441750   0.000000   0.000000  -0.000000  -0.000000
    39  C   -0.000000   0.000000   4.919118   0.411744   0.413870   0.408552
    40  H    0.000000   0.000000   0.411744   0.515840  -0.028282  -0.018720
    41  H    0.000000  -0.000000   0.413870  -0.028282   0.514612  -0.019199
    42  H   -0.000000  -0.000000   0.408552  -0.018720  -0.019199   0.481445
    43  C    0.005629   0.251819   0.000000  -0.000000  -0.000000   0.000000
    44  H    0.002087  -0.032745  -0.000000  -0.000000   0.000000  -0.000000
    45  H    0.001653  -0.029381   0.000000  -0.000000  -0.000000   0.000000
    46  H    0.002589  -0.031964  -0.000000   0.000000  -0.000000  -0.000000
              43         44         45         46
     1  C   -0.000000  -0.000000  -0.000000   0.000000
     2  C   -0.000000  -0.000000   0.000000  -0.000000
     3  C    0.000000   0.000000  -0.000000   0.000000
     4  C    0.000000  -0.000000  -0.000000   0.000000
     5  C    0.000000  -0.000000   0.000000  -0.000000
     6  C   -0.000000  -0.000000   0.000000   0.000000
     7  H   -0.000000  -0.000000  -0.000000  -0.000000
     8  C    0.000000  -0.000000   0.000000   0.000000
     9  C    0.000000   0.000000  -0.000000   0.000000
    10  H    0.000000   0.000000   0.000000  -0.000000
    11  C   -0.000000   0.000000   0.000000  -0.000000
    12  C   -0.000000   0.000000  -0.000000  -0.000000
    13  H    0.000000  -0.000000   0.000000   0.000000
    14  H   -0.000000   0.000000  -0.000000  -0.000000
    15  C   -0.000055  -0.000006   0.000003  -0.000006
    16  C    0.000712   0.000028   0.000009   0.000019
    17  C    0.000074   0.000006  -0.000001   0.000006
    18  C   -0.000030   0.000002  -0.000008   0.000003
    19  C    0.000085   0.000345  -0.000877   0.000195
    20  C   -0.002779  -0.000092  -0.000036  -0.000008
    21  H    0.000001   0.000000   0.000000  -0.000000
    22  C    0.000099  -0.000002   0.000010  -0.000003
    23  C    0.006869  -0.000571   0.006825  -0.000224
    24  C    0.008374  -0.001569   0.001199  -0.001585
    25  H   -0.000175  -0.000007  -0.000003  -0.000002
    26  C   -0.001312  -0.000012  -0.000467  -0.000022
    27  H    0.000000  -0.000000   0.000000   0.000000
    28  H   -0.000044  -0.000000  -0.000035  -0.000001
    29  C    0.000000   0.000000   0.000000  -0.000000
    30  O   -0.000000  -0.000000  -0.000000  -0.000000
    31  C    0.000000  -0.000000   0.000000   0.000000
    32  O   -0.000000   0.000000  -0.000000   0.000000
    33  N    0.000000  -0.000000  -0.000000   0.000000
    34  C   -0.049921   0.005195  -0.024469   0.005531
    35  O   -0.019021   0.000793   0.018053   0.000858
    36  C   -0.055859  -0.009312   0.008855  -0.010378
    37  O    0.005629   0.002087   0.001653   0.002589
    38  N    0.251819  -0.032745  -0.029381  -0.031964
    39  C    0.000000  -0.000000   0.000000  -0.000000
    40  H   -0.000000  -0.000000  -0.000000   0.000000
    41  H   -0.000000   0.000000  -0.000000  -0.000000
    42  H    0.000000  -0.000000   0.000000  -0.000000
    43  C    4.919119   0.413866   0.408553   0.411748
    44  H    0.413866   0.514620  -0.019199  -0.028282
    45  H    0.408553  -0.019199   0.481444  -0.018719
    46  H    0.411748  -0.028282  -0.018719   0.515835
 Mulliken charges:
               1
     1  C   -0.207844
     2  C    0.115439
     3  C   -0.048445
     4  C   -0.014040
     5  C    0.071775
     6  C   -0.171274
     7  H    0.146080
     8  C    0.122039
     9  C    0.071586
    10  H    0.159965
    11  C   -0.174048
    12  C   -0.207122
    13  H    0.159086
    14  H    0.146266
    15  C    0.121860
    16  C   -0.048471
    17  C   -0.207056
    18  C    0.115650
    19  C   -0.014027
    20  C   -0.174028
    21  H    0.146273
    22  C   -0.207917
    23  C    0.071773
    24  C    0.071570
    25  H    0.159092
    26  C   -0.171286
    27  H    0.146069
    28  H    0.159961
    29  C    0.279955
    30  O   -0.422224
    31  C    0.290234
    32  O   -0.414918
    33  N   -0.080614
    34  C    0.279955
    35  O   -0.422228
    36  C    0.290229
    37  O   -0.414914
    38  N   -0.080615
    39  C   -0.297751
    40  H    0.154409
    41  H    0.154860
    42  H    0.166590
    43  C   -0.297751
    44  H    0.154858
    45  H    0.166590
    46  H    0.154409
 Sum of Mulliken charges =  -0.00000
 Mulliken charges with hydrogens summed into heavy atoms:
               1
     1  C   -0.061764
     2  C    0.115439
     3  C   -0.048445
     4  C   -0.014040
     5  C    0.071775
     6  C   -0.011309
     8  C    0.122039
     9  C    0.071586
    11  C   -0.014962
    12  C   -0.060856
    15  C    0.121860
    16  C   -0.048471
    17  C   -0.060783
    18  C    0.115650
    19  C   -0.014027
    20  C   -0.014935
    22  C   -0.061848
    23  C    0.071773
    24  C    0.071570
    26  C   -0.011325
    29  C    0.279955
    30  O   -0.422224
    31  C    0.290234
    32  O   -0.414918
    33  N   -0.080614
    34  C    0.279955
    35  O   -0.422228
    36  C    0.290229
    37  O   -0.414914
    38  N   -0.080615
    39  C    0.178108
    43  C    0.178106
 Electronic spatial extent (au):  <R**2>=          16200.9284
 Charge=             -0.0000 electrons
 Dipole moment (field-independent basis, Debye):
    X=              0.0001    Y=             -0.0000    Z=             -0.0330  Tot=              0.0330
 Quadrupole moment (field-independent basis, Debye-Ang):
   XX=           -224.8144   YY=           -180.2457   ZZ=           -180.9085
   XY=             -0.1137   XZ=             -0.0066   YZ=              0.0067
 Traceless Quadrupole moment (field-independent basis, Debye-Ang):
   XX=            -29.4916   YY=             15.0772   ZZ=             14.4144
   XY=             -0.1137   XZ=             -0.0066   YZ=              0.0067
 Octapole moment (field-independent basis, Debye-Ang**2):
  XXX=              0.0062  YYY=              0.0021  ZZZ=              0.2340  XYY=             -0.0033
  XXY=              0.0022  XXZ=             -1.8293  XZZ=              0.0029  YZZ=             -0.0020
  YYZ=             -0.3627  XYZ=             -7.0931
 Hexadecapole moment (field-independent basis, Debye-Ang**3):
 XXXX=         -18619.3226 YYYY=          -3002.2622 ZZZZ=           -206.7160 XXXY=            -23.9303
 XXXZ=             -0.0691 YYYX=             -4.8397 YYYZ=              0.0472 ZZZX=              0.0303
 ZZZY=             -0.0074 XXYY=          -4569.7871 XXZZ=          -2964.4291 YYZZ=           -605.0521
 XXYZ=              0.1635 YYXZ=             -0.0716 ZZXY=             11.0216
 N-N= 2.947370043396D+03 E-N=-9.178191461399D+03  KE= 1.403384349085D+03
 Leave Link  601 at Sun Apr  4 03:20:41 2021, MaxMem=  5242880000 cpu:         7.4
 (Enter /opt/nce/packages/global/g09/l9999.exe)
 1\1\GINC-CN014\SP\RwB97XD TD-FC\Gen\C26H14N2O4\PNG4RJV\04-Apr-2021\0\\
 #p wB97XD chkbasis geom=allcheck Guess=Read int=ultrafine scrf=(SMD,so
 lvent=Dichloromethane) td=(NStates=30)\\Title\\0,1\C,0,0.0725677233,1.
 4627166436,2.4142639377\C,0,0.0180330735,0.7331365192,1.243665601\C,0,
 -0.0035910348,1.4275403148,0.0025869161\C,0,-0.0040821983,2.8427432175
 ,0.0051277857\C,0,0.044412344,3.5483554501,1.2228060879\C,0,0.08847189
 04,2.8577001488,2.4064951802\H,0,0.106097766,0.9650580884,3.3721751935
 \C,0,-0.0246667003,0.7377767474,-1.2411990634\C,0,-0.0535243132,3.5512
 225076,-1.2104270129\H,0,0.1316653264,3.4027489509,3.3398550141\C,0,-0
 .0978326129,2.8660277639,-2.3970074043\C,0,-0.0803759216,1.4710593292,
 -2.4094937705\H,0,-0.1419063532,3.4147493828,-3.3282771479\H,0,-0.1134
 11716,0.9762706844,-3.3689010995\C,0,-0.0204450621,-0.7378227125,1.241
 0897779\C,0,-0.001021342,-1.4275428631,-0.0027489125\C,0,-0.0724210165
 ,-1.471212238,2.4094971721\C,0,0.0162941444,-0.7331047925,-1.243876272
 4\C,0,0.0010445469,-2.8427442863,-0.0052937042\C,0,-0.0873815698,-2.86
 62134986,2.3970441339\H,0,-0.104383096,-0.9764764326,3.3689683627\C,0,
 0.0690362151,-1.462575117,-2.414624512\C,0,0.047968432,-3.5482539223,-
 1.2230975649\C,0,-0.0443763601,-3.5513277525,1.2103664851\H,0,-0.12846
 08233,-3.415020096,3.3284010418\C,0,0.0876823261,-2.8575228613,-2.4068
 959356\H,0,0.098988922,-0.9648748278,-3.3726330782\H,0,0.1295077859,-3
 .4025032544,-3.3403587911\C,0,0.0507315759,5.0272593057,1.2415742994\O
 ,0,0.0970647341,5.6574336622,2.2778938141\C,0,-0.0599092616,5.02822057
 01,-1.2160031424\O,0,-0.1125656394,5.6775219531,-2.2407248377\N,0,-0.0
 005934008,5.6733573116,0.0114087632\C,0,0.057189505,-5.0271398406,-1.2
 418867256\O,0,0.103136284,-5.6572136421,-2.2782849183\C,0,-0.047924291
 6,-5.0283361151,1.2159407533\O,0,-0.0970703963,-5.6777509945,2.2407633
 458\N,0,0.0100458829,-5.673347502,-0.0116093993\C,0,0.0003358862,7.130
 3896389,-0.0210422446\H,0,0.8461879222,7.487219646,-0.60663791\H,0,-0.
 9206534135,7.4938204215,-0.4751650827\H,0,0.076775407,7.4941379445,0.9
 973218763\C,0,0.0142464543,-7.130373851,0.0208374708\H,0,-0.9048749245
 ,-7.4958197014,0.4771181303\H,0,0.0890971874,-7.4939495886,-0.99770605
 87\H,0,0.8622551129,-7.4853453122,0.6044444457\\Version=ES64L-G09RevE.
 01\State=1-A\HF=-1409.811885\RMSD=5.558e-09\PG=C01 [X(C26H14N2O4)]\\@


 THERE'S A SUCKER BORN EVERY MINUTE

              -- PHINEAS TAYLOR (P.T.) BARNUM
 Job cpu time:       2 days  9 hours 41 minutes  9.1 seconds.
 File lengths (MBytes):  RWF=   5683 Int=      0 D2E=      0 Chk=   1037 Scr=      1
 Normal termination of Gaussian 09 at Sun Apr  4 03:20:43 2021.
