
                                 *****************
                                 * O   R   C   A *
                                 *****************

                                            #,                                       
                                            ###                                      
                                            ####                                     
                                            #####                                    
                                            ######                                   
                                           ########,                                 
                                     ,,################,,,,,                         
                               ,,#################################,,                 
                          ,,##########################################,,             
                       ,#########################################, ''#####,          
                    ,#############################################,,   '####,        
                  ,##################################################,,,,####,       
                ,###########''''           ''''###############################       
              ,#####''   ,,,,##########,,,,          '''####'''          '####       
            ,##' ,,,,###########################,,,                        '##       
           ' ,,###''''                  '''############,,,                           
         ,,##''                                '''############,,,,        ,,,,,,###''
      ,#''                                            '''#######################'''  
     '                                                          ''''####''''         
             ,#######,   #######,   ,#######,      ##                                
            ,#'     '#,  ##    ##  ,#'     '#,    #''#        ######   ,####,        
            ##       ##  ##   ,#'  ##            #'  '#       #        #'  '#        
            ##       ##  #######   ##           ,######,      #####,   #    #        
            '#,     ,#'  ##    ##  '#,     ,#' ,#      #,         ##   #,  ,#        
             '#######'   ##     ##  '#######'  #'      '#     #####' # '####'        



                  #######################################################
                  #                        -***-                        #
                  #          Department of theory and spectroscopy      #
                  #    Directorship and core code : Frank Neese         #
                  #        Max Planck Institute fuer Kohlenforschung    #
                  #                Kaiser Wilhelm Platz 1               #
                  #                 D-45470 Muelheim/Ruhr               #
                  #                      Germany                        #
                  #                                                     #
                  #                  All rights reserved                #
                  #                        -***-                        #
                  #######################################################


                         Program Version 5.0.2 -  RELEASE  -


 With contributions from (in alphabetic order):
   Daniel Aravena         : Magnetic Suceptibility
   Michael Atanasov       : Ab Initio Ligand Field Theory (pilot matlab implementation)
   Alexander A. Auer      : GIAO ZORA, VPT2 properties, NMR spectrum
   Ute Becker             : Parallelization
   Giovanni Bistoni       : ED, misc. LED, open-shell LED, HFLD
   Martin Brehm           : Molecular dynamics
   Dmytro Bykov           : SCF Hessian
   Vijay G. Chilkuri      : MRCI spin determinant printing, contributions to CSF-ICE
   Dipayan Datta          : RHF DLPNO-CCSD density
   Achintya Kumar Dutta   : EOM-CC, STEOM-CC
   Dmitry Ganyushin       : Spin-Orbit,Spin-Spin,Magnetic field MRCI
   Miquel Garcia          : C-PCM and meta-GGA Hessian, CC/C-PCM, Gaussian charge scheme
   Yang Guo               : DLPNO-NEVPT2, F12-NEVPT2, CIM, IAO-localization
   Andreas Hansen         : Spin unrestricted coupled pair/coupled cluster methods
   Benjamin Helmich-Paris : MC-RPA, TRAH-SCF, COSX integrals
   Lee Huntington         : MR-EOM, pCC
   Robert Izsak           : Overlap fitted RIJCOSX, COSX-SCS-MP3, EOM
   Marcus Kettner         : VPT2
   Christian Kollmar      : KDIIS, OOCD, Brueckner-CCSD(T), CCSD density, CASPT2, CASPT2-K
   Simone Kossmann        : Meta GGA functionals, TD-DFT gradient, OOMP2, MP2 Hessian
   Martin Krupicka        : Initial AUTO-CI
   Lucas Lang             : DCDCAS
   Marvin Lechner         : AUTO-CI (C++ implementation), FIC-MRCC
   Dagmar Lenk            : GEPOL surface, SMD
   Dimitrios Liakos       : Extrapolation schemes; Compound Job, initial MDCI parallelization
   Dimitrios Manganas     : Further ROCIS development; embedding schemes
   Dimitrios Pantazis     : SARC Basis sets
   Anastasios Papadopoulos: AUTO-CI, single reference methods and gradients
   Taras Petrenko         : DFT Hessian,TD-DFT gradient, ASA, ECA, R-Raman, ABS, FL, XAS/XES, NRVS
   Peter Pinski           : DLPNO-MP2, DLPNO-MP2 Gradient
   Christoph Reimann      : Effective Core Potentials
   Marius Retegan         : Local ZFS, SOC
   Christoph Riplinger    : Optimizer, TS searches, QM/MM, DLPNO-CCSD(T), (RO)-DLPNO pert. Triples
   Tobias Risthaus        : Range-separated hybrids, TD-DFT gradient, RPA, STAB
   Michael Roemelt        : Original ROCIS implementation
   Masaaki Saitow         : Open-shell DLPNO-CCSD energy and density
   Barbara Sandhoefer     : DKH picture change effects
   Avijit Sen             : IP-ROCIS
   Kantharuban Sivalingam : CASSCF convergence, NEVPT2, FIC-MRCI
   Bernardo de Souza      : ESD, SOC TD-DFT
   Georgi Stoychev        : AutoAux, RI-MP2 NMR, DLPNO-MP2 response
   Willem Van den Heuvel  : Paramagnetic NMR
   Boris Wezisla          : Elementary symmetry handling
   Frank Wennmohs         : Technical directorship


 We gratefully acknowledge several colleagues who have allowed us to
 interface, adapt or use parts of their codes:
   Stefan Grimme, W. Hujo, H. Kruse, P. Pracht,  : VdW corrections, initial TS optimization,
                  C. Bannwarth, S. Ehlert          DFT functionals, gCP, sTDA/sTD-DF
   Ed Valeev, F. Pavosevic, A. Kumar             : LibInt (2-el integral package), F12 methods
   Garnet Chan, S. Sharma, J. Yang, R. Olivares  : DMRG
   Ulf Ekstrom                                   : XCFun DFT Library
   Mihaly Kallay                                 : mrcc  (arbitrary order and MRCC methods)
   Jiri Pittner, Ondrej Demel                    : Mk-CCSD
   Frank Weinhold                                : gennbo (NPA and NBO analysis)
   Christopher J. Cramer and Donald G. Truhlar   : smd solvation model
   Lars Goerigk                                  : TD-DFT with DH, B97 family of functionals
   V. Asgeirsson, H. Jonsson                     : NEB implementation
   FAccTs GmbH                                   : IRC, NEB, NEB-TS, DLPNO-Multilevel, CI-OPT
                                                   MM, QMMM, 2- and 3-layer-ONIOM, Crystal-QMMM,
                                                   LR-CPCM, SF, NACMEs, symmetry and pop. for TD-DFT,
                                                   nearIR, NL-DFT gradient (VV10), updates on ESD,
                                                   ML-optimized integration grids
   S Lehtola, MJT Oliveira, MAL Marques          : LibXC Library
   Liviu Ungur et al                             : ANISO software


 Your calculation uses the libint2 library for the computation of 2-el integrals
 For citations please refer to: http://libint.valeyev.net

 Your ORCA version has been built with support for libXC version: 5.1.0
 For citations please refer to: https://tddft.org/programs/libxc/

 This ORCA versions uses:
   CBLAS   interface :  Fast vector & matrix operations
   LAPACKE interface :  Fast linear algebra routines
   SCALAPACK package :  Parallel linear algebra routines
   Shared memory     :  Shared parallel matrices
   BLAS/LAPACK       :  OpenBLAS 0.3.15  USE64BITINT DYNAMIC_ARCH NO_AFFINITY Zen SINGLE_THREADED
        Core in use  :  Zen
   Copyright (c) 2011-2014, The OpenBLAS Project


Your calculation utilizes the SMD solvation module
Please cite in your paper:
A.V. Marenich, C.J. Cramer, D.G. Truhlar J. Phys. Chem. B, 113, (2009), 6378 

================================================================================

----- Orbital basis set information -----
Your calculation utilizes the basis: def2-TZVP
   F. Weigend and R. Ahlrichs, Phys. Chem. Chem. Phys. 7, 3297 (2005).

----- AuxJ basis set information -----
Your calculation utilizes the auxiliary basis: def2/J
   F. Weigend, Phys. Chem. Chem. Phys. 8, 1057 (2006).

----- AuxC basis set information -----
Your calculation utilizes the auxiliary basis: def2-TZVP/C
  H-La, Hf-Rn : A. Hellweg, C. Hattig, S. Hofener and W. Klopper, Theor. Chem. Acc. 117, 587 (2007).
        Ce-Lu : J. Chmela and M. E. Harding, Mol. Phys. (2018).

================================================================================
                                        WARNINGS
                       Please study these warnings very carefully!
================================================================================

INFO   : Checking CIS options ...
  ===> : (D) CORRECTION FOUND - SETTING MODE=3
  ===> : JK MODE FOUND - ACTIVATING RI-MP2 CODE
  ===> : MP2 AND CIS FOUND - CHECKING
WARNING: CIS(D) and MP2 runs must have the same orbital window
  ===> : adjusting orbital windows

WARNING: No MP2 level density has been requested!
         To caclulate MP2 level properties use
         %mp2 Density relaxed end
         or
         %mp2 Density unrelaxed end
         Otherwise for double-hybrid DFT only the energy is correct!

WARNING: The frozen-core approximation is turned on by default for 
         the MP2 part of double-hybrid DFT.

WARNING:  You are using a Range-Separated Double Hybrid functional with Doubles Correction 
          Changing Mode to RPA_AOINTS 


WARNING: CIS/ROCIS methods need fully converged wavefunctions
  ===> : Setting SCFConvForced true
         You can overwrite this default with %scf ConvForced false 


INFO   : the flag for use of the SHARK integral package has been found!

================================================================================
                                       INPUT FILE
================================================================================
NAME = PDI_1_M06L_def2TZVP_coords.inp
|  1> %maxcore 20000
|  2> %pal
|  3>  nprocs= 4
|  4> end
|  5> ! RI-wPBEPP86   def2-TZVP def2/J def2-TZVP/C RIJCOSX CPCM TightSCF
|  6> %TDDFT  
|  7>    NROOTS   30
|  8>    dcorr 1
|  9>    TDA      FALSE
| 10> END
| 11> 
| 12> %CPCM
| 13>    SMD          TRUE
| 14>    SMDsolvent   "DICHLOROMETHANE"
| 15> END
| 16>    
| 17> 
| 18> * xyz 0 1
| 19> C                   1.46464600   -2.41893700   -0.06271400
| 20> C                   0.72641700   -1.24107300   -0.01499900
| 21> C                   1.42205100   -0.00158200    0.00156800
| 22> C                   2.84382300   -0.00301800    0.00068500
| 23> C                   3.54933700   -1.22065000   -0.04191100
| 24> C                   2.85128800   -2.41046100   -0.07903600
| 25> H                   0.95923300   -3.37322000   -0.09116000
| 26> C                   0.72918700    1.23961000    0.01888700
| 27> C                   3.55035700    1.21370400    0.04281100
| 28> H                   3.40455200   -3.33956400   -0.11758900
| 29> C                   2.85603900    2.40537100    0.08161500
| 30> C                   1.46935800    2.41633000    0.06644900
| 31> H                   3.41148400    3.33328100    0.12004100
| 32> H                   0.96535600    3.37133800    0.09545200
| 33> C                  -0.72918900   -1.23962400    0.01882700
| 34> C                  -1.42205000    0.00157300    0.00165600
| 35> C                  -1.46936300   -2.41633800    0.06659300
| 36> C                  -0.72641800    1.24106800   -0.01473900
| 37> C                  -2.84382100    0.00301000    0.00079900
| 38> C                  -2.85604700   -2.40537900    0.08185800
| 39> H                  -0.96536200   -3.37134200    0.09572600
| 40> C                  -1.46464200    2.41895300   -0.06206700
| 41> C                  -3.54932500    1.22065700   -0.04173700
| 42> C                  -3.55037000   -1.21371600    0.04297400
| 43> H                  -3.41148900   -3.33328500    0.12042700
| 44> C                  -2.85128100    2.41047900   -0.07852000
| 45> H                  -0.95922500    3.37324200   -0.09015400
| 46> H                  -3.40455300    3.33958500   -0.11689700
| 47> C                   5.01757000   -1.24515300   -0.04927900
| 48> O                   5.65530900   -2.28354200   -0.09105200
| 49> C                   5.01650500    1.22652800    0.04761100
| 50> O                   5.67372900    2.25332000    0.09285300
| 51> N                   5.66106700   -0.00727100   -0.00462900
| 52> C                  -5.01755500    1.24515000   -0.04943100
| 53> O                  -5.65528800    2.28353000   -0.09150600
| 54> C                  -5.01651700   -1.22652700    0.04780100
| 55> O                  -5.67375700   -2.25329900    0.09321200
| 56> N                  -5.66106400    0.00727200   -0.00477200
| 57> C                   7.11459700    0.02798000   -0.00696600
| 58> H                   7.47294100    0.61119000   -0.85250200
| 59> H                   7.48161400    0.49099800    0.90692800
| 60> H                   7.47983500   -0.98932600   -0.07691200
| 61> C                  -7.11459300   -0.02797600   -0.00736100
| 62> H                  -7.48180000   -0.49059900    0.90665800
| 63> H                  -7.47981200    0.98930300   -0.07779800
| 64> H                  -7.47276200   -0.61154600   -0.85272200
| 65> *
| 66> 
| 67> 
| 68>                          ****END OF INPUT****
================================================================================

                       ****************************
                       * Single Point Calculation *
                       ****************************

---------------------------------
CARTESIAN COORDINATES (ANGSTROEM)
---------------------------------
  C      1.464646   -2.418937   -0.062714
  C      0.726417   -1.241073   -0.014999
  C      1.422051   -0.001582    0.001568
  C      2.843823   -0.003018    0.000685
  C      3.549337   -1.220650   -0.041911
  C      2.851288   -2.410461   -0.079036
  H      0.959233   -3.373220   -0.091160
  C      0.729187    1.239610    0.018887
  C      3.550357    1.213704    0.042811
  H      3.404552   -3.339564   -0.117589
  C      2.856039    2.405371    0.081615
  C      1.469358    2.416330    0.066449
  H      3.411484    3.333281    0.120041
  H      0.965356    3.371338    0.095452
  C     -0.729189   -1.239624    0.018827
  C     -1.422050    0.001573    0.001656
  C     -1.469363   -2.416338    0.066593
  C     -0.726418    1.241068   -0.014739
  C     -2.843821    0.003010    0.000799
  C     -2.856047   -2.405379    0.081858
  H     -0.965362   -3.371342    0.095726
  C     -1.464642    2.418953   -0.062067
  C     -3.549325    1.220657   -0.041737
  C     -3.550370   -1.213716    0.042974
  H     -3.411489   -3.333285    0.120427
  C     -2.851281    2.410479   -0.078520
  H     -0.959225    3.373242   -0.090154
  H     -3.404553    3.339585   -0.116897
  C      5.017570   -1.245153   -0.049279
  O      5.655309   -2.283542   -0.091052
  C      5.016505    1.226528    0.047611
  O      5.673729    2.253320    0.092853
  N      5.661067   -0.007271   -0.004629
  C     -5.017555    1.245150   -0.049431
  O     -5.655288    2.283530   -0.091506
  C     -5.016517   -1.226527    0.047801
  O     -5.673757   -2.253299    0.093212
  N     -5.661064    0.007272   -0.004772
  C      7.114597    0.027980   -0.006966
  H      7.472941    0.611190   -0.852502
  H      7.481614    0.490998    0.906928
  H      7.479835   -0.989326   -0.076912
  C     -7.114593   -0.027976   -0.007361
  H     -7.481800   -0.490599    0.906658
  H     -7.479812    0.989303   -0.077798
  H     -7.472762   -0.611546   -0.852722

----------------------------
CARTESIAN COORDINATES (A.U.)
----------------------------
  NO LB      ZA    FRAG     MASS         X           Y           Z
   0 C     6.0000    0    12.011    2.767780   -4.571128   -0.118512
   1 C     6.0000    0    12.011    1.372729   -2.345288   -0.028344
   2 C     6.0000    0    12.011    2.687287   -0.002990    0.002963
   3 C     6.0000    0    12.011    5.374047   -0.005703    0.001294
   4 C     6.0000    0    12.011    6.707275   -2.306694   -0.079200
   5 C     6.0000    0    12.011    5.388153   -4.555111   -0.149356
   6 H     1.0000    0     1.008    1.812688   -6.374462   -0.172267
   7 C     6.0000    0    12.011    1.377964    2.342523    0.035691
   8 C     6.0000    0    12.011    6.709202    2.293568    0.080901
   9 H     1.0000    0     1.008    6.433671   -6.310861   -0.222211
  10 C     6.0000    0    12.011    5.397132    4.545492    0.154230
  11 C     6.0000    0    12.011    2.776684    4.566202    0.125570
  12 H     1.0000    0     1.008    6.446770    6.298988    0.226845
  13 H     1.0000    0     1.008    1.824258    6.370906    0.180378
  14 C     6.0000    0    12.011   -1.377968   -2.342550    0.035578
  15 C     6.0000    0    12.011   -2.687285    0.002973    0.003129
  16 C     6.0000    0    12.011   -2.776694   -4.566217    0.125843
  17 C     6.0000    0    12.011   -1.372731    2.345279   -0.027853
  18 C     6.0000    0    12.011   -5.374043    0.005688    0.001510
  19 C     6.0000    0    12.011   -5.397147   -4.545508    0.154689
  20 H     1.0000    0     1.008   -1.824270   -6.370913    0.180896
  21 C     6.0000    0    12.011   -2.767772    4.571159   -0.117290
  22 C     6.0000    0    12.011   -6.707252    2.306707   -0.078871
  23 C     6.0000    0    12.011   -6.709227   -2.293591    0.081209
  24 H     1.0000    0     1.008   -6.446780   -6.298996    0.227574
  25 C     6.0000    0    12.011   -5.388140    4.555145   -0.148381
  26 H     1.0000    0     1.008   -1.812673    6.374504   -0.170366
  27 H     1.0000    0     1.008   -6.433673    6.310901   -0.220903
  28 C     6.0000    0    12.011    9.481833   -2.352998   -0.093124
  29 O     8.0000    0    15.999   10.686985   -4.315269   -0.172063
  30 C     6.0000    0    12.011    9.479821    2.317802    0.089972
  31 O     8.0000    0    15.999   10.721794    4.258158    0.175467
  32 N     7.0000    0    14.007   10.697866   -0.013740   -0.008748
  33 C     6.0000    0    12.011   -9.481805    2.352992   -0.093411
  34 O     8.0000    0    15.999  -10.686946    4.315246   -0.172921
  35 C     6.0000    0    12.011   -9.479843   -2.317800    0.090331
  36 O     8.0000    0    15.999  -10.721847   -4.258118    0.176145
  37 N     7.0000    0    14.007  -10.697861    0.013742   -0.009018
  38 C     6.0000    0    12.011   13.444640    0.052875   -0.013164
  39 H     1.0000    0     1.008   14.121812    1.154982   -1.610995
  40 H     1.0000    0     1.008   14.138201    0.927852    1.713846
  41 H     1.0000    0     1.008   14.134840   -1.869555   -0.145343
  42 C     6.0000    0    12.011  -13.444632   -0.052867   -0.013910
  43 H     1.0000    0     1.008  -14.138553   -0.927098    1.713335
  44 H     1.0000    0     1.008  -14.134796    1.869512   -0.147017
  45 H     1.0000    0     1.008  -14.121474   -1.155654   -1.611411

--------------------------------
INTERNAL COORDINATES (ANGSTROEM)
--------------------------------
 C      0   0   0     0.000000000000     0.00000000     0.00000000
 C      1   0   0     1.390907035054     0.00000000     0.00000000
 C      2   1   0     1.421449635592   118.62579488     0.00000000
 C      3   2   1     1.421772999381   119.24172352   358.53943996
 C      4   3   2     1.407903445140   120.13251304     1.19881923
 C      5   4   3     1.379964089296   119.53869589   359.82426579
 H      1   2   3     1.080234937212   120.04444656   180.91870558
 C      3   2   1     1.421589972925   121.53096311   178.53402971
 C      4   3   2     1.407614051619   120.06918245   181.21710818
 H      6   5   4     1.082044256079   118.85855421   179.63731210
 C      9   4   3     1.379729493208   119.65787294   359.84399603
 C     11   9   4     1.386807233540   120.64381319   359.37227943
 H     11   9   4     1.082133389930   118.90131197   179.62100608
 H     12  11   9     1.080231211397   118.24344035   180.16148576
 C      2   1   3     1.455999699558   122.15759682   180.02458768
 C     15   2   1     1.421591080927   119.19875441   183.02269869
 C     15   2   1     1.390969079034   122.13664701     2.97334446
 C     16  15   2     1.421450150541   121.53123000   358.43861731
 C     16  15   2     1.421771984482   119.22717179   178.43554495
 C     17  15   2     1.386811319453   121.72025157   180.81117142
 H     17  15   2     1.080230706704   120.03637411     0.98385906
 C     18  16  15     1.390908942737   118.62643872   178.54566976
 C     19  16  15     1.407909592950   120.13190033   181.20811744
 C     20  17  15     1.379730806844   120.64381694     0.32745057
 H     20  17  15     1.082133507457   120.45445687   180.07494830
 C     23  19  16     1.379961885962   119.53945250   359.80954520
 H     22  18  16     1.080232715196   120.04441122   180.90513786
 H     26  23  19     1.082044666060   118.85821204   179.64535103
 C      5   4   3     1.468455932850   121.03867471   179.74247058
 O     29   5   4     1.219306249870   122.50255242   180.29435835
 C      9   4   3     1.466211939960   120.63543224   179.76350559
 O     31   9   4     1.219955751658   123.10582529   180.53290306
 N     31   9   4     1.393000058092   117.05369273     0.62718373
 C     23  19  16     1.468454438376   121.03806815   179.72635473
 O     34  23  19     1.219305830919   122.50239778   180.31361265
 C     24  20  17     1.466210914998   119.70731435   179.44842681
 O     36  24  20     1.219953817366   123.10634022     0.45674232
 N     36  24  20     1.393005645336   117.05329294   180.55812504
 C     33  31   9     1.453959268848   116.17821548   179.64536615
 H     39  33  31     1.087876580193   110.09314440   301.85646618
 H     39  33  31     1.088250609855   110.25019098    61.24924064
 H     39  33  31     1.083144836666   108.32668257   181.52043743
 C     38  36  24     1.453958623299   116.17796624   179.63284751
 H     43  38  36     1.088251695767   110.25133202    61.26366247
 H     43  38  36     1.083144890017   108.32649533   181.53418537
 H     43  38  36     1.087876002944   110.09196279   301.87056481

---------------------------
INTERNAL COORDINATES (A.U.)
---------------------------
 C      0   0   0     0.000000000000     0.00000000     0.00000000
 C      1   0   0     2.628433373996     0.00000000     0.00000000
 C      2   1   0     2.686150524432   118.62579488     0.00000000
 C      3   2   1     2.686761593434   119.24172352   358.53943996
 C      4   3   2     2.660551934318   120.13251304     1.19881923
 C      5   4   3     2.607754203416   119.53869589   359.82426579
 H      1   2   3     2.041348191625   120.04444656   180.91870558
 C      3   2   1     2.686415723557   121.53096311   178.53402971
 C      4   3   2     2.660005059820   120.06918245   181.21710818
 H      6   5   4     2.044767308772   118.85855421   179.63731210
 C      9   4   3     2.607310881058   119.65787294   359.84399603
 C     11   9   4     2.620685871931   120.64381319   359.37227943
 H     11   9   4     2.044935747339   118.90131197   179.62100608
 H     12  11   9     2.041341150855   118.24344035   180.16148576
 C      2   1   3     2.751440683236   122.15759682   180.02458768
 C     15   2   1     2.686417817377   119.19875441   183.02269869
 C     15   2   1     2.628550620126   122.13664701     2.97334446
 C     16  15   2     2.686151497544   121.53123000   358.43861731
 C     16  15   2     2.686759675553   119.22717179   178.43554495
 C     17  15   2     2.620693593187   121.72025157   180.81117142
 H     17  15   2     2.041340197123   120.03637411     0.98385906
 C     18  16  15     2.628436978994   118.62643872   178.54566976
 C     19  16  15     2.660563551996   120.13190033   181.20811744
 C     20  17  15     2.607313363469   120.64381694     0.32745057
 H     20  17  15     2.044935969433   120.45445687   180.07494830
 C     23  19  16     2.607750039718   119.53945250   359.80954520
 H     22  18  16     2.041343992622   120.04441122   180.90513786
 H     26  23  19     2.044768083524   118.85821204   179.64535103
 C      5   4   3     2.774979552818   121.03867471   179.74247058
 O     29   5   4     2.304154885632   122.50255242   180.29435835
 C      9   4   3     2.770739020809   120.63543224   179.76350559
 O     31   9   4     2.305382266136   123.10582529   180.53290306
 N     31   9   4     2.632388614331   117.05369273     0.62718373
 C     23  19  16     2.774976728671   121.03806815   179.72635473
 O     34  23  19     2.304154093931   122.50239778   180.31361265
 C     24  20  17     2.770737083912   119.70731435   179.44842681
 O     36  24  20     2.305378610853   123.10634022     0.45674232
 N     36  24  20     2.632399172692   117.05329294   180.55812504
 C     33  31   9     2.747584828000   116.17821548   179.64536615
 H     39  33  31     2.055788804071   110.09314440   301.85646618
 H     39  33  31     2.056495617698   110.25019098    61.24924064
 H     39  33  31     2.046847104669   108.32668257   181.52043743
 C     38  36  24     2.747583608089   116.17796624   179.63284751
 H     43  38  36     2.056497669774   110.25133202    61.26366247
 H     43  38  36     2.046847205489   108.32649533   181.53418537
 H     43  38  36     2.055787713230   110.09196279   301.87056481

---------------------
BASIS SET INFORMATION
---------------------
There are 4 groups of distinct atoms

 Group   1 Type C   : 11s6p2d1f contracted to 5s3p2d1f pattern {62111/411/11/1}
 Group   2 Type H   : 5s1p contracted to 3s1p pattern {311/1}
 Group   3 Type O   : 11s6p2d1f contracted to 5s3p2d1f pattern {62111/411/11/1}
 Group   4 Type N   : 11s6p2d1f contracted to 5s3p2d1f pattern {62111/411/11/1}

Atom   0C    basis set group =>   1
Atom   1C    basis set group =>   1
Atom   2C    basis set group =>   1
Atom   3C    basis set group =>   1
Atom   4C    basis set group =>   1
Atom   5C    basis set group =>   1
Atom   6H    basis set group =>   2
Atom   7C    basis set group =>   1
Atom   8C    basis set group =>   1
Atom   9H    basis set group =>   2
Atom  10C    basis set group =>   1
Atom  11C    basis set group =>   1
Atom  12H    basis set group =>   2
Atom  13H    basis set group =>   2
Atom  14C    basis set group =>   1
Atom  15C    basis set group =>   1
Atom  16C    basis set group =>   1
Atom  17C    basis set group =>   1
Atom  18C    basis set group =>   1
Atom  19C    basis set group =>   1
Atom  20H    basis set group =>   2
Atom  21C    basis set group =>   1
Atom  22C    basis set group =>   1
Atom  23C    basis set group =>   1
Atom  24H    basis set group =>   2
Atom  25C    basis set group =>   1
Atom  26H    basis set group =>   2
Atom  27H    basis set group =>   2
Atom  28C    basis set group =>   1
Atom  29O    basis set group =>   3
Atom  30C    basis set group =>   1
Atom  31O    basis set group =>   3
Atom  32N    basis set group =>   4
Atom  33C    basis set group =>   1
Atom  34O    basis set group =>   3
Atom  35C    basis set group =>   1
Atom  36O    basis set group =>   3
Atom  37N    basis set group =>   4
Atom  38C    basis set group =>   1
Atom  39H    basis set group =>   2
Atom  40H    basis set group =>   2
Atom  41H    basis set group =>   2
Atom  42C    basis set group =>   1
Atom  43H    basis set group =>   2
Atom  44H    basis set group =>   2
Atom  45H    basis set group =>   2
---------------------------------
AUXILIARY/J BASIS SET INFORMATION
---------------------------------
There are 4 groups of distinct atoms

 Group   1 Type C   : 12s5p4d2f1g contracted to 6s4p3d1f1g pattern {711111/2111/211/2/1}
 Group   2 Type H   : 5s2p1d contracted to 3s1p1d pattern {311/2/1}
 Group   3 Type O   : 12s5p4d2f1g contracted to 6s4p3d1f1g pattern {711111/2111/211/2/1}
 Group   4 Type N   : 12s5p4d2f1g contracted to 6s4p3d1f1g pattern {711111/2111/211/2/1}

Atom   0C    basis set group =>   1
Atom   1C    basis set group =>   1
Atom   2C    basis set group =>   1
Atom   3C    basis set group =>   1
Atom   4C    basis set group =>   1
Atom   5C    basis set group =>   1
Atom   6H    basis set group =>   2
Atom   7C    basis set group =>   1
Atom   8C    basis set group =>   1
Atom   9H    basis set group =>   2
Atom  10C    basis set group =>   1
Atom  11C    basis set group =>   1
Atom  12H    basis set group =>   2
Atom  13H    basis set group =>   2
Atom  14C    basis set group =>   1
Atom  15C    basis set group =>   1
Atom  16C    basis set group =>   1
Atom  17C    basis set group =>   1
Atom  18C    basis set group =>   1
Atom  19C    basis set group =>   1
Atom  20H    basis set group =>   2
Atom  21C    basis set group =>   1
Atom  22C    basis set group =>   1
Atom  23C    basis set group =>   1
Atom  24H    basis set group =>   2
Atom  25C    basis set group =>   1
Atom  26H    basis set group =>   2
Atom  27H    basis set group =>   2
Atom  28C    basis set group =>   1
Atom  29O    basis set group =>   3
Atom  30C    basis set group =>   1
Atom  31O    basis set group =>   3
Atom  32N    basis set group =>   4
Atom  33C    basis set group =>   1
Atom  34O    basis set group =>   3
Atom  35C    basis set group =>   1
Atom  36O    basis set group =>   3
Atom  37N    basis set group =>   4
Atom  38C    basis set group =>   1
Atom  39H    basis set group =>   2
Atom  40H    basis set group =>   2
Atom  41H    basis set group =>   2
Atom  42C    basis set group =>   1
Atom  43H    basis set group =>   2
Atom  44H    basis set group =>   2
Atom  45H    basis set group =>   2
---------------------------------
AUXILIARY/C BASIS SET INFORMATION
---------------------------------
There are 4 groups of distinct atoms

 Group   1 Type C   : 8s6p5d3f1g contracted to 8s6p4d3f1g pattern {11111111/111111/2111/111/1}
 Group   2 Type H   : 4s3p2d contracted to 4s2p1d pattern {1111/21/2}
 Group   3 Type O   : 8s6p5d3f1g contracted to 8s6p4d3f1g pattern {11111111/111111/2111/111/1}
 Group   4 Type N   : 8s6p5d3f1g contracted to 8s6p4d3f1g pattern {11111111/111111/2111/111/1}

Atom   0C    basis set group =>   1
Atom   1C    basis set group =>   1
Atom   2C    basis set group =>   1
Atom   3C    basis set group =>   1
Atom   4C    basis set group =>   1
Atom   5C    basis set group =>   1
Atom   6H    basis set group =>   2
Atom   7C    basis set group =>   1
Atom   8C    basis set group =>   1
Atom   9H    basis set group =>   2
Atom  10C    basis set group =>   1
Atom  11C    basis set group =>   1
Atom  12H    basis set group =>   2
Atom  13H    basis set group =>   2
Atom  14C    basis set group =>   1
Atom  15C    basis set group =>   1
Atom  16C    basis set group =>   1
Atom  17C    basis set group =>   1
Atom  18C    basis set group =>   1
Atom  19C    basis set group =>   1
Atom  20H    basis set group =>   2
Atom  21C    basis set group =>   1
Atom  22C    basis set group =>   1
Atom  23C    basis set group =>   1
Atom  24H    basis set group =>   2
Atom  25C    basis set group =>   1
Atom  26H    basis set group =>   2
Atom  27H    basis set group =>   2
Atom  28C    basis set group =>   1
Atom  29O    basis set group =>   3
Atom  30C    basis set group =>   1
Atom  31O    basis set group =>   3
Atom  32N    basis set group =>   4
Atom  33C    basis set group =>   1
Atom  34O    basis set group =>   3
Atom  35C    basis set group =>   1
Atom  36O    basis set group =>   3
Atom  37N    basis set group =>   4
Atom  38C    basis set group =>   1
Atom  39H    basis set group =>   2
Atom  40H    basis set group =>   2
Atom  41H    basis set group =>   2
Atom  42C    basis set group =>   1
Atom  43H    basis set group =>   2
Atom  44H    basis set group =>   2
Atom  45H    basis set group =>   2


           ************************************************************
           *        Program running with 4 parallel MPI-processes     *
           *              working on a common directory               *
           ************************************************************
------------------------------------------------------------------------------
                           ORCA GTO INTEGRAL CALCULATION
                           -- RI-GTO INTEGRALS CHOSEN --
------------------------------------------------------------------------------
------------------------------------------------------------------------------
                   ___                                                        
                  /   \      - P O W E R E D   B Y -                         
                 /     \                                                     
                 |  |  |   _    _      __       _____    __    __             
                 |  |  |  | |  | |    /  \     |  _  \  |  |  /  |          
                  \  \/   | |  | |   /    \    | | | |  |  | /  /          
                 / \  \   | |__| |  /  /\  \   | |_| |  |  |/  /          
                |  |  |   |  __  | /  /__\  \  |    /   |      \           
                |  |  |   | |  | | |   __   |  |    \   |  |\   \          
                \     /   | |  | | |  |  |  |  | |\  \  |  | \   \       
                 \___/    |_|  |_| |__|  |__|  |_| \__\ |__|  \__/        
                                                                              
                      - O R C A' S   B I G   F R I E N D -                    
                                      &                                       
                       - I N T E G R A L  F E E D E R -                       
                                                                              
 v1 FN, 2020, v2 2021                                                         
------------------------------------------------------------------------------


Reading SHARK input file PDI_1_M06L_def2TZVP_coords.SHARKINP.tmp ... ok
----------------------
SHARK INTEGRAL PACKAGE
----------------------

Number of atoms                             ...     46
Number of basis functions                   ...   1076
Number of shells                            ...    408
Maximum angular momentum                    ...      3
Integral batch strategy                     ... SHARK/LIBINT Hybrid
RI-J (if used) integral strategy            ... SPLIT-RIJ (Revised 2003 algorithm where possible)
Printlevel                                  ...      1
Contraction scheme used                     ... SEGMENTED contraction
Coulomb Range Separation                    ... NOT USED
Exchange Range Separation                   ... Long Range
   Mu parameter                             ...  0.180000
   Scaling (regular/separated)              ...  0.700000  0.300000
Finite Nucleus Model                        ... NOT USED
Auxiliary Coulomb fitting basis             ... AVAILABLE
   # of basis functions in Aux-J            ...   1722
   # of shells in Aux-J                     ...    550
   Maximum angular momentum in Aux-J        ...      4
Auxiliary J/K fitting basis                 ... NOT available
Auxiliary Correlation fitting basis         ... AVAILABLE
   # of basis functions in Aux-C            ...   2642
   # of shells in Aux-C                     ...    802
   Maximum angular momentum in Aux-C        ...      4
Auxiliary 'external' fitting basis          ... NOT available
Integral threshold                          ...     2.500000e-11
Primitive cut-off                           ...     2.500000e-12
Primitive pair pre-selection threshold      ...     2.500000e-12

Calculating pre-screening integrals         ... done (  0.7 sec) Dimension = 408
Organizing shell pair data                  ... done ( 30.7 sec)
Shell pair information
Total number of shell pairs                 ...     83436
Shell pairs after pre-screening             ...     50856
Total number of primitive shell pairs       ...    263196
Primitive shell pairs kept                  ...    104270
          la=0 lb=0:  11607 shell pairs
          la=1 lb=0:  14378 shell pairs
          la=1 lb=1:   4389 shell pairs
          la=2 lb=0:   7470 shell pairs
          la=2 lb=1:   4648 shell pairs
          la=2 lb=2:   1215 shell pairs
          la=3 lb=0:   3490 shell pairs
          la=3 lb=1:   2222 shell pairs
          la=3 lb=2:   1144 shell pairs
          la=3 lb=3:    293 shell pairs

Calculating one electron integrals          ... done (  0.7 sec)
Calculating RI/J V-Matrix + Cholesky decomp.... done (  0.7 sec)
Calculating RI/C V-Matrix + Cholesky decomp.... done (  1.2 sec)
Calculating Nuclear repulsion               ... done (  0.0 sec) ENN=   2947.572567001087 Eh

SHARK setup successfully completed in  36.7 seconds

Maximum memory used throughout the entire GTOINT-calculation: 108.4 MB


           ************************************************************
           *        Program running with 4 parallel MPI-processes     *
           *              working on a common directory               *
           ************************************************************
-------------------------------------------------------------------------------
                                 ORCA SCF
-------------------------------------------------------------------------------

------------
SCF SETTINGS
------------
Hamiltonian:
 Density Functional     Method          .... DFT(GTOs)
 Exchange Functional    Exchange        .... LC-PBE
 Correlation Functional Correlation     .... P86
 LDA part of GGA corr.  LDAOpt          .... VWN-5
 Gradients option       PostSCFGGA      .... off
 Hybrid DFT is turned on
   Fraction HF Exchange ScalHFX         ....  0.700000
   Scaling of DF-GGA-X  ScalDFX         ....  0.000000
   Scaling of DF-GGA-C  ScalDFC         ....  0.680000
   Scaling of DF-LDA-C  ScalLDAC        ....  0.680000
   Perturbative correction              ....  0.480000
   Density functional embedding theory  .... OFF
 Long-range corrected/Screened/Range-Separated Hybrid DFT is turned on
   Amount of maximum screened exact exchange              ....  0.300000
   Range separation parameter mu (erf(mu*r12)/r12)        ....  0.180000
 RI-approximation to the Coulomb term is turned on
   Number of AuxJ basis functions       .... 1722
   RIJ-COSX (HFX calculated with COS-X)).... on


General Settings:
 Integral files         IntName         .... PDI_1_M06L_def2TZVP_coords
 Hartree-Fock type      HFTyp           .... RHF
 Total Charge           Charge          ....    0
 Multiplicity           Mult            ....    1
 Number of Electrons    NEL             ....  216
 Basis Dimension        Dim             .... 1076
 Nuclear Repulsion      ENuc            ....   2947.5725670011 Eh

Convergence Acceleration:
 DIIS                   CNVDIIS         .... on
   Start iteration      DIISMaxIt       ....    12
   Startup error        DIISStart       ....  0.200000
   # of expansion vecs  DIISMaxEq       ....     5
   Bias factor          DIISBfac        ....   1.050
   Max. coefficient     DIISMaxC        ....  10.000
 Trust-Rad. Augm. Hess. CNVTRAH         .... auto
   Auto Start mean grad. ratio tolernc. ....  1.125000
   Auto Start start iteration           ....    20
   Auto Start num. interpolation iter.  ....    10
   Max. Number of Micro iterations      ....    16
   Max. Number of Macro iterations      .... Maxiter - #DIIS iter
   Number of Davidson start vectors     ....     2
   Converg. threshold I  (grad. norm)   ....   1.000e-05
   Converg. threshold II (energy diff.) ....   1.000e-08
   Grad. Scal. Fac. for Micro threshold ....   0.100
   Minimum threshold for Micro iter.    ....   0.010
   NR start threshold (gradient norm)   ....   0.001
   Initial trust radius                 ....   0.400
   Minimum AH scaling param. (alpha)    ....   1.000
   Maximum AH scaling param. (alpha)    .... 1000.000
   Orbital update algorithm             .... Taylor
   White noise on init. David. guess    .... on
   Maximum white noise                  ....   0.010
   Quad. conv. algorithm                .... NR
 SOSCF                  CNVSOSCF        .... on
   Start iteration      SOSCFMaxIt      ....   150
   Startup grad/error   SOSCFStart      ....  0.003300
 Level Shifting         CNVShift        .... on
   Level shift para.    LevelShift      ....    0.2500
   Turn off err/grad.   ShiftErr        ....    0.0010
 Zerner damping         CNVZerner       .... off
 Static damping         CNVDamp         .... on
   Fraction old density DampFac         ....    0.7000
   Max. Damping (<1)    DampMax         ....    0.9800
   Min. Damping (>=0)   DampMin         ....    0.0000
   Turn off err/grad.   DampErr         ....    0.1000
 Fernandez-Rico         CNVRico         .... off

SCF Procedure:
 Maximum # iterations   MaxIter         ....   125
 SCF integral mode      SCFMode         .... Direct
   Integral package                     .... SHARK and LIBINT hybrid scheme
 Reset frequency        DirectResetFreq ....    20
 Integral Threshold     Thresh          ....  2.500e-11 Eh
 Primitive CutOff       TCut            ....  2.500e-12 Eh

Convergence Tolerance:
 Convergence Check Mode ConvCheckMode   .... Total+1el-Energy
 Convergence forced     ConvForced      .... 1
 Energy Change          TolE            ....  1.000e-08 Eh
 1-El. energy change                    ....  1.000e-05 Eh
 Orbital Gradient       TolG            ....  1.000e-05
 Orbital Rotation angle TolX            ....  1.000e-05
 DIIS Error             TolErr          ....  5.000e-07


Diagonalization of the overlap matrix:
Smallest eigenvalue                        ... 1.259e-06
Time for diagonalization                   ...    1.665 sec
Threshold for overlap eigenvalues          ... 1.000e-08
Number of eigenvalues below threshold      ... 0
Time for construction of square roots      ...    0.721 sec
Total time needed                          ...    2.394 sec

Time for model grid setup =    2.586 sec

------------------------------
INITIAL GUESS: MODEL POTENTIAL
------------------------------
Loading Hartree-Fock densities                     ... done
Calculating cut-offs                               ... done
Initializing the effective Hamiltonian             ... done
Setting up the integral package (SHARK)            ... done
Starting the Coulomb interaction                   ... done (   8.3 sec)
Reading the grid                                   ... done
Mapping shells                                     ... done
Starting the XC term evaluation                    ... done (   5.1 sec)
  promolecular density results
     # of electrons  =    215.973391933
     EX              =   -176.119789800
     EC              =     -3.598121381
     EX+EC           =   -179.717911181
Transforming the Hamiltonian                       ... done (   1.1 sec)
Diagonalizing the Hamiltonian                      ... done (   3.8 sec)
Back transforming the eigenvectors                 ... done (   0.7 sec)
Now organizing SCF variables                       ... done
                      ------------------
                      INITIAL GUESS DONE (  21.8 sec)
                      ------------------
-------------------
DFT GRID GENERATION
-------------------

General Integration Accuracy     IntAcc      ... 4.388
Radial Grid Type                 RadialGrid  ... OptM3 with GC (2021)
Angular Grid (max. ang.)         AngularGrid ... 4 (Lebedev-302)
Angular grid pruning method      GridPruning ... 4 (adaptive)
Weight generation scheme         WeightScheme... Becke
Basis function cutoff            BFCut       ... 1.0000e-11
Integration weight cutoff        WCut        ... 1.0000e-14
Angular grids for H and He will be reduced by one unit
Partially contracted basis set               ... off
Rotationally invariant grid construction     ... off

Total number of grid points                  ...   234835
Total number of batches                      ...     3696
Average number of points per batch           ...       63
Average number of grid points per atom       ...     5105
Time for grid setup =   10.804 sec

--------------------
COSX GRID GENERATION
--------------------

GRIDX 1
-------
General Integration Accuracy     IntAcc      ... 3.816
Radial Grid Type                 RadialGrid  ... OptM3 with GC (2021)
Angular Grid (max. ang.)         AngularGrid ... 1 (Lebedev-50)
Angular grid pruning method      GridPruning ... 4 (adaptive)
Weight generation scheme         WeightScheme... Becke
Basis function cutoff            BFCut       ... 1.0000e-11
Integration weight cutoff        WCut        ... 1.0000e-14
Angular grids for H and He will be reduced by one unit
Partially contracted basis set               ... on
Rotationally invariant grid construction     ... off

Total number of grid points                  ...    29840
Total number of batches                      ...      490
Average number of points per batch           ...       60
Average number of grid points per atom       ...      649
UseSFitting                                  ... on

GRIDX 2
-------
General Integration Accuracy     IntAcc      ... 4.020
Radial Grid Type                 RadialGrid  ... OptM3 with GC (2021)
Angular Grid (max. ang.)         AngularGrid ... 2 (Lebedev-110)
Angular grid pruning method      GridPruning ... 4 (adaptive)
Weight generation scheme         WeightScheme... Becke
Basis function cutoff            BFCut       ... 1.0000e-11
Integration weight cutoff        WCut        ... 1.0000e-14
Angular grids for H and He will be reduced by one unit
Partially contracted basis set               ... on
Rotationally invariant grid construction     ... off

Total number of grid points                  ...    65893
Total number of batches                      ...     1058
Average number of points per batch           ...       62
Average number of grid points per atom       ...     1432
UseSFitting                                  ... on

GRIDX 3
-------
General Integration Accuracy     IntAcc      ... 4.338
Radial Grid Type                 RadialGrid  ... OptM3 with GC (2021)
Angular Grid (max. ang.)         AngularGrid ... 3 (Lebedev-194)
Angular grid pruning method      GridPruning ... 4 (adaptive)
Weight generation scheme         WeightScheme... Becke
Basis function cutoff            BFCut       ... 1.0000e-11
Integration weight cutoff        WCut        ... 1.0000e-14
Angular grids for H and He will be reduced by one unit
Partially contracted basis set               ... on
Rotationally invariant grid construction     ... off

Total number of grid points                  ...   144901
Total number of batches                      ...     2289
Average number of points per batch           ...       63
Average number of grid points per atom       ...     3150
UseSFitting                                  ... on

Time for X-Grid setup             =   30.377 sec


--------------------
CPCM SOLVATION MODEL
--------------------
CPCM parameters:
  Epsilon                                         ...       8.9300
  Refrac                                          ...       1.4242
  Rsolv                                           ...       1.3000
  Surface type                                    ... GAUSSIAN VDW
  Epsilon function type                           ...         CPCM
Solvent:                                     ... DICHLOROMETHANE
SMD-CDS solvent descriptors:
  Soln                                       ...    1.4242
  Soln25                                     ...    1.4212
  Sola                                       ...    0.1000
  Solb                                       ...    0.0500
  Solg                                       ...   39.1500
  Solc                                       ...    0.0000
  Solh                                       ...    0.6670
Radii:
 Radius for C  used is    3.4960 Bohr (=   1.8500 Ang.)
 Radius for H  used is    2.2677 Bohr (=   1.2000 Ang.)
 Radius for O  used is    3.9949 Bohr (=   2.1140 Ang.)
 Radius for N  used is    3.5716 Bohr (=   1.8900 Ang.)
Calculating surface                               ...        done! (  0.0s)
GEPOL surface points                              ...         2248
GEPOL Volume                                      ...    2839.0468
GEPOL Surface-area                                ...    1385.5089
Calculating surface distance matrix               ...        done! (  0.2s)
Performing Cholesky decomposition & store         ...        done! (  2.4s)
Overall time for CPCM initialization              ...                 2.6s
--------------
SCF ITERATIONS
--------------
ITER       Energy         Delta-E        Max-DP      RMS-DP      [F,P]     Damp
               ***  Starting incremental Fock matrix formation  ***
  0  -1405.7240904925   0.000000000000 0.22713663  0.00180527  0.2660595 0.7000
  1  -1405.9895454475  -0.265454955030 0.20840600  0.00157776  0.1479230 0.7000
                               ***Turning on DIIS***
  2  -1406.1370245424  -0.147479094897 0.49448245  0.00351425  0.0732947 0.0000
  3  -1406.4181734861  -0.281148943689 0.10975581  0.00077389  0.0544674 0.0000
  4  -1406.4400205536  -0.021847067437 0.02486765  0.00021797  0.0125919 0.0000
  5  -1406.4419215336  -0.001900980080 0.01618419  0.00013852  0.0038177 0.0000
                      *** Initiating the SOSCF procedure ***
                           *** Shutting down DIIS ***
                      *** Re-Reading the Fockian *** 
                      *** Removing any level shift *** 
ITER      Energy       Delta-E        Grad      Rot      Max-DP    RMS-DP
  6  -1406.44236074  -0.0004392069  0.002594  0.002594  0.010809  0.000079
               *** Restarting incremental Fock matrix formation ***
  7  -1406.44239408  -0.0000333395  0.001593  0.005159  0.057953  0.000727
  8  -1406.44247008  -0.0000759972  0.000662  0.005004  0.027573  0.000273
  9  -1406.44249208  -0.0000220013  0.000221  0.000381  0.028505  0.000236
 10  -1406.44249617  -0.0000040907  0.000101  0.000441  0.001658  0.000017
 11  -1406.44249664  -0.0000004718  0.000032  0.000074  0.002368  0.000014
 12  -1406.44249666  -0.0000000183  0.000017  0.000044  0.000630  0.000006
 13  -1406.44249665   0.0000000054  0.000004  0.000017  0.000889  0.000009
                  ***Gradient check signals convergence***
              ***Rediagonalizing the Fockian in SOSCF/NRSCF***

               *****************************************************
               *                     SUCCESS                       *
               *           SCF CONVERGED AFTER  14 CYCLES          *
               *****************************************************

Old exchange energy                            =   -136.882655651 Eh
New exchange energy                            =   -136.882338031 Eh
Exchange energy change after final integration =      0.000317620 Eh
Total energy after final integration           =  -1406.442179038 Eh
Final COS-X integration done in                =   701.528 sec

SMD CDS free energy correction energy :                -9.80155     Kcal/mol
Total Energy after SMD CDS correction =             -1406.457798798 Eh

----------------
TOTAL SCF ENERGY
----------------

Total Energy       :        -1406.45779880 Eh          -38271.66240 eV

Components:
Nuclear Repulsion  :         2947.57256700 Eh           80207.52722 eV
Electronic Energy  :        -4354.03036580 Eh         -118479.18962 eV
One Electron Energy:        -7771.91752336 Eh         -211484.62748 eV
Two Electron Energy:         3417.88715756 Eh           93005.43786 eV
Max COSX asymmetry :            0.00000784 Eh               0.00021 eV
CPCM Dielectric    :           -0.02959212 Eh              -0.80524 eV
SMD CDS (Gcds)     :           -0.01561976 Eh              -0.42504 eV

Virial components:
Potential Energy   :        -2807.30813475 Eh          -76390.73798 eV
Kinetic Energy     :         1400.85033595 Eh           38119.07558 eV
Virial Ratio       :            2.00400290


DFT components:
N(Alpha)           :      108.000136140354 electrons
N(Beta)            :      108.000136140354 electrons
N(Total)           :      216.000272280707 electrons
E(X)               :      -48.760553190270 Eh       
E(C)               :       -5.517818704799 Eh       
E(XC)              :      -54.278371895069 Eh       
DFET-embed. en.    :        0.000000000000 Eh       
CPCM Solvation Model Properties:
Surface-charge          :           -0.04096773
Charge-correction       :            0.00032111 Eh               0.00874 eV
Free-energy (cav+disp)  :           -0.01561976 Eh              -0.42504 eV

---------------
SCF CONVERGENCE
---------------

  Last Energy change         ...   -3.9586e-09  Tolerance :   1.0000e-08
  Last MAX-Density change    ...    2.1094e-15  Tolerance :   1.0000e-07
  Last RMS-Density change    ...    1.4971e-17  Tolerance :   5.0000e-09
  Last Orbital Gradient      ...    1.0112e-06  Tolerance :   1.0000e-05
  Last Orbital Rotation      ...    8.1838e-06  Tolerance :   1.0000e-05

             **** THE GBW FILE WAS UPDATED (PDI_1_M06L_def2TZVP_coords.gbw) ****
             **** DENSITY PDI_1_M06L_def2TZVP_coords.scfp WAS UPDATED ****
             **** ENERGY FILE WAS UPDATED (PDI_1_M06L_def2TZVP_coords.en.tmp) ****
             **** THE GBW FILE WAS UPDATED (PDI_1_M06L_def2TZVP_coords.gbw) ****
             **** DENSITY PDI_1_M06L_def2TZVP_coords.scfp WAS UPDATED ****
----------------
ORBITAL ENERGIES
----------------

  NO   OCC          E(Eh)            E(eV) 
   0   2.0000     -20.045083      -545.4544 
   1   2.0000     -20.045081      -545.4544 
   2   2.0000     -20.045030      -545.4530 
   3   2.0000     -20.045030      -545.4530 
   4   2.0000     -15.189432      -413.3255 
   5   2.0000     -15.189428      -413.3253 
   6   2.0000     -11.003948      -299.4326 
   7   2.0000     -11.003946      -299.4326 
   8   2.0000     -11.001541      -299.3671 
   9   2.0000     -11.001540      -299.3671 
  10   2.0000     -10.913927      -296.9830 
  11   2.0000     -10.913905      -296.9825 
  12   2.0000     -10.913268      -296.9651 
  13   2.0000     -10.913218      -296.9637 
  14   2.0000     -10.909385      -296.8595 
  15   2.0000     -10.909383      -296.8594 
  16   2.0000     -10.905612      -296.7568 
  17   2.0000     -10.905605      -296.7566 
  18   2.0000     -10.896155      -296.4995 
  19   2.0000     -10.896154      -296.4994 
  20   2.0000     -10.895943      -296.4937 
  21   2.0000     -10.895939      -296.4936 
  22   2.0000     -10.894644      -296.4583 
  23   2.0000     -10.894642      -296.4583 
  24   2.0000     -10.894615      -296.4575 
  25   2.0000     -10.894614      -296.4575 
  26   2.0000     -10.887125      -296.2537 
  27   2.0000     -10.887123      -296.2537 
  28   2.0000     -10.887033      -296.2512 
  29   2.0000     -10.887032      -296.2512 
  30   2.0000     -10.882577      -296.1300 
  31   2.0000     -10.882573      -296.1299 
  32   2.0000      -1.338171       -36.4135 
  33   2.0000      -1.338170       -36.4135 
  34   2.0000      -1.316953       -35.8361 
  35   2.0000      -1.316950       -35.8360 
  36   2.0000      -1.194123       -32.4937 
  37   2.0000      -1.193707       -32.4824 
  38   2.0000      -1.167285       -31.7634 
  39   2.0000      -1.137991       -30.9663 
  40   2.0000      -1.099379       -29.9156 
  41   2.0000      -1.077111       -29.3097 
  42   2.0000      -1.074510       -29.2389 
  43   2.0000      -1.014961       -27.6185 
  44   2.0000      -1.007343       -27.4112 
  45   2.0000      -0.994172       -27.0528 
  46   2.0000      -0.978873       -26.6365 
  47   2.0000      -0.951466       -25.8907 
  48   2.0000      -0.936477       -25.4828 
  49   2.0000      -0.915643       -24.9159 
  50   2.0000      -0.899154       -24.4672 
  51   2.0000      -0.860183       -23.4068 
  52   2.0000      -0.855803       -23.2876 
  53   2.0000      -0.845242       -23.0002 
  54   2.0000      -0.835290       -22.7294 
  55   2.0000      -0.813642       -22.1403 
  56   2.0000      -0.808404       -21.9978 
  57   2.0000      -0.785832       -21.3836 
  58   2.0000      -0.754449       -20.5296 
  59   2.0000      -0.727819       -19.8050 
  60   2.0000      -0.722564       -19.6620 
  61   2.0000      -0.711084       -19.3496 
  62   2.0000      -0.698703       -19.0127 
  63   2.0000      -0.679905       -18.5012 
  64   2.0000      -0.670179       -18.2365 
  65   2.0000      -0.653395       -17.7798 
  66   2.0000      -0.650408       -17.6985 
  67   2.0000      -0.647142       -17.6096 
  68   2.0000      -0.644054       -17.5256 
  69   2.0000      -0.643551       -17.5119 
  70   2.0000      -0.630627       -17.1602 
  71   2.0000      -0.616167       -16.7668 
  72   2.0000      -0.614396       -16.7186 
  73   2.0000      -0.614018       -16.7083 
  74   2.0000      -0.600887       -16.3510 
  75   2.0000      -0.595066       -16.1926 
  76   2.0000      -0.594156       -16.1678 
  77   2.0000      -0.586392       -15.9565 
  78   2.0000      -0.581750       -15.8302 
  79   2.0000      -0.568090       -15.4585 
  80   2.0000      -0.559281       -15.2188 
  81   2.0000      -0.554762       -15.0958 
  82   2.0000      -0.553426       -15.0595 
  83   2.0000      -0.550319       -14.9749 
  84   2.0000      -0.549622       -14.9560 
  85   2.0000      -0.548867       -14.9354 
  86   2.0000      -0.535615       -14.5748 
  87   2.0000      -0.534731       -14.5508 
  88   2.0000      -0.530218       -14.4280 
  89   2.0000      -0.528464       -14.3802 
  90   2.0000      -0.516559       -14.0563 
  91   2.0000      -0.502387       -13.6707 
  92   2.0000      -0.497738       -13.5441 
  93   2.0000      -0.495455       -13.4820 
  94   2.0000      -0.469177       -12.7669 
  95   2.0000      -0.458048       -12.4641 
  96   2.0000      -0.451734       -12.2923 
  97   2.0000      -0.442380       -12.0378 
  98   2.0000      -0.439603       -11.9622 
  99   2.0000      -0.424368       -11.5476 
 100   2.0000      -0.424341       -11.5469 
 101   2.0000      -0.404716       -11.0129 
 102   2.0000      -0.401661       -10.9298 
 103   2.0000      -0.373383       -10.1603 
 104   2.0000      -0.371282       -10.1031 
 105   2.0000      -0.364309        -9.9134 
 106   2.0000      -0.358601        -9.7580 
 107   2.0000      -0.288016        -7.8373 
 108   0.0000      -0.059156        -1.6097 
 109   0.0000       0.021784         0.5928 
 110   0.0000       0.025444         0.6924 
 111   0.0000       0.039652         1.0790 
 112   0.0000       0.069589         1.8936 
 113   0.0000       0.091814         2.4984 
 114   0.0000       0.094121         2.5612 
 115   0.0000       0.132242         3.5985 
 116   0.0000       0.133610         3.6357 
 117   0.0000       0.134602         3.6627 
 118   0.0000       0.147372         4.0102 
 119   0.0000       0.152817         4.1584 
 120   0.0000       0.158619         4.3162 
 121   0.0000       0.165695         4.5088 
 122   0.0000       0.170020         4.6265 
 123   0.0000       0.173319         4.7163 
 124   0.0000       0.176713         4.8086 
 125   0.0000       0.181513         4.9392 
 126   0.0000       0.186741         5.0815 
 127   0.0000       0.191772         5.2184 
 128   0.0000       0.197907         5.3853 
 129   0.0000       0.200240         5.4488 
 130   0.0000       0.202194         5.5020 
 131   0.0000       0.206742         5.6257 
 132   0.0000       0.213724         5.8157 
 133   0.0000       0.221004         6.0138 
 134   0.0000       0.225130         6.1261 
 135   0.0000       0.226085         6.1521 
 136   0.0000       0.234102         6.3702 
 137   0.0000       0.237818         6.4714 
 138   0.0000       0.241899         6.5824 
 139   0.0000       0.247371         6.7313 
 140   0.0000       0.249188         6.7807 
 141   0.0000       0.251073         6.8320 
 142   0.0000       0.253682         6.9030 
 143   0.0000       0.265580         7.2268 
 144   0.0000       0.268194         7.2979 
 145   0.0000       0.272952         7.4274 
 146   0.0000       0.274059         7.4575 
 147   0.0000       0.286103         7.7853 
 148   0.0000       0.290236         7.8977 
 149   0.0000       0.294538         8.0148 
 150   0.0000       0.297999         8.1090 
 151   0.0000       0.298048         8.1103 
 152   0.0000       0.303900         8.2695 
 153   0.0000       0.306157         8.3309 
 154   0.0000       0.311012         8.4631 
 155   0.0000       0.312988         8.5168 
 156   0.0000       0.316166         8.6033 
 157   0.0000       0.317531         8.6405 
 158   0.0000       0.321397         8.7457 
 159   0.0000       0.324653         8.8343 
 160   0.0000       0.331767         9.0278 
 161   0.0000       0.331997         9.0341 
 162   0.0000       0.335463         9.1284 
 163   0.0000       0.339909         9.2494 
 164   0.0000       0.346124         9.4185 
 165   0.0000       0.348214         9.4754 
 166   0.0000       0.354227         9.6390 
 167   0.0000       0.355303         9.6683 
 168   0.0000       0.358565         9.7571 
 169   0.0000       0.365046         9.9334 
 170   0.0000       0.366986         9.9862 
 171   0.0000       0.374550        10.1920 
 172   0.0000       0.376035        10.2324 
 173   0.0000       0.376169        10.2361 
 174   0.0000       0.377890        10.2829 
 175   0.0000       0.385313        10.4849 
 176   0.0000       0.394578        10.7370 
 177   0.0000       0.396666        10.7938 
 178   0.0000       0.397722        10.8226 
 179   0.0000       0.400067        10.8864 
 180   0.0000       0.406013        11.0482 
 181   0.0000       0.411304        11.1922 
 182   0.0000       0.411376        11.1941 
 183   0.0000       0.422824        11.5056 
 184   0.0000       0.424434        11.5494 
 185   0.0000       0.425613        11.5815 
 186   0.0000       0.426218        11.5980 
 187   0.0000       0.427213        11.6251 
 188   0.0000       0.433804        11.8044 
 189   0.0000       0.435283        11.8447 
 190   0.0000       0.436383        11.8746 
 191   0.0000       0.442831        12.0500 
 192   0.0000       0.449101        12.2207 
 193   0.0000       0.450400        12.2560 
 194   0.0000       0.452476        12.3125 
 195   0.0000       0.456693        12.4272 
 196   0.0000       0.458855        12.4861 
 197   0.0000       0.472607        12.8603 
 198   0.0000       0.475484        12.9386 
 199   0.0000       0.480061        13.0631 
 200   0.0000       0.483806        13.1650 
 201   0.0000       0.489291        13.3143 
 202   0.0000       0.491674        13.3791 
 203   0.0000       0.494269        13.4497 
 204   0.0000       0.499631        13.5956 
 205   0.0000       0.502022        13.6607 
 206   0.0000       0.506170        13.7736 
 207   0.0000       0.514683        14.0052 
 208   0.0000       0.516251        14.0479 
 209   0.0000       0.517650        14.0860 
 210   0.0000       0.518658        14.1134 
 211   0.0000       0.521267        14.1844 
 212   0.0000       0.525021        14.2865 
 213   0.0000       0.532505        14.4902 
 214   0.0000       0.533359        14.5134 
 215   0.0000       0.537381        14.6229 
 216   0.0000       0.541909        14.7461 
 217   0.0000       0.552187        15.0258 
 218   0.0000       0.552340        15.0299 
 219   0.0000       0.554280        15.0827 
 220   0.0000       0.555322        15.1111 
 221   0.0000       0.573840        15.6150 
 222   0.0000       0.576560        15.6890 
 223   0.0000       0.578347        15.7376 
 224   0.0000       0.587581        15.9889 
 225   0.0000       0.590425        16.0663 
 226   0.0000       0.592668        16.1273 
 227   0.0000       0.595201        16.1962 
 228   0.0000       0.605314        16.4714 
 229   0.0000       0.606420        16.5015 
 230   0.0000       0.608073        16.5465 
 231   0.0000       0.609811        16.5938 
 232   0.0000       0.622123        16.9288 
 233   0.0000       0.622936        16.9509 
 234   0.0000       0.624171        16.9846 
 235   0.0000       0.626348        17.0438 
 236   0.0000       0.629590        17.1320 
 237   0.0000       0.635290        17.2871 
 238   0.0000       0.638270        17.3682 
 239   0.0000       0.639691        17.4069 
 240   0.0000       0.644263        17.5313 
 241   0.0000       0.651519        17.7287 
 242   0.0000       0.655389        17.8341 
 243   0.0000       0.655815        17.8456 
 244   0.0000       0.667375        18.1602 
 245   0.0000       0.670570        18.2471 
 246   0.0000       0.671362        18.2687 
 247   0.0000       0.677450        18.4344 
 248   0.0000       0.681961        18.5571 
 249   0.0000       0.687210        18.6999 
 250   0.0000       0.689534        18.7632 
 251   0.0000       0.690064        18.7776 
 252   0.0000       0.692252        18.8371 
 253   0.0000       0.696220        18.9451 
 254   0.0000       0.701297        19.0833 
 255   0.0000       0.702636        19.1197 
 256   0.0000       0.708995        19.2927 
 257   0.0000       0.711244        19.3539 
 258   0.0000       0.717307        19.5189 
 259   0.0000       0.717320        19.5193 
 260   0.0000       0.718185        19.5428 
 261   0.0000       0.724206        19.7067 
 262   0.0000       0.724464        19.7137 
 263   0.0000       0.727814        19.8048 
 264   0.0000       0.736766        20.0484 
 265   0.0000       0.737056        20.0563 
 266   0.0000       0.738161        20.0864 
 267   0.0000       0.741715        20.1831 
 268   0.0000       0.744922        20.2704 
 269   0.0000       0.749031        20.3822 
 270   0.0000       0.749684        20.3999 
 271   0.0000       0.760361        20.6905 
 272   0.0000       0.760696        20.6996 
 273   0.0000       0.768588        20.9144 
 274   0.0000       0.773301        21.0426 
 275   0.0000       0.778067        21.1723 
 276   0.0000       0.782707        21.2985 
 277   0.0000       0.794117        21.6090 
 278   0.0000       0.802398        21.8344 
 279   0.0000       0.804284        21.8857 
 280   0.0000       0.806749        21.9528 
 281   0.0000       0.817354        22.2413 
 282   0.0000       0.820323        22.3221 
 283   0.0000       0.821350        22.3501 
 284   0.0000       0.825186        22.4544 
 285   0.0000       0.826342        22.4859 
 286   0.0000       0.827929        22.5291 
 287   0.0000       0.832801        22.6617 
 288   0.0000       0.840600        22.8739 
 289   0.0000       0.848175        23.0800 
 290   0.0000       0.850521        23.1438 
 291   0.0000       0.861158        23.4333 
 292   0.0000       0.866361        23.5749 
 293   0.0000       0.869316        23.6553 
 294   0.0000       0.869777        23.6678 
 295   0.0000       0.870695        23.6928 
 296   0.0000       0.872871        23.7520 
 297   0.0000       0.875491        23.8233 
 298   0.0000       0.878364        23.9015 
 299   0.0000       0.884192        24.0601 
 300   0.0000       0.893723        24.3194 
 301   0.0000       0.894145        24.3309 
 302   0.0000       0.902810        24.5667 
 303   0.0000       0.905224        24.6324 
 304   0.0000       0.907061        24.6824 
 305   0.0000       0.913208        24.8496 
 306   0.0000       0.916046        24.9269 
 307   0.0000       0.920546        25.0493 
 308   0.0000       0.920863        25.0579 
 309   0.0000       0.929401        25.2903 
 310   0.0000       0.938065        25.5260 
 311   0.0000       0.943689        25.6791 
 312   0.0000       0.947274        25.7766 
 313   0.0000       0.953262        25.9396 
 314   0.0000       0.959071        26.0977 
 315   0.0000       0.959405        26.1067 
 316   0.0000       0.962601        26.1937 
 317   0.0000       0.963929        26.2298 
 318   0.0000       0.975002        26.5311 
 319   0.0000       0.980596        26.6834 
 320   0.0000       0.980746        26.6874 
 321   0.0000       0.981465        26.7070 
 322   0.0000       0.993466        27.0336 
 323   0.0000       1.003226        27.2992 
 324   0.0000       1.004066        27.3220 
 325   0.0000       1.004965        27.3465 
 326   0.0000       1.006120        27.3779 
 327   0.0000       1.014365        27.6023 
 328   0.0000       1.015674        27.6379 
 329   0.0000       1.017444        27.6861 
 330   0.0000       1.025386        27.9022 
 331   0.0000       1.032005        28.0823 
 332   0.0000       1.032706        28.1014 
 333   0.0000       1.042286        28.3621 
 334   0.0000       1.044035        28.4096 
 335   0.0000       1.049755        28.5653 
 336   0.0000       1.070158        29.1205 
 337   0.0000       1.074077        29.2271 
 338   0.0000       1.083225        29.4761 
 339   0.0000       1.088199        29.6114 
 340   0.0000       1.089519        29.6473 
 341   0.0000       1.108595        30.1664 
 342   0.0000       1.110004        30.2047 
 343   0.0000       1.112536        30.2736 
 344   0.0000       1.115253        30.3476 
 345   0.0000       1.116229        30.3741 
 346   0.0000       1.118033        30.4232 
 347   0.0000       1.124538        30.6002 
 348   0.0000       1.128626        30.7115 
 349   0.0000       1.136499        30.9257 
 350   0.0000       1.141321        31.0569 
 351   0.0000       1.154828        31.4245 
 352   0.0000       1.161420        31.6038 
 353   0.0000       1.162766        31.6405 
 354   0.0000       1.173270        31.9263 
 355   0.0000       1.183032        32.1919 
 356   0.0000       1.188588        32.3431 
 357   0.0000       1.198074        32.6012 
 358   0.0000       1.202060        32.7097 
 359   0.0000       1.204187        32.7676 
 360   0.0000       1.205049        32.7911 
 361   0.0000       1.211957        32.9790 
 362   0.0000       1.212840        33.0031 
 363   0.0000       1.225766        33.3548 
 364   0.0000       1.232903        33.5490 
 365   0.0000       1.250578        34.0300 
 366   0.0000       1.253820        34.1182 
 367   0.0000       1.254078        34.1252 
 368   0.0000       1.255689        34.1690 
 369   0.0000       1.264913        34.4200 
 370   0.0000       1.273150        34.6442 
 371   0.0000       1.296168        35.2705 
 372   0.0000       1.301861        35.4254 
 373   0.0000       1.305186        35.5159 
 374   0.0000       1.307194        35.5706 
 375   0.0000       1.324662        36.0459 
 376   0.0000       1.328802        36.1585 
 377   0.0000       1.330849        36.2143 
 378   0.0000       1.334577        36.3157 
 379   0.0000       1.350303        36.7436 
 380   0.0000       1.354860        36.8676 
 381   0.0000       1.365542        37.1583 
 382   0.0000       1.367433        37.2097 
 383   0.0000       1.368778        37.2463 
 384   0.0000       1.376462        37.4554 
 385   0.0000       1.391793        37.8726 
 386   0.0000       1.397801        38.0361 
 387   0.0000       1.410108        38.3710 
 388   0.0000       1.420782        38.6614 
 389   0.0000       1.421252        38.6742 
 390   0.0000       1.423124        38.7252 
 391   0.0000       1.432871        38.9904 
 392   0.0000       1.444750        39.3137 
 393   0.0000       1.449097        39.4319 
 394   0.0000       1.452869        39.5346 
 395   0.0000       1.460537        39.7432 
 396   0.0000       1.462860        39.8064 
 397   0.0000       1.463367        39.8202 
 398   0.0000       1.471241        40.0345 
 399   0.0000       1.480589        40.2889 
 400   0.0000       1.492220        40.6054 
 401   0.0000       1.499517        40.8039 
 402   0.0000       1.513618        41.1876 
 403   0.0000       1.525234        41.5037 
 404   0.0000       1.532791        41.7094 
 405   0.0000       1.535330        41.7784 
 406   0.0000       1.535768        41.7904 
 407   0.0000       1.537013        41.8242 
 408   0.0000       1.540426        41.9171 
 409   0.0000       1.542895        41.9843 
 410   0.0000       1.550524        42.1919 
 411   0.0000       1.575092        42.8604 
 412   0.0000       1.581178        43.0260 
 413   0.0000       1.581398        43.0320 
 414   0.0000       1.593840        43.3706 
 415   0.0000       1.597240        43.4631 
 416   0.0000       1.600981        43.5649 
 417   0.0000       1.602971        43.6190 
 418   0.0000       1.606208        43.7071 
 419   0.0000       1.614272        43.9266 
 420   0.0000       1.616146        43.9776 
 421   0.0000       1.617728        44.0206 
 422   0.0000       1.620411        44.0936 
 423   0.0000       1.632095        44.4116 
 424   0.0000       1.632373        44.4191 
 425   0.0000       1.633358        44.4459 
 426   0.0000       1.636509        44.5317 
 427   0.0000       1.651486        44.9392 
 428   0.0000       1.670364        45.4529 
 429   0.0000       1.672298        45.5055 
 430   0.0000       1.673803        45.5465 
 431   0.0000       1.676285        45.6140 
 432   0.0000       1.678544        45.6755 
 433   0.0000       1.689979        45.9867 
 434   0.0000       1.691492        46.0278 
 435   0.0000       1.697593        46.1939 
 436   0.0000       1.715023        46.6681 
 437   0.0000       1.722597        46.8743 
 438   0.0000       1.722906        46.8826 
 439   0.0000       1.725233        46.9460 
 440   0.0000       1.726111        46.9699 
 441   0.0000       1.726909        46.9916 
 442   0.0000       1.731665        47.1210 
 443   0.0000       1.733131        47.1609 
 444   0.0000       1.736691        47.2578 
 445   0.0000       1.741377        47.3853 
 446   0.0000       1.744544        47.4715 
 447   0.0000       1.751516        47.6612 
 448   0.0000       1.752527        47.6887 
 449   0.0000       1.756738        47.8033 
 450   0.0000       1.760143        47.8959 
 451   0.0000       1.775563        48.3155 
 452   0.0000       1.780193        48.4415 
 453   0.0000       1.781301        48.4717 
 454   0.0000       1.790733        48.7283 
 455   0.0000       1.793187        48.7951 
 456   0.0000       1.800946        49.0062 
 457   0.0000       1.802196        49.0403 
 458   0.0000       1.809022        49.2260 
 459   0.0000       1.813108        49.3372 
 460   0.0000       1.825522        49.6750 
 461   0.0000       1.832644        49.8688 
 462   0.0000       1.837076        49.9894 
 463   0.0000       1.846941        50.2578 
 464   0.0000       1.851958        50.3943 
 465   0.0000       1.854660        50.4679 
 466   0.0000       1.860955        50.6392 
 467   0.0000       1.861093        50.6429 
 468   0.0000       1.870795        50.9069 
 469   0.0000       1.885547        51.3083 
 470   0.0000       1.886915        51.3456 
 471   0.0000       1.893471        51.5240 
 472   0.0000       1.896345        51.6022 
 473   0.0000       1.905380        51.8480 
 474   0.0000       1.916372        52.1471 
 475   0.0000       1.919007        52.2188 
 476   0.0000       1.924552        52.3697 
 477   0.0000       1.928110        52.4665 
 478   0.0000       1.936263        52.6884 
 479   0.0000       1.938101        52.7384 
 480   0.0000       1.938114        52.7388 
 481   0.0000       1.941375        52.8275 
 482   0.0000       1.950068        53.0641 
 483   0.0000       1.960200        53.3398 
 484   0.0000       1.965620        53.4872 
 485   0.0000       1.970232        53.6127 
 486   0.0000       1.974838        53.7381 
 487   0.0000       1.983052        53.9616 
 488   0.0000       1.989633        54.1407 
 489   0.0000       1.994092        54.2620 
 490   0.0000       2.002656        54.4950 
 491   0.0000       2.009464        54.6803 
 492   0.0000       2.029852        55.2351 
 493   0.0000       2.031833        55.2890 
 494   0.0000       2.036896        55.4268 
 495   0.0000       2.057645        55.9914 
 496   0.0000       2.069034        56.3013 
 497   0.0000       2.074091        56.4389 
 498   0.0000       2.077378        56.5283 
 499   0.0000       2.088412        56.8286 
 500   0.0000       2.089220        56.8506 
 501   0.0000       2.099198        57.1221 
 502   0.0000       2.102954        57.2243 
 503   0.0000       2.105487        57.2932 
 504   0.0000       2.122071        57.7445 
 505   0.0000       2.122099        57.7452 
 506   0.0000       2.130611        57.9769 
 507   0.0000       2.147306        58.4312 
 508   0.0000       2.149791        58.4988 
 509   0.0000       2.150579        58.5202 
 510   0.0000       2.188031        59.5393 
 511   0.0000       2.194242        59.7084 
 512   0.0000       2.195639        59.7464 
 513   0.0000       2.212683        60.2102 
 514   0.0000       2.226646        60.5901 
 515   0.0000       2.227951        60.6256 
 516   0.0000       2.231096        60.7112 
 517   0.0000       2.232264        60.7430 
 518   0.0000       2.237618        60.8887 
 519   0.0000       2.245544        61.1044 
 520   0.0000       2.252346        61.2894 
 521   0.0000       2.256652        61.4066 
 522   0.0000       2.267261        61.6953 
 523   0.0000       2.273621        61.8684 
 524   0.0000       2.286035        62.2062 
 525   0.0000       2.288987        62.2865 
 526   0.0000       2.304516        62.7091 
 527   0.0000       2.304753        62.7155 
 528   0.0000       2.313564        62.9553 
 529   0.0000       2.328823        63.3705 
 530   0.0000       2.333000        63.4842 
 531   0.0000       2.335251        63.5454 
 532   0.0000       2.338743        63.6404 
 533   0.0000       2.352440        64.0132 
 534   0.0000       2.363411        64.3117 
 535   0.0000       2.372183        64.5504 
 536   0.0000       2.372642        64.5629 
 537   0.0000       2.373626        64.5896 
 538   0.0000       2.383450        64.8570 
 539   0.0000       2.390910        65.0600 
 540   0.0000       2.393959        65.1429 
 541   0.0000       2.413299        65.6692 
 542   0.0000       2.416636        65.7600 
 543   0.0000       2.422196        65.9113 
 544   0.0000       2.426806        66.0367 
 545   0.0000       2.439505        66.3823 
 546   0.0000       2.441239        66.4295 
 547   0.0000       2.447070        66.5882 
 548   0.0000       2.448495        66.6269 
 549   0.0000       2.452346        66.7317 
 550   0.0000       2.457378        66.8687 
 551   0.0000       2.474418        67.3323 
 552   0.0000       2.475367        67.3582 
 553   0.0000       2.482204        67.5442 
 554   0.0000       2.488095        67.7045 
 555   0.0000       2.492466        67.8235 
 556   0.0000       2.495359        67.9022 
 557   0.0000       2.497081        67.9490 
 558   0.0000       2.512125        68.3584 
 559   0.0000       2.513881        68.4062 
 560   0.0000       2.519122        68.5488 
 561   0.0000       2.525902        68.7333 
 562   0.0000       2.530806        68.8667 
 563   0.0000       2.536292        69.0160 
 564   0.0000       2.551065        69.4180 
 565   0.0000       2.565274        69.8047 
 566   0.0000       2.566912        69.8492 
 567   0.0000       2.572757        70.0083 
 568   0.0000       2.572837        70.0104 
 569   0.0000       2.576445        70.1086 
 570   0.0000       2.579849        70.2013 
 571   0.0000       2.582280        70.2674 
 572   0.0000       2.591565        70.5201 
 573   0.0000       2.597764        70.6888 
 574   0.0000       2.611119        71.0522 
 575   0.0000       2.629081        71.5409 
 576   0.0000       2.633883        71.6716 
[...]
   107a -> 112a  :     0.084926 

STATE  5:  E=   0.150880 au      4.106 eV    33114.4 cm**-1 <S**2> =   0.000000
   103a -> 108a  :     0.010677 
   104a -> 108a  :     0.451475 
   105a -> 111a  :     0.020760 
   106a -> 112a  :     0.014594 
   107a -> 109a  :     0.466953 

STATE  6:  E=   0.162054 au      4.410 eV    35566.7 cm**-1 <S**2> =   0.000000
   103a -> 108a  :     0.026979 
   104a -> 112a  :     0.035722 
   106a -> 108a  :     0.152454 
   107a -> 111a  :     0.746531 

STATE  7:  E=   0.145770 au      3.967 eV    31992.7 cm**-1 <S**2> =   0.000000
   103a -> 108a  :     0.411109 
   104a -> 113a  :     0.015005 
   107a -> 110a  :     0.515106 
   107a -> 111a  :     0.016233 

STATE  8:  E=   0.151419 au      4.120 eV    33232.6 cm**-1 <S**2> =   0.000000
    97a -> 110a  :     0.058844 
    97a -> 124a  :     0.022104 
    98a -> 113a  :     0.055071 
    99a -> 108a  :     0.433150 
    99a -> 114a  :     0.099534 
    99a -> 127a  :     0.011068 
   100a -> 109a  :     0.214453 
   100a -> 115a  :     0.052969 

STATE  9:  E=   0.151339 au      4.118 eV    33215.1 cm**-1 <S**2> =   0.000000
    97a -> 113a  :     0.059993 
    98a -> 110a  :     0.054082 
    98a -> 124a  :     0.020084 
    99a -> 109a  :     0.214438 
    99a -> 115a  :     0.052907 
   100a -> 108a  :     0.432882 
   100a -> 114a  :     0.099968 
   100a -> 127a  :     0.011156 

STATE 10:  E=   0.150843 au      4.105 eV    33106.2 cm**-1 <S**2> =   0.000000
    95a -> 109a  :     0.013598 
   103a -> 108a  :     0.011792 
   103a -> 112a  :     0.010113 
   104a -> 108a  :     0.434080 
   104a -> 114a  :     0.020651 
   105a -> 110a  :     0.021715 
   107a -> 109a  :     0.451170 

STATE 11:  E=   0.166305 au      4.525 eV    36499.7 cm**-1 <S**2> =   0.000000
    92a -> 114a  :     0.012761 
    97a -> 109a  :     0.184594 
    97a -> 115a  :     0.036259 
    98a -> 108a  :     0.418198 
    98a -> 114a  :     0.065252 
    99a -> 113a  :     0.092029 
   100a -> 110a  :     0.094729 
   100a -> 124a  :     0.033598 

STATE 12:  E=   0.167389 au      4.555 eV    36737.6 cm**-1 <S**2> =   0.000000
    97a -> 108a  :     0.395789 
    97a -> 114a  :     0.077905 
    98a -> 109a  :     0.182466 
    98a -> 115a  :     0.034152 
    99a -> 110a  :     0.101291 
    99a -> 124a  :     0.034981 
   100a -> 113a  :     0.096664 

STATE 13:  E=   0.176117 au      4.792 eV    38653.3 cm**-1 <S**2> =   0.000000
    96a -> 108a  :     0.055772 
   101a -> 109a  :     0.037717 
   102a -> 108a  :     0.225812 
   102a -> 114a  :     0.018126 
   103a -> 109a  :     0.065210 
   104a -> 110a  :     0.060736 
   104a -> 111a  :     0.055714 
   105a -> 108a  :     0.042279 
   107a -> 112a  :     0.330261 
   107a -> 113a  :     0.069389 

STATE 14:  E=   0.188293 au      5.124 eV    41325.6 cm**-1 <S**2> =   0.000000
    96a -> 108a  :     0.036588 
   101a -> 109a  :     0.022073 
   102a -> 108a  :     0.270596 
   102a -> 114a  :     0.010690 
   103a -> 109a  :     0.095012 
   104a -> 111a  :     0.048107 
   105a -> 108a  :     0.097880 
   107a -> 112a  :     0.366590 

STATE 15:  E=   0.169242 au      4.605 eV    37144.4 cm**-1 <S**2> =   0.000000
   101a -> 108a  :     0.721270 
   101a -> 114a  :     0.030832 
   102a -> 109a  :     0.167364 
   102a -> 115a  :     0.014363 
   103a -> 114a  :     0.013159 

STATE 16:  E=   0.197017 au      5.361 eV    43240.2 cm**-1 <S**2> =   0.000000
    95a -> 108a  :     0.113058 
    96a -> 112a  :     0.012214 
   103a -> 110a  :     0.012319 
   103a -> 111a  :     0.086688 
   104a -> 109a  :     0.018873 
   105a -> 113a  :     0.067910 
   106a -> 110a  :     0.596355 
   106a -> 111a  :     0.011182 

STATE 17:  E=   0.197407 au      5.372 eV    43325.8 cm**-1 <S**2> =   0.000000
    96a -> 108a  :     0.070380 
   101a -> 109a  :     0.076810 
   102a -> 108a  :     0.202333 
   103a -> 109a  :     0.024389 
   104a -> 110a  :     0.215196 
   106a -> 109a  :     0.011305 
   106a -> 110a  :     0.013259 
   107a -> 113a  :     0.287320 

STATE 18:  E=   0.217930 au      5.930 eV    47830.1 cm**-1 <S**2> =   0.000000
    95a -> 108a  :     0.036413 
   103a -> 110a  :     0.136720 
   104a -> 115a  :     0.010077 
   105a -> 112a  :     0.142960 
   106a -> 110a  :     0.017802 
   106a -> 111a  :     0.397641 
   107a -> 108a  :     0.017135 
   107a -> 114a  :     0.175336 

STATE 19:  E=   0.210433 au      5.726 eV    46184.8 cm**-1 <S**2> =   0.000000
    95a -> 108a  :     0.060278 
    96a -> 113a  :     0.010286 
   103a -> 110a  :     0.014953 
   103a -> 111a  :     0.113863 
   104a -> 109a  :     0.263826 
   105a -> 112a  :     0.046747 
   106a -> 111a  :     0.101488 
   107a -> 108a  :     0.010087 
   107a -> 114a  :     0.303166 

STATE 20:  E=   0.204472 au      5.564 eV    44876.4 cm**-1 <S**2> =   0.000000
    93a -> 108a  :     0.047276 
    96a -> 111a  :     0.010088 
   103a -> 112a  :     0.037247 
   105a -> 110a  :     0.702070 
   105a -> 111a  :     0.016102 
   106a -> 112a  :     0.021449 
   106a -> 113a  :     0.094225 
   107a -> 109a  :     0.026165 

STATE 21:  E=   0.200211 au      5.448 eV    43941.2 cm**-1 <S**2> =   0.000000
    82a -> 110a  :     0.010664 
    87a -> 110a  :     0.015684 
    91a -> 109a  :     0.057441 
    94a -> 108a  :     0.846733 
    94a -> 114a  :     0.012595 

STATE 22:  E=   0.229117 au      6.235 eV    50285.3 cm**-1 <S**2> =   0.000000
   104a -> 108a  :     0.047096 
   105a -> 110a  :     0.024675 
   105a -> 111a  :     0.565436 
   106a -> 112a  :     0.257685 
   107a -> 115a  :     0.025942 

STATE 23:  E=   0.203020 au      5.524 eV    44557.7 cm**-1 <S**2> =   0.000000
    96a -> 108a  :     0.215070 
   101a -> 109a  :     0.022776 
   102a -> 108a  :     0.010056 
   103a -> 109a  :     0.151166 
   103a -> 115a  :     0.010589 
   104a -> 110a  :     0.079670 
   105a -> 108a  :     0.015590 
   105a -> 114a  :     0.012020 
   106a -> 109a  :     0.286366 
   107a -> 113a  :     0.159801 

STATE 24:  E=   0.214918 au      5.848 eV    47169.0 cm**-1 <S**2> =   0.000000
    95a -> 108a  :     0.016068 
    96a -> 113a  :     0.023477 
   103a -> 110a  :     0.702576 
   104a -> 110a  :     0.013803 
   105a -> 112a  :     0.043881 
   106a -> 111a  :     0.139822 
   107a -> 114a  :     0.011927 

STATE 25:  E=   0.208441 au      5.672 eV    45747.6 cm**-1 <S**2> =   0.000000
    96a -> 108a  :     0.113846 
   101a -> 109a  :     0.029253 
   102a -> 108a  :     0.032711 
   103a -> 109a  :     0.091855 
   104a -> 110a  :     0.079508 
   104a -> 111a  :     0.019716 
   105a -> 108a  :     0.042309 
   105a -> 114a  :     0.035094 
   106a -> 109a  :     0.494501 
   107a -> 112a  :     0.020958 

STATE 26:  E=   0.209524 au      5.701 eV    45985.2 cm**-1 <S**2> =   0.000000
    82a -> 109a  :     0.020660 
    85a -> 110a  :     0.019794 
    92a -> 108a  :     0.555085 
    97a -> 115a  :     0.018094 
    98a -> 108a  :     0.196240 
    98a -> 114a  :     0.034678 
    99a -> 113a  :     0.030880 
   100a -> 110a  :     0.039094 
   100a -> 124a  :     0.011988 

STATE 27:  E=   0.214838 au      5.846 eV    47151.4 cm**-1 <S**2> =   0.000000
   101a -> 108a  :     0.010503 
   105a -> 109a  :     0.822796 
   106a -> 108a  :     0.057816 
   106a -> 114a  :     0.052520 

STATE 28:  E=   0.221657 au      6.032 eV    48648.0 cm**-1 <S**2> =   0.000000
    95a -> 108a  :     0.215669 
    96a -> 112a  :     0.012842 
   103a -> 111a  :     0.333887 
   104a -> 109a  :     0.079703 
   106a -> 110a  :     0.245672 
   106a -> 111a  :     0.017443 
   107a -> 114a  :     0.014817 

STATE 29:  E=   0.212476 au      5.782 eV    46633.2 cm**-1 <S**2> =   0.000000
    90a -> 109a  :     0.011921 
    96a -> 108a  :     0.255366 
   103a -> 109a  :     0.215217 
   104a -> 110a  :     0.216496 
   104a -> 124a  :     0.015879 
   106a -> 109a  :     0.022698 
   107a -> 113a  :     0.187337 

STATE 30:  E=   0.230198 au      6.264 eV    50522.5 cm**-1 <S**2> =   0.000000
    79a -> 110a  :     0.021293 
    88a -> 108a  :     0.018237 
    91a -> 108a  :     0.662051 
    94a -> 109a  :     0.204230 
    94a -> 115a  :     0.015988 


-------------------------
TD-DFT-EXCITATION SPECTRA
-------------------------

Center of mass = ( -0.0000, -0.0000,  0.0001)
Calculating the Dipole integrals                  ... done
Transforming integrals                            ... done
Calculating the Linear Momentum integrals         ... done
Transforming integrals                            ... done
Calculating angular momentum integrals            ... done
Transforming integrals                            ... done

-----------------------------------------------------------------------------
         ABSORPTION SPECTRUM VIA TRANSITION ELECTRIC DIPOLE MOMENTS
-----------------------------------------------------------------------------
State   Energy    Wavelength  fosc         T2        TX        TY        TZ  
        (cm-1)      (nm)                 (au**2)    (au)      (au)      (au) 
-----------------------------------------------------------------------------
   1   20218.2    494.6   1.023433141  16.66448   4.08221  -0.00458  -0.00011
   2   28385.5    352.3   0.000104352   0.00121   0.00000  -0.00007  -0.03479
   3   31396.5    318.5   0.000150196   0.00157  -0.00001  -0.00008   0.03968
   4   29913.8    334.3   0.205808705   2.26500  -0.00027   1.50499   0.00008
   5   33114.4    302.0   0.000000452   0.00000  -0.00000   0.00008  -0.00212
   6   35566.7    281.2   0.000569561   0.00527   0.00006   0.00003  -0.07261
   7   31992.7    312.6   0.000024985   0.00026  -0.00000   0.00005  -0.01603
   8   33232.6    300.9   0.000004599   0.00005   0.00407  -0.00241  -0.00482
   9   33215.1    301.1   0.000341458   0.00338   0.00034  -0.00024   0.05817
  10   33106.2    302.1   0.000000260   0.00000  -0.00002  -0.00001  -0.00161
  11   36499.7    274.0   0.000047282   0.00043   0.01129   0.01729   0.00002
  12   36737.6    272.2   0.000000470   0.00000   0.00003   0.00016   0.00205
  13   38653.3    258.7   0.115166273   0.98088   0.00468   0.99038   0.00010
  14   41325.6    242.0   1.450347848  11.55390  -0.03756   3.39890   0.00003
  15   37144.4    269.2   0.000700246   0.00621   0.00013  -0.00228  -0.07875
  16   43240.2    231.3   0.009973927   0.07594   0.24225   0.13134   0.00016
  17   43325.8    230.8   0.036748151   0.27923   0.01705   0.52815  -0.00014
  18   47830.1    209.1   0.345536641   2.37831  -1.54149  -0.04588  -0.00014
  19   46184.8    216.5   0.003228926   0.02302   0.14028   0.05777   0.00020
  20   44876.4    222.8   0.000000004   0.00000   0.00011  -0.00001  -0.00013
  21   43941.2    227.6   0.003796151   0.02844  -0.00134   0.16864  -0.00000
  22   50285.3    198.9   0.000000083   0.00000   0.00011   0.00000  -0.00073
  23   44557.7    224.4   0.032979658   0.24367   0.15677   0.46807   0.00005
  24   47169.0    212.0   2.366369035  16.51588   4.06397  -0.00812  -0.00009
  25   45747.6    218.6   0.293155972   2.10963   0.02049   1.45231  -0.00003
  26   45985.2    217.5   0.004317077   0.03091   0.17552  -0.00988   0.00002
  27   47151.4    212.1   0.000367112   0.00256  -0.00005  -0.00017   0.05063
  28   48648.0    205.6   0.005668641   0.03836   0.19414   0.02588   0.00001
  29   46633.2    214.4   0.022184629   0.15661  -0.00886   0.39565  -0.00006
  30   50522.5    197.9   0.000047382   0.00031   0.00002  -0.00053  -0.01756

-----------------------------------------------------------------------------
         ABSORPTION SPECTRUM VIA TRANSITION VELOCITY DIPOLE MOMENTS
-----------------------------------------------------------------------------
State   Energy    Wavelength   fosc        P2         PX        PY        PZ  
        (cm-1)      (nm)                 (au**2)     (au)      (au)      (au) 
-----------------------------------------------------------------------------
   1   20218.2    494.6   1.194377313   0.16504  -0.40625   0.00049   0.00001
   2   28385.5    352.3   0.000133760   0.00003   0.00000   0.00001   0.00509
   3   31396.5    318.5   0.000176467   0.00004  -0.00000   0.00001  -0.00615
   4   29913.8    334.3   0.267984833   0.05479   0.00015  -0.23407  -0.00001
   5   33114.4    302.0   0.000000547   0.00000   0.00000  -0.00001   0.00035
   6   35566.7    281.2   0.000753517   0.00018  -0.00001  -0.00001   0.01353
   7   31992.7    312.6   0.000038890   0.00001   0.00000  -0.00001   0.00292
   8   33232.6    300.9   0.000008343   0.00000  -0.00084   0.00052   0.00096
   9   33215.1    301.1   0.000588169   0.00013  -0.00006   0.00005  -0.01155
  10   33106.2    302.1   0.000000450   0.00000   0.00001   0.00000   0.00032
  11   36499.7    274.0   0.000078683   0.00002  -0.00232  -0.00378  -0.00000
  12   36737.6    272.2   0.000003186   0.00000  -0.00001  -0.00004  -0.00089
  13   38653.3    258.7   0.164373976   0.04342  -0.00062  -0.20838  -0.00002
  14   41325.6    242.0   1.974395624   0.55765   0.00780  -0.74672  -0.00001
  15   37144.4    269.2   0.001162854   0.00030  -0.00003   0.00050   0.01717
  16   43240.2    231.3   0.012925268   0.00382  -0.05427  -0.02956  -0.00003
  17   43325.8    230.8   0.042792274   0.01267  -0.00463  -0.11247   0.00003
  18   47830.1    209.1   0.388702859   0.12706   0.35632   0.01011   0.00003
  19   46184.8    216.5   0.003621509   0.00114  -0.03121  -0.01300  -0.00005
  20   44876.4    222.8   0.000000008   0.00000  -0.00003   0.00000   0.00004
  21   43941.2    227.6   0.005333241   0.00160   0.00031  -0.04002  -0.00000
  22   50285.3    198.9   0.000000118   0.00000  -0.00003   0.00000   0.00020
  23   44557.7    224.4   0.050023811   0.01523  -0.03853  -0.11726  -0.00001
  24   47169.0    212.0   3.107621938   1.00182  -1.00091   0.00148   0.00003
  25   45747.6    218.6   0.421895781   0.13191  -0.00519  -0.36316   0.00001
  26   45985.2    217.5   0.006295542   0.00198  -0.04441   0.00245  -0.00000
  27   47151.4    212.1   0.000508566   0.00016   0.00001   0.00004  -0.01280
  28   48648.0    205.6   0.008694229   0.00289  -0.05335  -0.00670  -0.00001
  29   46633.2    214.4   0.033503123   0.01068   0.00264  -0.10330   0.00001
  30   50522.5    197.9   0.000047311   0.00002   0.00001   0.00015   0.00404

-------------------------------------------------------------------
                             CD SPECTRUM
-------------------------------------------------------------------
State  Energy     Wavelength     R         MX        MY        MZ   
       (cm-1)       (nm)     (1e40*cgs)   (au)      (au)      (au)  
-------------------------------------------------------------------
   1   20218.2    494.6     12.23765   0.00636   0.00083   0.00001
   2   28385.5    352.3      9.04680   0.00000   0.00002  -0.55159
   3   31396.5    318.5    -26.12574  -0.00003   0.00005  -1.39639
   4   29913.8    334.3     -0.58698  -0.00031  -0.00083  -0.00009
   5   33114.4    302.0     -0.00595  -0.00004  -0.00013   0.00595
   6   35566.7    281.2     50.80747  -0.00005   0.00005  -1.48424
   7   31992.7    312.6      1.57253   0.00003  -0.00001  -0.20803
   8   33232.6    300.9     -0.52270   0.03474   0.52291  -0.00249
   9   33215.1    301.1      0.70121   0.00283   0.04315   0.02573
  10   33106.2    302.1      0.01058  -0.00008  -0.00066  -0.01396
  11   36499.7    274.0      1.73989   0.35289  -0.01708   0.00025
  12   36737.6    272.2      0.02365  -0.00078   0.00005   0.02452
  13   38653.3    258.7     12.74935  -0.02048   0.02740   0.00003
  14   41325.6    242.0    -135.72148   0.00405  -0.08465  -0.00150
  15   37144.4    269.2     77.81862   0.00001  -0.00008  -2.09610
  16   43240.2    231.3     -1.61205  -0.01170  -0.00446   0.00025
  17   43325.8    230.8     -2.56446  -0.00050  -0.01028   0.00059
  18   47830.1    209.1     11.71187  -0.01612   0.00002  -0.00008
  19   46184.8    216.5     -0.43211  -0.00551  -0.00249   0.00007
  20   44876.4    222.8     -0.00084   0.00000  -0.00006   0.01362
  21   43941.2    227.6     -3.58340  -0.00197  -0.04509  -0.00009
  22   50285.3    198.9     -0.00530  -0.00008  -0.00010   0.01538
  23   44557.7    224.4      1.51102   0.00028   0.00675  -0.00001
  24   47169.0    212.0     26.31299   0.01373  -0.00264   0.00001
  25   45747.6    218.6    -17.25729  -0.00109  -0.02519   0.00005
  26   45985.2    217.5     -9.39371  -0.11369  -0.00311  -0.00002
  27   47151.4    212.1      0.89352   0.00006   0.00005   0.03744
  28   48648.0    205.6      0.02149   0.00041  -0.00134   0.00000
  29   46633.2    214.4     -0.89648  -0.00032  -0.00481   0.00004
  30   50522.5    197.9     -0.12291  -0.00000  -0.00020   0.01485

Total run time:    66114.378 sec

           *** ORCA-CIS/TD-DFT FINISHED WITHOUT ERROR ***

Maximum memory used throughout the entire CIS-calculation: 6234.6 MB

-----------------------
CIS/TD-DFT TOTAL ENERGY
-----------------------

    E(SCF)  =  -1406.457798798 Eh
    DE(CIS) =      0.092121068 Eh (Root  1)
    ----------------------------- ---------
    E(tot)  =  -1406.365677730 Eh


-------------------------   --------------------
FINAL SINGLE POINT ENERGY     -1406.365677730423
-------------------------   --------------------


                            ***************************************
                            *     ORCA property calculations      *
                            ***************************************


  WARNING: The energy has been calculated at the MP2 level but the densities
           used in the property calculations are still SCF densities
           MP2 response densities have not been calculated 
           use %mp2 Density relaxed end
           or  %mp2 Density unrelaxed end

                                    ---------------------
                                    Active property flags
                                    ---------------------
   (+) Dipole Moment


------------------------------------------------------------------------------
                       ORCA ELECTRIC PROPERTIES CALCULATION
------------------------------------------------------------------------------

Dipole Moment Calculation                       ... on
Quadrupole Moment Calculation                   ... off
Polarizability Calculation                      ... off
GBWName                                         ... PDI_1_M06L_def2TZVP_coords.gbw
Electron density                                ... PDI_1_M06L_def2TZVP_coords.scfp
The origin for moment calculation is the CENTER OF MASS  = (-0.000000, -0.000000  0.000137)

-------------
DIPOLE MOMENT
-------------
                                X             Y             Z
Electronic contribution:      0.00012      -0.00012       0.01894
Nuclear contribution   :      0.00001       0.00005      -0.02957
                        -----------------------------------------
Total Dipole Moment    :      0.00013      -0.00007      -0.01063
                        -----------------------------------------
Magnitude (a.u.)       :      0.01063
Magnitude (Debye)      :      0.02703



--------------------
Rotational spectrum 
--------------------
 
Rotational constants in cm-1:     0.013982     0.002362     0.002023 
Rotational constants in MHz :   419.179379    70.800426    60.635339 

 Dipole components along the rotational axes: 
x,y,z [a.u.] :     0.000131     0.000072    -0.010632 
x,y,z [Debye]:     0.000333     0.000183    -0.027024 

 

Timings for individual modules:

Sum of individual times         ...   110209.333 sec (=1836.822 min)
GTO integral calculation        ...       37.304 sec (=   0.622 min)   0.0 %
SCF iterations                  ...     5520.602 sec (=  92.010 min)   5.0 %
MP2 module                      ...    38532.269 sec (= 642.204 min)  35.0 %
CIS module                      ...    66119.157 sec (=1101.986 min)  60.0 %
                             ****ORCA TERMINATED NORMALLY****
TOTAL RUN TIME: 1 days 6 hours 36 minutes 57 seconds 116 msec
