
                                 *****************
                                 * O   R   C   A *
                                 *****************

                                            #,                                       
                                            ###                                      
                                            ####                                     
                                            #####                                    
                                            ######                                   
                                           ########,                                 
                                     ,,################,,,,,                         
                               ,,#################################,,                 
                          ,,##########################################,,             
                       ,#########################################, ''#####,          
                    ,#############################################,,   '####,        
                  ,##################################################,,,,####,       
                ,###########''''           ''''###############################       
              ,#####''   ,,,,##########,,,,          '''####'''          '####       
            ,##' ,,,,###########################,,,                        '##       
           ' ,,###''''                  '''############,,,                           
         ,,##''                                '''############,,,,        ,,,,,,###''
      ,#''                                            '''#######################'''  
     '                                                          ''''####''''         
             ,#######,   #######,   ,#######,      ##                                
            ,#'     '#,  ##    ##  ,#'     '#,    #''#        ######   ,####,        
            ##       ##  ##   ,#'  ##            #'  '#       #        #'  '#        
            ##       ##  #######   ##           ,######,      #####,   #    #        
            '#,     ,#'  ##    ##  '#,     ,#' ,#      #,         ##   #,  ,#        
             '#######'   ##     ##  '#######'  #'      '#     #####' # '####'        



                  #######################################################
                  #                        -***-                        #
                  #          Department of theory and spectroscopy      #
                  #    Directorship and core code : Frank Neese         #
                  #        Max Planck Institute fuer Kohlenforschung    #
                  #                Kaiser Wilhelm Platz 1               #
                  #                 D-45470 Muelheim/Ruhr               #
                  #                      Germany                        #
                  #                                                     #
                  #                  All rights reserved                #
                  #                        -***-                        #
                  #######################################################


                         Program Version 5.0.2 -  RELEASE  -


 With contributions from (in alphabetic order):
   Daniel Aravena         : Magnetic Suceptibility
   Michael Atanasov       : Ab Initio Ligand Field Theory (pilot matlab implementation)
   Alexander A. Auer      : GIAO ZORA, VPT2 properties, NMR spectrum
   Ute Becker             : Parallelization
   Giovanni Bistoni       : ED, misc. LED, open-shell LED, HFLD
   Martin Brehm           : Molecular dynamics
   Dmytro Bykov           : SCF Hessian
   Vijay G. Chilkuri      : MRCI spin determinant printing, contributions to CSF-ICE
   Dipayan Datta          : RHF DLPNO-CCSD density
   Achintya Kumar Dutta   : EOM-CC, STEOM-CC
   Dmitry Ganyushin       : Spin-Orbit,Spin-Spin,Magnetic field MRCI
   Miquel Garcia          : C-PCM and meta-GGA Hessian, CC/C-PCM, Gaussian charge scheme
   Yang Guo               : DLPNO-NEVPT2, F12-NEVPT2, CIM, IAO-localization
   Andreas Hansen         : Spin unrestricted coupled pair/coupled cluster methods
   Benjamin Helmich-Paris : MC-RPA, TRAH-SCF, COSX integrals
   Lee Huntington         : MR-EOM, pCC
   Robert Izsak           : Overlap fitted RIJCOSX, COSX-SCS-MP3, EOM
   Marcus Kettner         : VPT2
   Christian Kollmar      : KDIIS, OOCD, Brueckner-CCSD(T), CCSD density, CASPT2, CASPT2-K
   Simone Kossmann        : Meta GGA functionals, TD-DFT gradient, OOMP2, MP2 Hessian
   Martin Krupicka        : Initial AUTO-CI
   Lucas Lang             : DCDCAS
   Marvin Lechner         : AUTO-CI (C++ implementation), FIC-MRCC
   Dagmar Lenk            : GEPOL surface, SMD
   Dimitrios Liakos       : Extrapolation schemes; Compound Job, initial MDCI parallelization
   Dimitrios Manganas     : Further ROCIS development; embedding schemes
   Dimitrios Pantazis     : SARC Basis sets
   Anastasios Papadopoulos: AUTO-CI, single reference methods and gradients
   Taras Petrenko         : DFT Hessian,TD-DFT gradient, ASA, ECA, R-Raman, ABS, FL, XAS/XES, NRVS
   Peter Pinski           : DLPNO-MP2, DLPNO-MP2 Gradient
   Christoph Reimann      : Effective Core Potentials
   Marius Retegan         : Local ZFS, SOC
   Christoph Riplinger    : Optimizer, TS searches, QM/MM, DLPNO-CCSD(T), (RO)-DLPNO pert. Triples
   Tobias Risthaus        : Range-separated hybrids, TD-DFT gradient, RPA, STAB
   Michael Roemelt        : Original ROCIS implementation
   Masaaki Saitow         : Open-shell DLPNO-CCSD energy and density
   Barbara Sandhoefer     : DKH picture change effects
   Avijit Sen             : IP-ROCIS
   Kantharuban Sivalingam : CASSCF convergence, NEVPT2, FIC-MRCI
   Bernardo de Souza      : ESD, SOC TD-DFT
   Georgi Stoychev        : AutoAux, RI-MP2 NMR, DLPNO-MP2 response
   Willem Van den Heuvel  : Paramagnetic NMR
   Boris Wezisla          : Elementary symmetry handling
   Frank Wennmohs         : Technical directorship


 We gratefully acknowledge several colleagues who have allowed us to
 interface, adapt or use parts of their codes:
   Stefan Grimme, W. Hujo, H. Kruse, P. Pracht,  : VdW corrections, initial TS optimization,
                  C. Bannwarth, S. Ehlert          DFT functionals, gCP, sTDA/sTD-DF
   Ed Valeev, F. Pavosevic, A. Kumar             : LibInt (2-el integral package), F12 methods
   Garnet Chan, S. Sharma, J. Yang, R. Olivares  : DMRG
   Ulf Ekstrom                                   : XCFun DFT Library
   Mihaly Kallay                                 : mrcc  (arbitrary order and MRCC methods)
   Jiri Pittner, Ondrej Demel                    : Mk-CCSD
   Frank Weinhold                                : gennbo (NPA and NBO analysis)
   Christopher J. Cramer and Donald G. Truhlar   : smd solvation model
   Lars Goerigk                                  : TD-DFT with DH, B97 family of functionals
   V. Asgeirsson, H. Jonsson                     : NEB implementation
   FAccTs GmbH                                   : IRC, NEB, NEB-TS, DLPNO-Multilevel, CI-OPT
                                                   MM, QMMM, 2- and 3-layer-ONIOM, Crystal-QMMM,
                                                   LR-CPCM, SF, NACMEs, symmetry and pop. for TD-DFT,
                                                   nearIR, NL-DFT gradient (VV10), updates on ESD,
                                                   ML-optimized integration grids
   S Lehtola, MJT Oliveira, MAL Marques          : LibXC Library
   Liviu Ungur et al                             : ANISO software


 Your calculation uses the libint2 library for the computation of 2-el integrals
 For citations please refer to: http://libint.valeyev.net

 Your ORCA version has been built with support for libXC version: 5.1.0
 For citations please refer to: https://tddft.org/programs/libxc/

 This ORCA versions uses:
   CBLAS   interface :  Fast vector & matrix operations
   LAPACKE interface :  Fast linear algebra routines
   SCALAPACK package :  Parallel linear algebra routines
   Shared memory     :  Shared parallel matrices
   BLAS/LAPACK       :  OpenBLAS 0.3.15  USE64BITINT DYNAMIC_ARCH NO_AFFINITY Zen SINGLE_THREADED
        Core in use  :  Zen
   Copyright (c) 2011-2014, The OpenBLAS Project


Your calculation utilizes the SMD solvation module
Please cite in your paper:
A.V. Marenich, C.J. Cramer, D.G. Truhlar J. Phys. Chem. B, 113, (2009), 6378 

================================================================================

----- Orbital basis set information -----
Your calculation utilizes the basis: def2-TZVP
   F. Weigend and R. Ahlrichs, Phys. Chem. Chem. Phys. 7, 3297 (2005).

----- AuxJ basis set information -----
Your calculation utilizes the auxiliary basis: def2/J
   F. Weigend, Phys. Chem. Chem. Phys. 8, 1057 (2006).

----- AuxC basis set information -----
Your calculation utilizes the auxiliary basis: def2-TZVP/C
  H-La, Hf-Rn : A. Hellweg, C. Hattig, S. Hofener and W. Klopper, Theor. Chem. Acc. 117, 587 (2007).
        Ce-Lu : J. Chmela and M. E. Harding, Mol. Phys. (2018).

================================================================================
                                        WARNINGS
                       Please study these warnings very carefully!
================================================================================

INFO   : Checking CIS options ...
  ===> : (D) CORRECTION FOUND - SETTING MODE=3
  ===> : JK MODE FOUND - ACTIVATING RI-MP2 CODE
  ===> : MP2 AND CIS FOUND - CHECKING
WARNING: CIS(D) and MP2 runs must have the same orbital window
  ===> : adjusting orbital windows

WARNING: No MP2 level density has been requested!
         To caclulate MP2 level properties use
         %mp2 Density relaxed end
         or
         %mp2 Density unrelaxed end
         Otherwise for double-hybrid DFT only the energy is correct!

WARNING: The frozen-core approximation is turned on by default for 
         the MP2 part of double-hybrid DFT.

WARNING:  You are using a Range-Separated Double Hybrid functional with Doubles Correction 
          Changing Mode to RPA_AOINTS 


WARNING: CIS/ROCIS methods need fully converged wavefunctions
  ===> : Setting SCFConvForced true
         You can overwrite this default with %scf ConvForced false 


INFO   : the flag for use of the SHARK integral package has been found!

================================================================================
                                       INPUT FILE
================================================================================
NAME = PDI_1_M06L_def2TZVP_coords.inp
|  1> %maxcore 3200
|  2> %pal
|  3>  nprocs= 8
|  4> end
|  5> ! RI-wB2PLYP def2-TZVP def2/J def2-TZVP/C RIJCOSX CPCM TightSCF
|  6> %TDDFT DCORR 1
|  7>    NROOTS   30
|  8> 
|  9>    TDA      FALSE
| 10> END
| 11> 
| 12> %CPCM
| 13>    SMD          TRUE
| 14>    SMDsolvent   "DICHLOROMETHANE"
| 15> END
| 16>    
| 17> 
| 18> * xyz 0 1
| 19> C                   1.46464600   -2.41893700   -0.06271400
| 20> C                   0.72641700   -1.24107300   -0.01499900
| 21> C                   1.42205100   -0.00158200    0.00156800
| 22> C                   2.84382300   -0.00301800    0.00068500
| 23> C                   3.54933700   -1.22065000   -0.04191100
| 24> C                   2.85128800   -2.41046100   -0.07903600
| 25> H                   0.95923300   -3.37322000   -0.09116000
| 26> C                   0.72918700    1.23961000    0.01888700
| 27> C                   3.55035700    1.21370400    0.04281100
| 28> H                   3.40455200   -3.33956400   -0.11758900
| 29> C                   2.85603900    2.40537100    0.08161500
| 30> C                   1.46935800    2.41633000    0.06644900
| 31> H                   3.41148400    3.33328100    0.12004100
| 32> H                   0.96535600    3.37133800    0.09545200
| 33> C                  -0.72918900   -1.23962400    0.01882700
| 34> C                  -1.42205000    0.00157300    0.00165600
| 35> C                  -1.46936300   -2.41633800    0.06659300
| 36> C                  -0.72641800    1.24106800   -0.01473900
| 37> C                  -2.84382100    0.00301000    0.00079900
| 38> C                  -2.85604700   -2.40537900    0.08185800
| 39> H                  -0.96536200   -3.37134200    0.09572600
| 40> C                  -1.46464200    2.41895300   -0.06206700
| 41> C                  -3.54932500    1.22065700   -0.04173700
| 42> C                  -3.55037000   -1.21371600    0.04297400
| 43> H                  -3.41148900   -3.33328500    0.12042700
| 44> C                  -2.85128100    2.41047900   -0.07852000
| 45> H                  -0.95922500    3.37324200   -0.09015400
| 46> H                  -3.40455300    3.33958500   -0.11689700
| 47> C                   5.01757000   -1.24515300   -0.04927900
| 48> O                   5.65530900   -2.28354200   -0.09105200
| 49> C                   5.01650500    1.22652800    0.04761100
| 50> O                   5.67372900    2.25332000    0.09285300
| 51> N                   5.66106700   -0.00727100   -0.00462900
| 52> C                  -5.01755500    1.24515000   -0.04943100
| 53> O                  -5.65528800    2.28353000   -0.09150600
| 54> C                  -5.01651700   -1.22652700    0.04780100
| 55> O                  -5.67375700   -2.25329900    0.09321200
| 56> N                  -5.66106400    0.00727200   -0.00477200
| 57> C                   7.11459700    0.02798000   -0.00696600
| 58> H                   7.47294100    0.61119000   -0.85250200
| 59> H                   7.48161400    0.49099800    0.90692800
| 60> H                   7.47983500   -0.98932600   -0.07691200
| 61> C                  -7.11459300   -0.02797600   -0.00736100
| 62> H                  -7.48180000   -0.49059900    0.90665800
| 63> H                  -7.47981200    0.98930300   -0.07779800
| 64> H                  -7.47276200   -0.61154600   -0.85272200
| 65> *
| 66> 
| 67> 
| 68>                          ****END OF INPUT****
================================================================================

                       ****************************
                       * Single Point Calculation *
                       ****************************

---------------------------------
CARTESIAN COORDINATES (ANGSTROEM)
---------------------------------
  C      1.464646   -2.418937   -0.062714
  C      0.726417   -1.241073   -0.014999
  C      1.422051   -0.001582    0.001568
  C      2.843823   -0.003018    0.000685
  C      3.549337   -1.220650   -0.041911
  C      2.851288   -2.410461   -0.079036
  H      0.959233   -3.373220   -0.091160
  C      0.729187    1.239610    0.018887
  C      3.550357    1.213704    0.042811
  H      3.404552   -3.339564   -0.117589
  C      2.856039    2.405371    0.081615
  C      1.469358    2.416330    0.066449
  H      3.411484    3.333281    0.120041
  H      0.965356    3.371338    0.095452
  C     -0.729189   -1.239624    0.018827
  C     -1.422050    0.001573    0.001656
  C     -1.469363   -2.416338    0.066593
  C     -0.726418    1.241068   -0.014739
  C     -2.843821    0.003010    0.000799
  C     -2.856047   -2.405379    0.081858
  H     -0.965362   -3.371342    0.095726
  C     -1.464642    2.418953   -0.062067
  C     -3.549325    1.220657   -0.041737
  C     -3.550370   -1.213716    0.042974
  H     -3.411489   -3.333285    0.120427
  C     -2.851281    2.410479   -0.078520
  H     -0.959225    3.373242   -0.090154
  H     -3.404553    3.339585   -0.116897
  C      5.017570   -1.245153   -0.049279
  O      5.655309   -2.283542   -0.091052
  C      5.016505    1.226528    0.047611
  O      5.673729    2.253320    0.092853
  N      5.661067   -0.007271   -0.004629
  C     -5.017555    1.245150   -0.049431
  O     -5.655288    2.283530   -0.091506
  C     -5.016517   -1.226527    0.047801
  O     -5.673757   -2.253299    0.093212
  N     -5.661064    0.007272   -0.004772
  C      7.114597    0.027980   -0.006966
  H      7.472941    0.611190   -0.852502
  H      7.481614    0.490998    0.906928
  H      7.479835   -0.989326   -0.076912
  C     -7.114593   -0.027976   -0.007361
  H     -7.481800   -0.490599    0.906658
  H     -7.479812    0.989303   -0.077798
  H     -7.472762   -0.611546   -0.852722

----------------------------
CARTESIAN COORDINATES (A.U.)
----------------------------
  NO LB      ZA    FRAG     MASS         X           Y           Z
   0 C     6.0000    0    12.011    2.767780   -4.571128   -0.118512
   1 C     6.0000    0    12.011    1.372729   -2.345288   -0.028344
   2 C     6.0000    0    12.011    2.687287   -0.002990    0.002963
   3 C     6.0000    0    12.011    5.374047   -0.005703    0.001294
   4 C     6.0000    0    12.011    6.707275   -2.306694   -0.079200
   5 C     6.0000    0    12.011    5.388153   -4.555111   -0.149356
   6 H     1.0000    0     1.008    1.812688   -6.374462   -0.172267
   7 C     6.0000    0    12.011    1.377964    2.342523    0.035691
   8 C     6.0000    0    12.011    6.709202    2.293568    0.080901
   9 H     1.0000    0     1.008    6.433671   -6.310861   -0.222211
  10 C     6.0000    0    12.011    5.397132    4.545492    0.154230
  11 C     6.0000    0    12.011    2.776684    4.566202    0.125570
  12 H     1.0000    0     1.008    6.446770    6.298988    0.226845
  13 H     1.0000    0     1.008    1.824258    6.370906    0.180378
  14 C     6.0000    0    12.011   -1.377968   -2.342550    0.035578
  15 C     6.0000    0    12.011   -2.687285    0.002973    0.003129
  16 C     6.0000    0    12.011   -2.776694   -4.566217    0.125843
  17 C     6.0000    0    12.011   -1.372731    2.345279   -0.027853
  18 C     6.0000    0    12.011   -5.374043    0.005688    0.001510
  19 C     6.0000    0    12.011   -5.397147   -4.545508    0.154689
  20 H     1.0000    0     1.008   -1.824270   -6.370913    0.180896
  21 C     6.0000    0    12.011   -2.767772    4.571159   -0.117290
  22 C     6.0000    0    12.011   -6.707252    2.306707   -0.078871
  23 C     6.0000    0    12.011   -6.709227   -2.293591    0.081209
  24 H     1.0000    0     1.008   -6.446780   -6.298996    0.227574
  25 C     6.0000    0    12.011   -5.388140    4.555145   -0.148381
  26 H     1.0000    0     1.008   -1.812673    6.374504   -0.170366
  27 H     1.0000    0     1.008   -6.433673    6.310901   -0.220903
  28 C     6.0000    0    12.011    9.481833   -2.352998   -0.093124
  29 O     8.0000    0    15.999   10.686985   -4.315269   -0.172063
  30 C     6.0000    0    12.011    9.479821    2.317802    0.089972
  31 O     8.0000    0    15.999   10.721794    4.258158    0.175467
  32 N     7.0000    0    14.007   10.697866   -0.013740   -0.008748
  33 C     6.0000    0    12.011   -9.481805    2.352992   -0.093411
  34 O     8.0000    0    15.999  -10.686946    4.315246   -0.172921
  35 C     6.0000    0    12.011   -9.479843   -2.317800    0.090331
  36 O     8.0000    0    15.999  -10.721847   -4.258118    0.176145
  37 N     7.0000    0    14.007  -10.697861    0.013742   -0.009018
  38 C     6.0000    0    12.011   13.444640    0.052875   -0.013164
  39 H     1.0000    0     1.008   14.121812    1.154982   -1.610995
  40 H     1.0000    0     1.008   14.138201    0.927852    1.713846
  41 H     1.0000    0     1.008   14.134840   -1.869555   -0.145343
  42 C     6.0000    0    12.011  -13.444632   -0.052867   -0.013910
  43 H     1.0000    0     1.008  -14.138553   -0.927098    1.713335
  44 H     1.0000    0     1.008  -14.134796    1.869512   -0.147017
  45 H     1.0000    0     1.008  -14.121474   -1.155654   -1.611411

--------------------------------
INTERNAL COORDINATES (ANGSTROEM)
--------------------------------
 C      0   0   0     0.000000000000     0.00000000     0.00000000
 C      1   0   0     1.390907035054     0.00000000     0.00000000
 C      2   1   0     1.421449635592   118.62579488     0.00000000
 C      3   2   1     1.421772999381   119.24172352   358.53943996
 C      4   3   2     1.407903445140   120.13251304     1.19881923
 C      5   4   3     1.379964089296   119.53869589   359.82426579
 H      1   2   3     1.080234937212   120.04444656   180.91870558
 C      3   2   1     1.421589972925   121.53096311   178.53402971
 C      4   3   2     1.407614051619   120.06918245   181.21710818
 H      6   5   4     1.082044256079   118.85855421   179.63731210
 C      9   4   3     1.379729493208   119.65787294   359.84399603
 C     11   9   4     1.386807233540   120.64381319   359.37227943
 H     11   9   4     1.082133389930   118.90131197   179.62100608
 H     12  11   9     1.080231211397   118.24344035   180.16148576
 C      2   1   3     1.455999699558   122.15759682   180.02458768
 C     15   2   1     1.421591080927   119.19875441   183.02269869
 C     15   2   1     1.390969079034   122.13664701     2.97334446
 C     16  15   2     1.421450150541   121.53123000   358.43861731
 C     16  15   2     1.421771984482   119.22717179   178.43554495
 C     17  15   2     1.386811319453   121.72025157   180.81117142
 H     17  15   2     1.080230706704   120.03637411     0.98385906
 C     18  16  15     1.390908942737   118.62643872   178.54566976
 C     19  16  15     1.407909592950   120.13190033   181.20811744
 C     20  17  15     1.379730806844   120.64381694     0.32745057
 H     20  17  15     1.082133507457   120.45445687   180.07494830
 C     23  19  16     1.379961885962   119.53945250   359.80954520
 H     22  18  16     1.080232715196   120.04441122   180.90513786
 H     26  23  19     1.082044666060   118.85821204   179.64535103
 C      5   4   3     1.468455932850   121.03867471   179.74247058
 O     29   5   4     1.219306249870   122.50255242   180.29435835
 C      9   4   3     1.466211939960   120.63543224   179.76350559
 O     31   9   4     1.219955751658   123.10582529   180.53290306
 N     31   9   4     1.393000058092   117.05369273     0.62718373
 C     23  19  16     1.468454438376   121.03806815   179.72635473
 O     34  23  19     1.219305830919   122.50239778   180.31361265
 C     24  20  17     1.466210914998   119.70731435   179.44842681
 O     36  24  20     1.219953817366   123.10634022     0.45674232
 N     36  24  20     1.393005645336   117.05329294   180.55812504
 C     33  31   9     1.453959268848   116.17821548   179.64536615
 H     39  33  31     1.087876580193   110.09314440   301.85646618
 H     39  33  31     1.088250609855   110.25019098    61.24924064
 H     39  33  31     1.083144836666   108.32668257   181.52043743
 C     38  36  24     1.453958623299   116.17796624   179.63284751
 H     43  38  36     1.088251695767   110.25133202    61.26366247
 H     43  38  36     1.083144890017   108.32649533   181.53418537
 H     43  38  36     1.087876002944   110.09196279   301.87056481

---------------------------
INTERNAL COORDINATES (A.U.)
---------------------------
 C      0   0   0     0.000000000000     0.00000000     0.00000000
 C      1   0   0     2.628433373996     0.00000000     0.00000000
 C      2   1   0     2.686150524432   118.62579488     0.00000000
 C      3   2   1     2.686761593434   119.24172352   358.53943996
 C      4   3   2     2.660551934318   120.13251304     1.19881923
 C      5   4   3     2.607754203416   119.53869589   359.82426579
 H      1   2   3     2.041348191625   120.04444656   180.91870558
 C      3   2   1     2.686415723557   121.53096311   178.53402971
 C      4   3   2     2.660005059820   120.06918245   181.21710818
 H      6   5   4     2.044767308772   118.85855421   179.63731210
 C      9   4   3     2.607310881058   119.65787294   359.84399603
 C     11   9   4     2.620685871931   120.64381319   359.37227943
 H     11   9   4     2.044935747339   118.90131197   179.62100608
 H     12  11   9     2.041341150855   118.24344035   180.16148576
 C      2   1   3     2.751440683236   122.15759682   180.02458768
 C     15   2   1     2.686417817377   119.19875441   183.02269869
 C     15   2   1     2.628550620126   122.13664701     2.97334446
 C     16  15   2     2.686151497544   121.53123000   358.43861731
 C     16  15   2     2.686759675553   119.22717179   178.43554495
 C     17  15   2     2.620693593187   121.72025157   180.81117142
 H     17  15   2     2.041340197123   120.03637411     0.98385906
 C     18  16  15     2.628436978994   118.62643872   178.54566976
 C     19  16  15     2.660563551996   120.13190033   181.20811744
 C     20  17  15     2.607313363469   120.64381694     0.32745057
 H     20  17  15     2.044935969433   120.45445687   180.07494830
 C     23  19  16     2.607750039718   119.53945250   359.80954520
 H     22  18  16     2.041343992622   120.04441122   180.90513786
 H     26  23  19     2.044768083524   118.85821204   179.64535103
 C      5   4   3     2.774979552818   121.03867471   179.74247058
 O     29   5   4     2.304154885632   122.50255242   180.29435835
 C      9   4   3     2.770739020809   120.63543224   179.76350559
 O     31   9   4     2.305382266136   123.10582529   180.53290306
 N     31   9   4     2.632388614331   117.05369273     0.62718373
 C     23  19  16     2.774976728671   121.03806815   179.72635473
 O     34  23  19     2.304154093931   122.50239778   180.31361265
 C     24  20  17     2.770737083912   119.70731435   179.44842681
 O     36  24  20     2.305378610853   123.10634022     0.45674232
 N     36  24  20     2.632399172692   117.05329294   180.55812504
 C     33  31   9     2.747584828000   116.17821548   179.64536615
 H     39  33  31     2.055788804071   110.09314440   301.85646618
 H     39  33  31     2.056495617698   110.25019098    61.24924064
 H     39  33  31     2.046847104669   108.32668257   181.52043743
 C     38  36  24     2.747583608089   116.17796624   179.63284751
 H     43  38  36     2.056497669774   110.25133202    61.26366247
 H     43  38  36     2.046847205489   108.32649533   181.53418537
 H     43  38  36     2.055787713230   110.09196279   301.87056481

---------------------
BASIS SET INFORMATION
---------------------
There are 4 groups of distinct atoms

 Group   1 Type C   : 11s6p2d1f contracted to 5s3p2d1f pattern {62111/411/11/1}
 Group   2 Type H   : 5s1p contracted to 3s1p pattern {311/1}
 Group   3 Type O   : 11s6p2d1f contracted to 5s3p2d1f pattern {62111/411/11/1}
 Group   4 Type N   : 11s6p2d1f contracted to 5s3p2d1f pattern {62111/411/11/1}

Atom   0C    basis set group =>   1
Atom   1C    basis set group =>   1
Atom   2C    basis set group =>   1
Atom   3C    basis set group =>   1
Atom   4C    basis set group =>   1
Atom   5C    basis set group =>   1
Atom   6H    basis set group =>   2
Atom   7C    basis set group =>   1
Atom   8C    basis set group =>   1
Atom   9H    basis set group =>   2
Atom  10C    basis set group =>   1
Atom  11C    basis set group =>   1
Atom  12H    basis set group =>   2
Atom  13H    basis set group =>   2
Atom  14C    basis set group =>   1
Atom  15C    basis set group =>   1
Atom  16C    basis set group =>   1
Atom  17C    basis set group =>   1
Atom  18C    basis set group =>   1
Atom  19C    basis set group =>   1
Atom  20H    basis set group =>   2
Atom  21C    basis set group =>   1
Atom  22C    basis set group =>   1
Atom  23C    basis set group =>   1
Atom  24H    basis set group =>   2
Atom  25C    basis set group =>   1
Atom  26H    basis set group =>   2
Atom  27H    basis set group =>   2
Atom  28C    basis set group =>   1
Atom  29O    basis set group =>   3
Atom  30C    basis set group =>   1
Atom  31O    basis set group =>   3
Atom  32N    basis set group =>   4
Atom  33C    basis set group =>   1
Atom  34O    basis set group =>   3
Atom  35C    basis set group =>   1
Atom  36O    basis set group =>   3
Atom  37N    basis set group =>   4
Atom  38C    basis set group =>   1
Atom  39H    basis set group =>   2
Atom  40H    basis set group =>   2
Atom  41H    basis set group =>   2
Atom  42C    basis set group =>   1
Atom  43H    basis set group =>   2
Atom  44H    basis set group =>   2
Atom  45H    basis set group =>   2
---------------------------------
AUXILIARY/J BASIS SET INFORMATION
---------------------------------
There are 4 groups of distinct atoms

 Group   1 Type C   : 12s5p4d2f1g contracted to 6s4p3d1f1g pattern {711111/2111/211/2/1}
 Group   2 Type H   : 5s2p1d contracted to 3s1p1d pattern {311/2/1}
 Group   3 Type O   : 12s5p4d2f1g contracted to 6s4p3d1f1g pattern {711111/2111/211/2/1}
 Group   4 Type N   : 12s5p4d2f1g contracted to 6s4p3d1f1g pattern {711111/2111/211/2/1}

Atom   0C    basis set group =>   1
Atom   1C    basis set group =>   1
Atom   2C    basis set group =>   1
Atom   3C    basis set group =>   1
Atom   4C    basis set group =>   1
Atom   5C    basis set group =>   1
Atom   6H    basis set group =>   2
Atom   7C    basis set group =>   1
Atom   8C    basis set group =>   1
Atom   9H    basis set group =>   2
Atom  10C    basis set group =>   1
Atom  11C    basis set group =>   1
Atom  12H    basis set group =>   2
Atom  13H    basis set group =>   2
Atom  14C    basis set group =>   1
Atom  15C    basis set group =>   1
Atom  16C    basis set group =>   1
Atom  17C    basis set group =>   1
Atom  18C    basis set group =>   1
Atom  19C    basis set group =>   1
Atom  20H    basis set group =>   2
Atom  21C    basis set group =>   1
Atom  22C    basis set group =>   1
Atom  23C    basis set group =>   1
Atom  24H    basis set group =>   2
Atom  25C    basis set group =>   1
Atom  26H    basis set group =>   2
Atom  27H    basis set group =>   2
Atom  28C    basis set group =>   1
Atom  29O    basis set group =>   3
Atom  30C    basis set group =>   1
Atom  31O    basis set group =>   3
Atom  32N    basis set group =>   4
Atom  33C    basis set group =>   1
Atom  34O    basis set group =>   3
Atom  35C    basis set group =>   1
Atom  36O    basis set group =>   3
Atom  37N    basis set group =>   4
Atom  38C    basis set group =>   1
Atom  39H    basis set group =>   2
Atom  40H    basis set group =>   2
Atom  41H    basis set group =>   2
Atom  42C    basis set group =>   1
Atom  43H    basis set group =>   2
Atom  44H    basis set group =>   2
Atom  45H    basis set group =>   2
---------------------------------
AUXILIARY/C BASIS SET INFORMATION
---------------------------------
There are 4 groups of distinct atoms

 Group   1 Type C   : 8s6p5d3f1g contracted to 8s6p4d3f1g pattern {11111111/111111/2111/111/1}
 Group   2 Type H   : 4s3p2d contracted to 4s2p1d pattern {1111/21/2}
 Group   3 Type O   : 8s6p5d3f1g contracted to 8s6p4d3f1g pattern {11111111/111111/2111/111/1}
 Group   4 Type N   : 8s6p5d3f1g contracted to 8s6p4d3f1g pattern {11111111/111111/2111/111/1}

Atom   0C    basis set group =>   1
Atom   1C    basis set group =>   1
Atom   2C    basis set group =>   1
Atom   3C    basis set group =>   1
Atom   4C    basis set group =>   1
Atom   5C    basis set group =>   1
Atom   6H    basis set group =>   2
Atom   7C    basis set group =>   1
Atom   8C    basis set group =>   1
Atom   9H    basis set group =>   2
Atom  10C    basis set group =>   1
Atom  11C    basis set group =>   1
Atom  12H    basis set group =>   2
Atom  13H    basis set group =>   2
Atom  14C    basis set group =>   1
Atom  15C    basis set group =>   1
Atom  16C    basis set group =>   1
Atom  17C    basis set group =>   1
Atom  18C    basis set group =>   1
Atom  19C    basis set group =>   1
Atom  20H    basis set group =>   2
Atom  21C    basis set group =>   1
Atom  22C    basis set group =>   1
Atom  23C    basis set group =>   1
Atom  24H    basis set group =>   2
Atom  25C    basis set group =>   1
Atom  26H    basis set group =>   2
Atom  27H    basis set group =>   2
Atom  28C    basis set group =>   1
Atom  29O    basis set group =>   3
Atom  30C    basis set group =>   1
Atom  31O    basis set group =>   3
Atom  32N    basis set group =>   4
Atom  33C    basis set group =>   1
Atom  34O    basis set group =>   3
Atom  35C    basis set group =>   1
Atom  36O    basis set group =>   3
Atom  37N    basis set group =>   4
Atom  38C    basis set group =>   1
Atom  39H    basis set group =>   2
Atom  40H    basis set group =>   2
Atom  41H    basis set group =>   2
Atom  42C    basis set group =>   1
Atom  43H    basis set group =>   2
Atom  44H    basis set group =>   2
Atom  45H    basis set group =>   2


           ************************************************************
           *        Program running with 8 parallel MPI-processes     *
           *              working on a common directory               *
           ************************************************************
------------------------------------------------------------------------------
                           ORCA GTO INTEGRAL CALCULATION
                           -- RI-GTO INTEGRALS CHOSEN --
------------------------------------------------------------------------------
------------------------------------------------------------------------------
                   ___                                                        
                  /   \      - P O W E R E D   B Y -                         
                 /     \                                                     
                 |  |  |   _    _      __       _____    __    __             
                 |  |  |  | |  | |    /  \     |  _  \  |  |  /  |          
                  \  \/   | |  | |   /    \    | | | |  |  | /  /          
                 / \  \   | |__| |  /  /\  \   | |_| |  |  |/  /          
                |  |  |   |  __  | /  /__\  \  |    /   |      \           
                |  |  |   | |  | | |   __   |  |    \   |  |\   \          
                \     /   | |  | | |  |  |  |  | |\  \  |  | \   \       
                 \___/    |_|  |_| |__|  |__|  |_| \__\ |__|  \__/        
                                                                              
                      - O R C A' S   B I G   F R I E N D -                    
                                      &                                       
                       - I N T E G R A L  F E E D E R -                       
                                                                              
 v1 FN, 2020, v2 2021                                                         
------------------------------------------------------------------------------


Reading SHARK input file PDI_1_M06L_def2TZVP_coords.SHARKINP.tmp ... ok
----------------------
SHARK INTEGRAL PACKAGE
----------------------

Number of atoms                             ...     46
Number of basis functions                   ...   1076
Number of shells                            ...    408
Maximum angular momentum                    ...      3
Integral batch strategy                     ... SHARK/LIBINT Hybrid
RI-J (if used) integral strategy            ... SPLIT-RIJ (Revised 2003 algorithm where possible)
Printlevel                                  ...      1
Contraction scheme used                     ... SEGMENTED contraction
Coulomb Range Separation                    ... NOT USED
Exchange Range Separation                   ... Long Range
   Mu parameter                             ...  0.300000
   Scaling (regular/separated)              ...  0.530000  0.470000
Finite Nucleus Model                        ... NOT USED
Auxiliary Coulomb fitting basis             ... AVAILABLE
   # of basis functions in Aux-J            ...   1722
   # of shells in Aux-J                     ...    550
   Maximum angular momentum in Aux-J        ...      4
Auxiliary J/K fitting basis                 ... NOT available
Auxiliary Correlation fitting basis         ... AVAILABLE
   # of basis functions in Aux-C            ...   2642
   # of shells in Aux-C                     ...    802
   Maximum angular momentum in Aux-C        ...      4
Auxiliary 'external' fitting basis          ... NOT available
Integral threshold                          ...     2.500000e-11
Primitive cut-off                           ...     2.500000e-12
Primitive pair pre-selection threshold      ...     2.500000e-12

Calculating pre-screening integrals         ... done (  0.1 sec) Dimension = 408
Organizing shell pair data                  ... done (  0.4 sec)
Shell pair information
Total number of shell pairs                 ...     83436
Shell pairs after pre-screening             ...     50856
Total number of primitive shell pairs       ...    263196
Primitive shell pairs kept                  ...    104270
          la=0 lb=0:  11607 shell pairs
          la=1 lb=0:  14378 shell pairs
          la=1 lb=1:   4389 shell pairs
          la=2 lb=0:   7470 shell pairs
          la=2 lb=1:   4648 shell pairs
          la=2 lb=2:   1215 shell pairs
          la=3 lb=0:   3490 shell pairs
          la=3 lb=1:   2222 shell pairs
          la=3 lb=2:   1144 shell pairs
          la=3 lb=3:    293 shell pairs

Calculating one electron integrals          ... done (  0.1 sec)
Calculating RI/J V-Matrix + Cholesky decomp.... done (  0.1 sec)
Calculating RI/C V-Matrix + Cholesky decomp.... done (  0.2 sec)
Calculating Nuclear repulsion               ... done (  0.0 sec) ENN=   2947.572567001087 Eh

SHARK setup successfully completed in   1.4 seconds

Maximum memory used throughout the entire GTOINT-calculation: 88.4 MB


           ************************************************************
           *        Program running with 8 parallel MPI-processes     *
           *              working on a common directory               *
           ************************************************************
-------------------------------------------------------------------------------
                                 ORCA SCF
-------------------------------------------------------------------------------

------------
SCF SETTINGS
------------
Hamiltonian:
 Density Functional     Method          .... DFT(GTOs)
 Exchange Functional    Exchange        .... WB88
 Correlation Functional Correlation     .... LYP
 LDA part of GGA corr.  LDAOpt          .... VWN-3
 Gradients option       PostSCFGGA      .... off
 Hybrid DFT is turned on
   Fraction HF Exchange ScalHFX         ....  0.530000
   Scaling of DF-GGA-X  ScalDFX         ....  0.000000
   Scaling of DF-GGA-C  ScalDFC         ....  0.730000
   Scaling of DF-LDA-C  ScalLDAC        ....  0.730000
   Perturbative correction              ....  0.270000
   Density functional embedding theory  .... OFF
 Long-range corrected/Screened/Range-Separated Hybrid DFT is turned on
   Amount of maximum screened exact exchange              ....  0.470000
   Range separation parameter mu (erf(mu*r12)/r12)        ....  0.300000
 RI-approximation to the Coulomb term is turned on
   Number of AuxJ basis functions       .... 1722
   RIJ-COSX (HFX calculated with COS-X)).... on


General Settings:
 Integral files         IntName         .... PDI_1_M06L_def2TZVP_coords
 Hartree-Fock type      HFTyp           .... RHF
 Total Charge           Charge          ....    0
 Multiplicity           Mult            ....    1
 Number of Electrons    NEL             ....  216
 Basis Dimension        Dim             .... 1076
 Nuclear Repulsion      ENuc            ....   2947.5725670011 Eh

Convergence Acceleration:
 DIIS                   CNVDIIS         .... on
   Start iteration      DIISMaxIt       ....    12
   Startup error        DIISStart       ....  0.200000
   # of expansion vecs  DIISMaxEq       ....     5
   Bias factor          DIISBfac        ....   1.050
   Max. coefficient     DIISMaxC        ....  10.000
 Trust-Rad. Augm. Hess. CNVTRAH         .... auto
   Auto Start mean grad. ratio tolernc. ....  1.125000
   Auto Start start iteration           ....    20
   Auto Start num. interpolation iter.  ....    10
   Max. Number of Micro iterations      ....    16
   Max. Number of Macro iterations      .... Maxiter - #DIIS iter
   Number of Davidson start vectors     ....     2
   Converg. threshold I  (grad. norm)   ....   1.000e-05
   Converg. threshold II (energy diff.) ....   1.000e-08
   Grad. Scal. Fac. for Micro threshold ....   0.100
   Minimum threshold for Micro iter.    ....   0.010
   NR start threshold (gradient norm)   ....   0.001
   Initial trust radius                 ....   0.400
   Minimum AH scaling param. (alpha)    ....   1.000
   Maximum AH scaling param. (alpha)    .... 1000.000
   Orbital update algorithm             .... Taylor
   White noise on init. David. guess    .... on
   Maximum white noise                  ....   0.010
   Quad. conv. algorithm                .... NR
 SOSCF                  CNVSOSCF        .... on
   Start iteration      SOSCFMaxIt      ....   150
   Startup grad/error   SOSCFStart      ....  0.003300
 Level Shifting         CNVShift        .... on
   Level shift para.    LevelShift      ....    0.2500
   Turn off err/grad.   ShiftErr        ....    0.0010
 Zerner damping         CNVZerner       .... off
 Static damping         CNVDamp         .... on
   Fraction old density DampFac         ....    0.7000
   Max. Damping (<1)    DampMax         ....    0.9800
   Min. Damping (>=0)   DampMin         ....    0.0000
   Turn off err/grad.   DampErr         ....    0.1000
 Fernandez-Rico         CNVRico         .... off

SCF Procedure:
 Maximum # iterations   MaxIter         ....   125
 SCF integral mode      SCFMode         .... Direct
   Integral package                     .... SHARK and LIBINT hybrid scheme
 Reset frequency        DirectResetFreq ....    20
 Integral Threshold     Thresh          ....  2.500e-11 Eh
 Primitive CutOff       TCut            ....  2.500e-12 Eh

Convergence Tolerance:
 Convergence Check Mode ConvCheckMode   .... Total+1el-Energy
 Convergence forced     ConvForced      .... 1
 Energy Change          TolE            ....  1.000e-08 Eh
 1-El. energy change                    ....  1.000e-05 Eh
 Orbital Gradient       TolG            ....  1.000e-05
 Orbital Rotation angle TolX            ....  1.000e-05
 DIIS Error             TolErr          ....  5.000e-07


Diagonalization of the overlap matrix:
Smallest eigenvalue                        ... 1.259e-06
Time for diagonalization                   ...    0.161 sec
Threshold for overlap eigenvalues          ... 1.000e-08
Number of eigenvalues below threshold      ... 0
Time for construction of square roots      ...    0.096 sec
Total time needed                          ...    0.260 sec

Time for model grid setup =    0.315 sec

------------------------------
INITIAL GUESS: MODEL POTENTIAL
------------------------------
Loading Hartree-Fock densities                     ... done
Calculating cut-offs                               ... done
Initializing the effective Hamiltonian             ... done
Setting up the integral package (SHARK)            ... done
Starting the Coulomb interaction                   ... done (   0.7 sec)
Reading the grid                                   ... done
Mapping shells                                     ... done
Starting the XC term evaluation                    ... done (   0.3 sec)
  promolecular density results
     # of electrons  =    215.973391933
     EX              =   -183.040789950
     EC              =     -2.556410922
     EX+EC           =   -185.597200871
Transforming the Hamiltonian                       ... done (   0.1 sec)
Diagonalizing the Hamiltonian                      ... done (   0.1 sec)
Back transforming the eigenvectors                 ... done (   0.0 sec)
Now organizing SCF variables                       ... done
                      ------------------
                      INITIAL GUESS DONE (   1.6 sec)
                      ------------------
-------------------
DFT GRID GENERATION
-------------------

General Integration Accuracy     IntAcc      ... 4.388
Radial Grid Type                 RadialGrid  ... OptM3 with GC (2021)
Angular Grid (max. ang.)         AngularGrid ... 4 (Lebedev-302)
Angular grid pruning method      GridPruning ... 4 (adaptive)
Weight generation scheme         WeightScheme... Becke
Basis function cutoff            BFCut       ... 1.0000e-11
Integration weight cutoff        WCut        ... 1.0000e-14
Angular grids for H and He will be reduced by one unit
Partially contracted basis set               ... off
Rotationally invariant grid construction     ... off

Total number of grid points                  ...   234835
Total number of batches                      ...     3696
Average number of points per batch           ...       63
Average number of grid points per atom       ...     5105
Time for grid setup =    1.364 sec

--------------------
COSX GRID GENERATION
--------------------

GRIDX 1
-------
General Integration Accuracy     IntAcc      ... 3.816
Radial Grid Type                 RadialGrid  ... OptM3 with GC (2021)
Angular Grid (max. ang.)         AngularGrid ... 1 (Lebedev-50)
Angular grid pruning method      GridPruning ... 4 (adaptive)
Weight generation scheme         WeightScheme... Becke
Basis function cutoff            BFCut       ... 1.0000e-11
Integration weight cutoff        WCut        ... 1.0000e-14
Angular grids for H and He will be reduced by one unit
Partially contracted basis set               ... on
Rotationally invariant grid construction     ... off

Total number of grid points                  ...    29840
Total number of batches                      ...      490
Average number of points per batch           ...       60
Average number of grid points per atom       ...      649
UseSFitting                                  ... on

GRIDX 2
-------
General Integration Accuracy     IntAcc      ... 4.020
Radial Grid Type                 RadialGrid  ... OptM3 with GC (2021)
Angular Grid (max. ang.)         AngularGrid ... 2 (Lebedev-110)
Angular grid pruning method      GridPruning ... 4 (adaptive)
Weight generation scheme         WeightScheme... Becke
Basis function cutoff            BFCut       ... 1.0000e-11
Integration weight cutoff        WCut        ... 1.0000e-14
Angular grids for H and He will be reduced by one unit
Partially contracted basis set               ... on
Rotationally invariant grid construction     ... off

Total number of grid points                  ...    65893
Total number of batches                      ...     1058
Average number of points per batch           ...       62
Average number of grid points per atom       ...     1432
UseSFitting                                  ... on

GRIDX 3
-------
General Integration Accuracy     IntAcc      ... 4.338
Radial Grid Type                 RadialGrid  ... OptM3 with GC (2021)
Angular Grid (max. ang.)         AngularGrid ... 3 (Lebedev-194)
Angular grid pruning method      GridPruning ... 4 (adaptive)
Weight generation scheme         WeightScheme... Becke
Basis function cutoff            BFCut       ... 1.0000e-11
Integration weight cutoff        WCut        ... 1.0000e-14
Angular grids for H and He will be reduced by one unit
Partially contracted basis set               ... on
Rotationally invariant grid construction     ... off

Total number of grid points                  ...   144901
Total number of batches                      ...     2289
Average number of points per batch           ...       63
Average number of grid points per atom       ...     3150
UseSFitting                                  ... on

Time for X-Grid setup             =    1.877 sec


--------------------
CPCM SOLVATION MODEL
--------------------
CPCM parameters:
  Epsilon                                         ...       8.9300
  Refrac                                          ...       1.4242
  Rsolv                                           ...       1.3000
  Surface type                                    ... GAUSSIAN VDW
  Epsilon function type                           ...         CPCM
Solvent:                                     ... DICHLOROMETHANE
SMD-CDS solvent descriptors:
  Soln                                       ...    1.4242
  Soln25                                     ...    1.4212
  Sola                                       ...    0.1000
  Solb                                       ...    0.0500
  Solg                                       ...   39.1500
  Solc                                       ...    0.0000
  Solh                                       ...    0.6670
Radii:
 Radius for C  used is    3.4960 Bohr (=   1.8500 Ang.)
 Radius for H  used is    2.2677 Bohr (=   1.2000 Ang.)
 Radius for O  used is    3.9949 Bohr (=   2.1140 Ang.)
 Radius for N  used is    3.5716 Bohr (=   1.8900 Ang.)
Calculating surface                               ...        done! (  0.0s)
GEPOL surface points                              ...         2248
GEPOL Volume                                      ...    2839.0468
GEPOL Surface-area                                ...    1385.5089
Calculating surface distance matrix               ...        done! (  0.0s)
Performing Cholesky decomposition & store         ...        done! (  0.1s)
Overall time for CPCM initialization              ...                 0.2s
--------------
SCF ITERATIONS
--------------
ITER       Energy         Delta-E        Max-DP      RMS-DP      [F,P]     Damp
               ***  Starting incremental Fock matrix formation  ***
  0  -1405.2616420950   0.000000000000 0.19616036  0.00179018  0.2954853 0.7000
  1  -1405.5775930046  -0.315950909642 0.18426696  0.00162058  0.1579941 0.7000
                               ***Turning on DIIS***
  2  -1405.7467148520  -0.169121847374 0.34698146  0.00338412  0.0732852 0.0000
  3  -1406.0613312574  -0.314616405362 0.14703009  0.00103092  0.0623304 0.0000
  4  -1406.0885457953  -0.027214537932 0.03220030  0.00024644  0.0135714 0.0000
  5  -1406.0906877645  -0.002141969193 0.01714014  0.00015565  0.0038559 0.0000
                      *** Initiating the SOSCF procedure ***
                           *** Shutting down DIIS ***
                      *** Re-Reading the Fockian *** 
                      *** Removing any level shift *** 
ITER      Energy       Delta-E        Grad      Rot      Max-DP    RMS-DP
  6  -1406.09114079  -0.0004530207  0.002856  0.002856  0.010304  0.000083
               *** Restarting incremental Fock matrix formation ***
  7  -1406.09118642  -0.0000456360  0.001789  0.005751  0.075300  0.000866
  8  -1406.09127492  -0.0000885026  0.000777  0.005908  0.044507  0.000359
  9  -1406.09130120  -0.0000262757  0.000275  0.000410  0.044645  0.000321
 10  -1406.09130645  -0.0000052533  0.000099  0.000490  0.001372  0.000017
 11  -1406.09130711  -0.0000006536  0.000041  0.000088  0.001939  0.000016
 12  -1406.09130716  -0.0000000554  0.000021  0.000055  0.001152  0.000008
 13  -1406.09130719  -0.0000000244  0.000005  0.000017  0.001466  0.000009
                  ***Gradient check signals convergence***
              ***Rediagonalizing the Fockian in SOSCF/NRSCF***

               *****************************************************
               *                     SUCCESS                       *
               *           SCF CONVERGED AFTER  14 CYCLES          *
               *****************************************************

Old exchange energy                            =   -114.719934652 Eh
New exchange energy                            =   -114.719659347 Eh
Exchange energy change after final integration =      0.000275305 Eh
Total energy after final integration           =  -1406.091031899 Eh
Final COS-X integration done in                =    72.777 sec

SMD CDS free energy correction energy :                -9.80155     Kcal/mol
Total Energy after SMD CDS correction =             -1406.106651659 Eh

----------------
TOTAL SCF ENERGY
----------------

Total Energy       :        -1406.10665166 Eh          -38262.10720 eV

Components:
Nuclear Repulsion  :         2947.57256700 Eh           80207.52722 eV
Electronic Energy  :        -4353.67921866 Eh         -118469.63442 eV
One Electron Energy:        -7772.42131016 Eh         -211498.33622 eV
Two Electron Energy:         3418.74209150 Eh           93028.70180 eV
Max COSX asymmetry :            0.00000782 Eh               0.00021 eV
CPCM Dielectric    :           -0.02936903 Eh              -0.79917 eV
SMD CDS (Gcds)     :           -0.01561976 Eh              -0.42504 eV

Virial components:
Potential Energy   :        -2807.60760484 Eh          -76398.88697 eV
Kinetic Energy     :         1401.50095318 Eh           38136.77977 eV
Virial Ratio       :            2.00328626


DFT components:
N(Alpha)           :      108.000139154151 electrons
N(Beta)            :      108.000139154151 electrons
N(Total)           :      216.000278308302 electrons
E(X)               :      -70.580228887789 Eh       
E(C)               :       -5.501856329889 Eh       
E(XC)              :      -76.082085217678 Eh       
DFET-embed. en.    :        0.000000000000 Eh       
CPCM Solvation Model Properties:
Surface-charge          :           -0.04438908
Charge-correction       :            0.00033161 Eh               0.00902 eV
Free-energy (cav+disp)  :           -0.01561976 Eh              -0.42504 eV

---------------
SCF CONVERGENCE
---------------

  Last Energy change         ...   -1.7655e-08  Tolerance :   1.0000e-08
  Last MAX-Density change    ...    1.6653e-15  Tolerance :   1.0000e-07
  Last RMS-Density change    ...    1.3725e-17  Tolerance :   5.0000e-09
  Last Orbital Gradient      ...    1.9206e-06  Tolerance :   1.0000e-05
  Last Orbital Rotation      ...    1.0010e-05  Tolerance :   1.0000e-05

             **** THE GBW FILE WAS UPDATED (PDI_1_M06L_def2TZVP_coords.gbw) ****
             **** DENSITY PDI_1_M06L_def2TZVP_coords.scfp WAS UPDATED ****
             **** ENERGY FILE WAS UPDATED (PDI_1_M06L_def2TZVP_coords.en.tmp) ****
             **** THE GBW FILE WAS UPDATED (PDI_1_M06L_def2TZVP_coords.gbw) ****
             **** DENSITY PDI_1_M06L_def2TZVP_coords.scfp WAS UPDATED ****
----------------
ORBITAL ENERGIES
----------------

  NO   OCC          E(Eh)            E(eV) 
   0   2.0000     -19.784544      -538.3648 
   1   2.0000     -19.784543      -538.3648 
   2   2.0000     -19.784491      -538.3634 
   3   2.0000     -19.784490      -538.3633 
   4   2.0000     -14.965932      -407.2437 
   5   2.0000     -14.965928      -407.2436 
   6   2.0000     -10.823835      -294.5315 
   7   2.0000     -10.823834      -294.5315 
   8   2.0000     -10.821421      -294.4658 
   9   2.0000     -10.821420      -294.4658 
  10   2.0000     -10.732077      -292.0347 
  11   2.0000     -10.732071      -292.0345 
  12   2.0000     -10.731528      -292.0197 
  13   2.0000     -10.731482      -292.0185 
  14   2.0000     -10.727772      -291.9175 
  15   2.0000     -10.727768      -291.9174 
  16   2.0000     -10.724032      -291.8157 
  17   2.0000     -10.724019      -291.8154 
  18   2.0000     -10.715402      -291.5809 
  19   2.0000     -10.715401      -291.5809 
  20   2.0000     -10.715176      -291.5748 
  21   2.0000     -10.715172      -291.5746 
  22   2.0000     -10.713835      -291.5383 
  23   2.0000     -10.713833      -291.5382 
  24   2.0000     -10.713792      -291.5371 
  25   2.0000     -10.713792      -291.5371 
  26   2.0000     -10.706334      -291.3342 
  27   2.0000     -10.706332      -291.3341 
  28   2.0000     -10.706244      -291.3317 
  29   2.0000     -10.706242      -291.3317 
  30   2.0000     -10.705062      -291.2995 
  31   2.0000     -10.705058      -291.2994 
  32   2.0000      -1.299898       -35.3720 
  33   2.0000      -1.299896       -35.3720 
  34   2.0000      -1.278380       -34.7865 
  35   2.0000      -1.278378       -34.7864 
  36   2.0000      -1.161998       -31.6196 
  37   2.0000      -1.161556       -31.6075 
  38   2.0000      -1.137658       -30.9573 
  39   2.0000      -1.109431       -30.1891 
  40   2.0000      -1.072088       -29.1730 
  41   2.0000      -1.051013       -28.5995 
  42   2.0000      -1.048029       -28.5183 
  43   2.0000      -0.991185       -26.9715 
  44   2.0000      -0.982965       -26.7478 
  45   2.0000      -0.970527       -26.4094 
  46   2.0000      -0.955227       -25.9930 
  47   2.0000      -0.928744       -25.2724 
  48   2.0000      -0.917159       -24.9572 
  49   2.0000      -0.896293       -24.3894 
  50   2.0000      -0.878720       -23.9112 
  51   2.0000      -0.841754       -22.9053 
  52   2.0000      -0.838137       -22.8069 
  53   2.0000      -0.827751       -22.5243 
  54   2.0000      -0.818343       -22.2682 
  55   2.0000      -0.797271       -21.6948 
  56   2.0000      -0.791218       -21.5301 
  57   2.0000      -0.769773       -20.9466 
  58   2.0000      -0.742239       -20.1974 
  59   2.0000      -0.715158       -19.4604 
  60   2.0000      -0.708811       -19.2877 
  61   2.0000      -0.697400       -18.9772 
  62   2.0000      -0.686270       -18.6743 
  63   2.0000      -0.668275       -18.1847 
  64   2.0000      -0.657461       -17.8904 
  65   2.0000      -0.641604       -17.4589 
  66   2.0000      -0.637465       -17.3463 
  67   2.0000      -0.636906       -17.3311 
  68   2.0000      -0.636447       -17.3186 
  69   2.0000      -0.635704       -17.2984 
  70   2.0000      -0.618723       -16.8363 
  71   2.0000      -0.607177       -16.5221 
  72   2.0000      -0.603720       -16.4281 
  73   2.0000      -0.602163       -16.3857 
  74   2.0000      -0.590755       -16.0753 
  75   2.0000      -0.584863       -15.9149 
  76   2.0000      -0.584081       -15.8936 
  77   2.0000      -0.581638       -15.8272 
  78   2.0000      -0.573009       -15.5924 
  79   2.0000      -0.559643       -15.2287 
  80   2.0000      -0.554463       -15.0877 
  81   2.0000      -0.546058       -14.8590 
  82   2.0000      -0.545021       -14.8308 
  83   2.0000      -0.544585       -14.8189 
  84   2.0000      -0.543968       -14.8021 
  85   2.0000      -0.540945       -14.7199 
  86   2.0000      -0.530382       -14.4324 
  87   2.0000      -0.526123       -14.3165 
  88   2.0000      -0.523894       -14.2559 
  89   2.0000      -0.522438       -14.2163 
  90   2.0000      -0.511553       -13.9201 
  91   2.0000      -0.495264       -13.4768 
  92   2.0000      -0.491743       -13.3810 
  93   2.0000      -0.489094       -13.3089 
  94   2.0000      -0.462343       -12.5810 
  95   2.0000      -0.454603       -12.3704 
  96   2.0000      -0.447539       -12.1782 
  97   2.0000      -0.433056       -11.7841 
  98   2.0000      -0.430807       -11.7229 
  99   2.0000      -0.414623       -11.2825 
 100   2.0000      -0.414567       -11.2809 
 101   2.0000      -0.399168       -10.8619 
 102   2.0000      -0.396133       -10.7793 
 103   2.0000      -0.369943       -10.0667 
 104   2.0000      -0.367562       -10.0019 
 105   2.0000      -0.361277        -9.8308 
 106   2.0000      -0.355944        -9.6857 
 107   2.0000      -0.284433        -7.7398 
 108   0.0000      -0.052098        -1.4177 
 109   0.0000       0.027814         0.7569 
 110   0.0000       0.033299         0.9061 
 111   0.0000       0.046581         1.2675 
 112   0.0000       0.075859         2.0642 
 113   0.0000       0.097870         2.6632 
 114   0.0000       0.099073         2.6959 
 115   0.0000       0.129601         3.5266 
 116   0.0000       0.130575         3.5531 
 117   0.0000       0.137190         3.7331 
 118   0.0000       0.143261         3.8983 
 119   0.0000       0.147930         4.0254 
 120   0.0000       0.160881         4.3778 
 121   0.0000       0.161690         4.3998 
 122   0.0000       0.165024         4.4905 
 123   0.0000       0.170370         4.6360 
 124   0.0000       0.177522         4.8306 
 125   0.0000       0.179422         4.8823 
 126   0.0000       0.183120         4.9830 
 127   0.0000       0.193208         5.2575 
 128   0.0000       0.195261         5.3133 
 129   0.0000       0.199257         5.4221 
 130   0.0000       0.200289         5.4501 
 131   0.0000       0.202508         5.5105 
 132   0.0000       0.210087         5.7168 
 133   0.0000       0.216716         5.8971 
 134   0.0000       0.222252         6.0478 
 135   0.0000       0.223510         6.0820 
 136   0.0000       0.233208         6.3459 
 137   0.0000       0.238036         6.4773 
 138   0.0000       0.239799         6.5253 
 139   0.0000       0.245015         6.6672 
 140   0.0000       0.246361         6.7038 
 141   0.0000       0.248557         6.7636 
 142   0.0000       0.250710         6.8222 
 143   0.0000       0.265000         7.2110 
 144   0.0000       0.266895         7.2626 
 145   0.0000       0.270987         7.3739 
 146   0.0000       0.272748         7.4218 
 147   0.0000       0.285049         7.7566 
 148   0.0000       0.287690         7.8284 
 149   0.0000       0.293336         7.9821 
 150   0.0000       0.299017         8.1367 
 151   0.0000       0.299101         8.1390 
 152   0.0000       0.304757         8.2929 
 153   0.0000       0.308069         8.3830 
 154   0.0000       0.310384         8.4460 
 155   0.0000       0.311470         8.4755 
 156   0.0000       0.316503         8.6125 
 157   0.0000       0.320068         8.7095 
 158   0.0000       0.323815         8.8115 
 159   0.0000       0.328956         8.9513 
 160   0.0000       0.334250         9.0954 
 161   0.0000       0.338410         9.2086 
 162   0.0000       0.338620         9.2143 
 163   0.0000       0.339618         9.2415 
 164   0.0000       0.347273         9.4498 
 165   0.0000       0.349786         9.5182 
 166   0.0000       0.351956         9.5772 
 167   0.0000       0.354610         9.6494 
 168   0.0000       0.360494         9.8095 
 169   0.0000       0.363730         9.8976 
 170   0.0000       0.369360        10.0508 
 171   0.0000       0.374849        10.2002 
 172   0.0000       0.377519        10.2728 
 173   0.0000       0.377659        10.2766 
 174   0.0000       0.379256        10.3201 
 175   0.0000       0.387036        10.5318 
 176   0.0000       0.393902        10.7186 
 177   0.0000       0.394328        10.7302 
 178   0.0000       0.396912        10.8005 
 179   0.0000       0.400395        10.8953 
 180   0.0000       0.407840        11.0979 
 181   0.0000       0.409975        11.1560 
 182   0.0000       0.415620        11.3096 
 183   0.0000       0.421234        11.4624 
 184   0.0000       0.424851        11.5608 
 185   0.0000       0.426503        11.6057 
 186   0.0000       0.426539        11.6067 
 187   0.0000       0.427136        11.6230 
 188   0.0000       0.432404        11.7663 
 189   0.0000       0.432729        11.7752 
 190   0.0000       0.436228        11.8704 
 191   0.0000       0.442984        12.0542 
 192   0.0000       0.447100        12.1662 
 193   0.0000       0.450586        12.2611 
 194   0.0000       0.451336        12.2815 
 195   0.0000       0.456075        12.4104 
 196   0.0000       0.459598        12.5063 
 197   0.0000       0.473120        12.8743 
 198   0.0000       0.474452        12.9105 
 199   0.0000       0.480530        13.0759 
 200   0.0000       0.484289        13.1782 
 201   0.0000       0.487710        13.2713 
 202   0.0000       0.490801        13.3554 
 203   0.0000       0.492370        13.3981 
 204   0.0000       0.497803        13.5459 
 205   0.0000       0.500615        13.6224 
 206   0.0000       0.504635        13.7318 
 207   0.0000       0.513626        13.9765 
 208   0.0000       0.514736        14.0067 
 209   0.0000       0.517133        14.0719 
 210   0.0000       0.518874        14.1193 
 211   0.0000       0.521177        14.1819 
 212   0.0000       0.524137        14.2625 
 213   0.0000       0.531703        14.4684 
 214   0.0000       0.532131        14.4800 
 215   0.0000       0.536323        14.5941 
 216   0.0000       0.540930        14.7195 
 217   0.0000       0.550917        14.9912 
 218   0.0000       0.551761        15.0142 
 219   0.0000       0.552926        15.0459 
 220   0.0000       0.554349        15.0846 
 221   0.0000       0.573337        15.6013 
 222   0.0000       0.575063        15.6482 
 223   0.0000       0.582264        15.8442 
 224   0.0000       0.585914        15.9435 
 225   0.0000       0.591027        16.0827 
 226   0.0000       0.591349        16.0914 
 227   0.0000       0.594787        16.1850 
 228   0.0000       0.604196        16.4410 
 229   0.0000       0.604411        16.4468 
 230   0.0000       0.606142        16.4940 
 231   0.0000       0.607545        16.5321 
 232   0.0000       0.619749        16.8642 
 233   0.0000       0.621744        16.9185 
 234   0.0000       0.624049        16.9812 
 235   0.0000       0.624331        16.9889 
 236   0.0000       0.627427        17.0732 
 237   0.0000       0.632665        17.2157 
 238   0.0000       0.635932        17.3046 
 239   0.0000       0.638254        17.3678 
 240   0.0000       0.642672        17.4880 
 241   0.0000       0.652349        17.7513 
 242   0.0000       0.652633        17.7591 
 243   0.0000       0.653903        17.7936 
 244   0.0000       0.664640        18.0858 
 245   0.0000       0.669080        18.2066 
 246   0.0000       0.672822        18.3084 
 247   0.0000       0.678244        18.4560 
 248   0.0000       0.680305        18.5120 
 249   0.0000       0.684539        18.6272 
 250   0.0000       0.687764        18.7150 
 251   0.0000       0.690836        18.7986 
 252   0.0000       0.694533        18.8992 
 253   0.0000       0.697875        18.9901 
 254   0.0000       0.698894        19.0179 
 255   0.0000       0.700635        19.0652 
 256   0.0000       0.708049        19.2670 
 257   0.0000       0.709942        19.3185 
 258   0.0000       0.715458        19.4686 
 259   0.0000       0.716892        19.5076 
 260   0.0000       0.721181        19.6243 
 261   0.0000       0.721457        19.6318 
 262   0.0000       0.723634        19.6911 
 263   0.0000       0.724897        19.7254 
 264   0.0000       0.733961        19.9721 
 265   0.0000       0.734790        19.9946 
 266   0.0000       0.736093        20.0301 
 267   0.0000       0.739834        20.1319 
 268   0.0000       0.744528        20.2596 
 269   0.0000       0.745631        20.2896 
 270   0.0000       0.749560        20.3966 
 271   0.0000       0.758107        20.6291 
 272   0.0000       0.761763        20.7286 
 273   0.0000       0.767772        20.8921 
 274   0.0000       0.768966        20.9246 
 275   0.0000       0.779917        21.2226 
 276   0.0000       0.782091        21.2818 
 277   0.0000       0.792793        21.5730 
 278   0.0000       0.803897        21.8752 
 279   0.0000       0.805102        21.9079 
 280   0.0000       0.806793        21.9539 
 281   0.0000       0.814357        22.1598 
 282   0.0000       0.820264        22.3205 
 283   0.0000       0.823523        22.4092 
 284   0.0000       0.824968        22.4485 
 285   0.0000       0.827168        22.5084 
 286   0.0000       0.829240        22.5648 
 287   0.0000       0.830810        22.6075 
 288   0.0000       0.837751        22.7964 
 289   0.0000       0.848395        23.0860 
 290   0.0000       0.856908        23.3176 
 291   0.0000       0.858760        23.3681 
 292   0.0000       0.863430        23.4951 
 293   0.0000       0.865540        23.5525 
 294   0.0000       0.870876        23.6978 
 295   0.0000       0.871104        23.7039 
 296   0.0000       0.873416        23.7669 
 297   0.0000       0.873505        23.7693 
 298   0.0000       0.881598        23.9895 
 299   0.0000       0.884173        24.0596 
 300   0.0000       0.889456        24.2033 
 301   0.0000       0.890126        24.2216 
 302   0.0000       0.902706        24.5639 
 303   0.0000       0.904440        24.6111 
 304   0.0000       0.909787        24.7566 
 305   0.0000       0.911002        24.7896 
 306   0.0000       0.913304        24.8523 
 307   0.0000       0.922173        25.0936 
 308   0.0000       0.922518        25.1030 
 309   0.0000       0.927517        25.2390 
 310   0.0000       0.935186        25.4477 
 311   0.0000       0.947722        25.7888 
 312   0.0000       0.950826        25.8733 
 313   0.0000       0.952004        25.9054 
 314   0.0000       0.956603        26.0305 
 315   0.0000       0.958462        26.0811 
 316   0.0000       0.960227        26.1291 
 317   0.0000       0.970208        26.4007 
 318   0.0000       0.971807        26.4442 
 319   0.0000       0.977086        26.5879 
 320   0.0000       0.978374        26.6229 
 321   0.0000       0.986352        26.8400 
 322   0.0000       0.986379        26.8407 
 323   0.0000       0.998429        27.1686 
 324   0.0000       1.000313        27.2199 
 325   0.0000       1.005777        27.3686 
 326   0.0000       1.006596        27.3909 
 327   0.0000       1.009306        27.4646 
 328   0.0000       1.013581        27.5809 
 329   0.0000       1.019222        27.7344 
 330   0.0000       1.023322        27.8460 
 331   0.0000       1.030133        28.0314 
 332   0.0000       1.030249        28.0345 
 333   0.0000       1.039707        28.2919 
 334   0.0000       1.046702        28.4822 
 335   0.0000       1.049189        28.5499 
 336   0.0000       1.068558        29.0769 
 337   0.0000       1.075057        29.2538 
 338   0.0000       1.084019        29.4977 
 339   0.0000       1.085382        29.5347 
 340   0.0000       1.092031        29.7157 
 341   0.0000       1.106477        30.1088 
 342   0.0000       1.108809        30.1722 
 343   0.0000       1.112466        30.2717 
 344   0.0000       1.112501        30.2727 
 345   0.0000       1.114901        30.3380 
 346   0.0000       1.119125        30.4529 
 347   0.0000       1.127403        30.6782 
 348   0.0000       1.130938        30.7744 
 349   0.0000       1.139089        30.9962 
 350   0.0000       1.140043        31.0222 
 351   0.0000       1.153051        31.3761 
 352   0.0000       1.161079        31.5946 
 353   0.0000       1.163546        31.6617 
 354   0.0000       1.173045        31.9202 
 355   0.0000       1.183946        32.2168 
 356   0.0000       1.187363        32.3098 
 357   0.0000       1.198648        32.6169 
 358   0.0000       1.198730        32.6191 
 359   0.0000       1.203982        32.7620 
 360   0.0000       1.204133        32.7661 
 361   0.0000       1.211066        32.9548 
 362   0.0000       1.211907        32.9777 
 363   0.0000       1.223844        33.3025 
 364   0.0000       1.232827        33.5469 
 365   0.0000       1.248020        33.9603 
 366   0.0000       1.251228        34.0477 
 367   0.0000       1.254167        34.1276 
 368   0.0000       1.254336        34.1322 
 369   0.0000       1.265007        34.4226 
 370   0.0000       1.269253        34.5381 
 371   0.0000       1.296800        35.2877 
 372   0.0000       1.300656        35.3926 
 373   0.0000       1.305279        35.5185 
 374   0.0000       1.307855        35.5885 
 375   0.0000       1.323750        36.0211 
 376   0.0000       1.328807        36.1587 
 377   0.0000       1.330662        36.2091 
 378   0.0000       1.332561        36.2608 
 379   0.0000       1.349832        36.7308 
 380   0.0000       1.354908        36.8689 
 381   0.0000       1.364826        37.1388 
 382   0.0000       1.368227        37.2313 
 383   0.0000       1.371357        37.3165 
 384   0.0000       1.376003        37.4429 
 385   0.0000       1.389082        37.7988 
 386   0.0000       1.396495        38.0006 
 387   0.0000       1.408655        38.3314 
 388   0.0000       1.418172        38.5904 
 389   0.0000       1.419181        38.6179 
 390   0.0000       1.420477        38.6531 
 391   0.0000       1.429421        38.8965 
 392   0.0000       1.440963        39.2106 
 393   0.0000       1.444247        39.3000 
 394   0.0000       1.450986        39.4833 
 395   0.0000       1.458627        39.6913 
 396   0.0000       1.460178        39.7335 
 397   0.0000       1.462288        39.7909 
 398   0.0000       1.468189        39.9514 
 399   0.0000       1.477870        40.2149 
 400   0.0000       1.491076        40.5742 
 401   0.0000       1.496662        40.7262 
 402   0.0000       1.511582        41.1322 
 403   0.0000       1.518145        41.3108 
 404   0.0000       1.521920        41.4136 
 405   0.0000       1.528843        41.6019 
 406   0.0000       1.530856        41.6567 
 407   0.0000       1.532060        41.6895 
 408   0.0000       1.536226        41.8028 
 409   0.0000       1.538543        41.8659 
 410   0.0000       1.545673        42.0599 
 411   0.0000       1.555851        42.3369 
 412   0.0000       1.576248        42.8919 
 413   0.0000       1.577139        42.9161 
 414   0.0000       1.583139        43.0794 
 415   0.0000       1.591305        43.3016 
 416   0.0000       1.592700        43.3396 
 417   0.0000       1.594876        43.3988 
 418   0.0000       1.596299        43.4375 
 419   0.0000       1.608478        43.7689 
 420   0.0000       1.609469        43.7959 
 421   0.0000       1.611279        43.8451 
 422   0.0000       1.611562        43.8528 
 423   0.0000       1.616843        43.9965 
 424   0.0000       1.627071        44.2749 
 425   0.0000       1.627822        44.2953 
 426   0.0000       1.633137        44.4399 
 427   0.0000       1.635086        44.4930 
 428   0.0000       1.658532        45.1309 
 429   0.0000       1.662196        45.2307 
 430   0.0000       1.663321        45.2613 
 431   0.0000       1.664343        45.2891 
 432   0.0000       1.672342        45.5067 
 433   0.0000       1.677355        45.6432 
 434   0.0000       1.682274        45.7770 
 435   0.0000       1.688095        45.9354 
 436   0.0000       1.707153        46.4540 
 437   0.0000       1.712299        46.5940 
 438   0.0000       1.713392        46.6238 
 439   0.0000       1.713872        46.6368 
 440   0.0000       1.717999        46.7491 
 441   0.0000       1.720010        46.8038 
 442   0.0000       1.721955        46.8568 
 443   0.0000       1.723790        46.9067 
 444   0.0000       1.725171        46.9443 
 445   0.0000       1.732827        47.1526 
 446   0.0000       1.735444        47.2238 
 447   0.0000       1.736844        47.2619 
 448   0.0000       1.745382        47.4943 
 449   0.0000       1.747678        47.5567 
 450   0.0000       1.752045        47.6756 
 451   0.0000       1.760976        47.9186 
 452   0.0000       1.770347        48.1736 
 453   0.0000       1.771843        48.2143 
 454   0.0000       1.780436        48.4481 
 455   0.0000       1.783680        48.5364 
 456   0.0000       1.791202        48.7411 
 457   0.0000       1.793401        48.8009 
 458   0.0000       1.800911        49.0053 
 459   0.0000       1.802993        49.0619 
 460   0.0000       1.817009        49.4433 
 461   0.0000       1.822192        49.5844 
 462   0.0000       1.826969        49.7144 
 463   0.0000       1.834428        49.9173 
 464   0.0000       1.838619        50.0314 
 465   0.0000       1.842258        50.1304 
 466   0.0000       1.849006        50.3140 
 467   0.0000       1.851214        50.3741 
 468   0.0000       1.857943        50.5572 
 469   0.0000       1.870916        50.9102 
 470   0.0000       1.871619        50.9294 
 471   0.0000       1.877872        51.0995 
 472   0.0000       1.881066        51.1864 
 473   0.0000       1.893913        51.5360 
 474   0.0000       1.901362        51.7387 
 475   0.0000       1.905110        51.8407 
 476   0.0000       1.915168        52.1144 
 477   0.0000       1.917132        52.1678 
 478   0.0000       1.925807        52.4039 
 479   0.0000       1.928325        52.4724 
 480   0.0000       1.930018        52.5185 
 481   0.0000       1.931888        52.5694 
 482   0.0000       1.939197        52.7682 
 483   0.0000       1.951319        53.0981 
 484   0.0000       1.954400        53.1819 
 485   0.0000       1.955618        53.2151 
 486   0.0000       1.964964        53.4694 
 487   0.0000       1.973285        53.6958 
 488   0.0000       1.980623        53.8955 
 489   0.0000       1.987720        54.0886 
 490   0.0000       1.990764        54.1714 
 491   0.0000       2.000319        54.4315 
 492   0.0000       2.020821        54.9893 
 493   0.0000       2.021348        55.0037 
 494   0.0000       2.026472        55.1431 
 495   0.0000       2.048448        55.7411 
 496   0.0000       2.058744        56.0213 
 497   0.0000       2.063805        56.1590 
 498   0.0000       2.067093        56.2484 
 499   0.0000       2.078054        56.5467 
 500   0.0000       2.080080        56.6019 
 501   0.0000       2.092456        56.9386 
 502   0.0000       2.093723        56.9731 
 503   0.0000       2.097134        57.0659 
 504   0.0000       2.109385        57.3993 
 505   0.0000       2.113922        57.5228 
 506   0.0000       2.120105        57.6910 
 507   0.0000       2.139925        58.2303 
 508   0.0000       2.140727        58.2521 
 509   0.0000       2.144248        58.3480 
 510   0.0000       2.174470        59.1703 
 511   0.0000       2.183001        59.4025 
 512   0.0000       2.188610        59.5551 
 513   0.0000       2.199010        59.8381 
 514   0.0000       2.213689        60.2375 
 515   0.0000       2.218325        60.3637 
 516   0.0000       2.218628        60.3719 
 517   0.0000       2.220227        60.4155 
 518   0.0000       2.229083        60.6564 
 519   0.0000       2.238379        60.9094 
 520   0.0000       2.241906        61.0054 
 521   0.0000       2.244220        61.0683 
 522   0.0000       2.252402        61.2910 
 523   0.0000       2.262492        61.5655 
 524   0.0000       2.271570        61.8126 
 525   0.0000       2.280767        62.0628 
 526   0.0000       2.289774        62.3079 
 527   0.0000       2.292463        62.3811 
 528   0.0000       2.298062        62.5335 
 529   0.0000       2.314427        62.9788 
 530   0.0000       2.316685        63.0402 
 531   0.0000       2.320023        63.1310 
 532   0.0000       2.321441        63.1696 
 533   0.0000       2.338061        63.6219 
 534   0.0000       2.349218        63.9255 
 535   0.0000       2.357446        64.1494 
 536   0.0000       2.359814        64.2138 
 537   0.0000       2.365167        64.3595 
 538   0.0000       2.370160        64.4953 
 539   0.0000       2.376524        64.6685 
 540   0.0000       2.378863        64.7322 
 541   0.0000       2.398859        65.2763 
 542   0.0000       2.403630        65.4061 
 543   0.0000       2.406679        65.4891 
 544   0.0000       2.415548        65.7304 
 545   0.0000       2.424828        65.9829 
 546   0.0000       2.426580        66.0306 
 547   0.0000       2.432741        66.1982 
 548   0.0000       2.439417        66.3799 
 549   0.0000       2.441151        66.4271 
 550   0.0000       2.441542        66.4377 
 551   0.0000       2.458826        66.9081 
 552   0.0000       2.462302        67.0026 
 553   0.0000       2.468077        67.1598 
 554   0.0000       2.472631        67.2837 
 555   0.0000       2.477741        67.4228 
 556   0.0000       2.482105        67.5415 
 557   0.0000       2.482554        67.5537 
 558   0.0000       2.497829        67.9694 
 559   0.0000       2.498510        67.9879 
 560   0.0000       2.506710        68.2110 
 561   0.0000       2.509603        68.2898 
 562   0.0000       2.518314        68.5268 
 563   0.0000       2.522051        68.6285 
 564   0.0000       2.535680        68.9994 
 565   0.0000       2.548577        69.3503 
 566   0.0000       2.550613        69.4057 
 567   0.0000       2.555727        69.5449 
 568   0.0000       2.561171        69.6930 
 569   0.0000       2.561613        69.7050 
 570   0.0000       2.565753        69.8177 
 571   0.0000       2.566904        69.8490 
 572   0.0000       2.576019        70.0970 
 573   0.0000       2.582449        70.2720 
 574   0.0000       2.597441        70.6800 
 575   0.0000       2.616489        71.1983 
 576   0.0000       2.621723        71.3407 
[...]
   103a -> 109a  :     0.010993 
   104a -> 111a  :     0.028478 
   105a -> 108a  :     0.743242 
   106a -> 109a  :     0.087160 
   107a -> 112a  :     0.092461 

STATE  5:  E=   0.155032 au      4.219 eV    34025.6 cm**-1 <S**2> =   0.000000
   104a -> 108a  :     0.439308 
   105a -> 111a  :     0.019291 
   106a -> 112a  :     0.013807 
   107a -> 109a  :     0.480457 

STATE  6:  E=   0.170221 au      4.632 eV    37359.2 cm**-1 <S**2> =   0.000000
   103a -> 108a  :     0.013866 
   104a -> 112a  :     0.040564 
   106a -> 108a  :     0.158774 
   107a -> 111a  :     0.738203 

STATE  7:  E=   0.163203 au      4.441 eV    35818.9 cm**-1 <S**2> =   0.000000
   103a -> 108a  :     0.412233 
   104a -> 113a  :     0.016720 
   107a -> 110a  :     0.518261 

STATE  8:  E=   0.164354 au      4.472 eV    36071.5 cm**-1 <S**2> =   0.000000
    97a -> 110a  :     0.058850 
    97a -> 125a  :     0.021341 
    98a -> 113a  :     0.056971 
    99a -> 108a  :     0.428042 
    99a -> 114a  :     0.100493 
   100a -> 109a  :     0.220391 
   100a -> 117a  :     0.050876 

STATE  9:  E=   0.164312 au      4.471 eV    36062.3 cm**-1 <S**2> =   0.000000
    97a -> 113a  :     0.061206 
    98a -> 110a  :     0.054616 
    98a -> 125a  :     0.019692 
    99a -> 109a  :     0.220208 
    99a -> 117a  :     0.050799 
   100a -> 108a  :     0.427791 
   100a -> 114a  :     0.100771 
   100a -> 128a  :     0.010023 

STATE 10:  E=   0.169881 au      4.623 eV    37284.7 cm**-1 <S**2> =   0.000000
    95a -> 109a  :     0.015117 
   103a -> 108a  :     0.010818 
   103a -> 112a  :     0.012035 
   104a -> 108a  :     0.442348 
   104a -> 114a  :     0.023054 
   105a -> 110a  :     0.025751 
   107a -> 109a  :     0.428361 

STATE 11:  E=   0.177514 au      4.830 eV    38959.9 cm**-1 <S**2> =   0.000000
    93a -> 114a  :     0.011402 
    97a -> 109a  :     0.192134 
    97a -> 117a  :     0.035684 
    98a -> 108a  :     0.411691 
    98a -> 114a  :     0.068615 
    99a -> 113a  :     0.094916 
   100a -> 110a  :     0.095536 
   100a -> 125a  :     0.032753 

STATE 12:  E=   0.178261 au      4.851 eV    39123.8 cm**-1 <S**2> =   0.000000
    97a -> 108a  :     0.391079 
    97a -> 114a  :     0.079725 
    98a -> 109a  :     0.190329 
    98a -> 117a  :     0.033919 
    99a -> 110a  :     0.101246 
    99a -> 125a  :     0.033872 
   100a -> 113a  :     0.098942 

STATE 13:  E=   0.186266 au      5.069 eV    40880.7 cm**-1 <S**2> =   0.000000
    96a -> 108a  :     0.058290 
   101a -> 109a  :     0.042884 
   102a -> 108a  :     0.238133 
   102a -> 114a  :     0.022053 
   103a -> 109a  :     0.073993 
   104a -> 110a  :     0.059095 
   104a -> 111a  :     0.055024 
   105a -> 108a  :     0.040647 
   107a -> 112a  :     0.299182 
   107a -> 113a  :     0.070968 

STATE 14:  E=   0.202538 au      5.511 eV    44452.1 cm**-1 <S**2> =   0.000000
    96a -> 108a  :     0.043020 
   101a -> 109a  :     0.013930 
   102a -> 108a  :     0.207178 
   103a -> 109a  :     0.104754 
   104a -> 111a  :     0.060621 
   105a -> 108a  :     0.111225 
   107a -> 112a  :     0.390196 
   107a -> 113a  :     0.016163 

STATE 15:  E=   0.190270 au      5.178 eV    41759.4 cm**-1 <S**2> =   0.000000
   101a -> 108a  :     0.700150 
   101a -> 114a  :     0.033126 
   102a -> 109a  :     0.178553 
   102a -> 117a  :     0.015500 
   103a -> 114a  :     0.016608 

STATE 16:  E=   0.206482 au      5.619 eV    45317.5 cm**-1 <S**2> =   0.000000
    95a -> 108a  :     0.051881 
    96a -> 108a  :     0.038916 
   101a -> 109a  :     0.055510 
   102a -> 108a  :     0.142424 
   103a -> 109a  :     0.017763 
   103a -> 111a  :     0.030761 
   104a -> 110a  :     0.125064 
   105a -> 113a  :     0.027059 
   106a -> 110a  :     0.218522 
   107a -> 113a  :     0.184498 

STATE 17:  E=   0.206331 au      5.615 eV    45284.5 cm**-1 <S**2> =   0.000000
    95a -> 108a  :     0.070796 
    96a -> 108a  :     0.025869 
   101a -> 109a  :     0.035222 
   102a -> 108a  :     0.093245 
   103a -> 111a  :     0.069446 
   104a -> 109a  :     0.012380 
   104a -> 110a  :     0.082616 
   105a -> 113a  :     0.048302 
   106a -> 110a  :     0.373236 
   107a -> 113a  :     0.100786 

STATE 18:  E=   0.216477 au      5.891 eV    47511.3 cm**-1 <S**2> =   0.000000
    95a -> 108a  :     0.089186 
   103a -> 110a  :     0.015413 
   103a -> 111a  :     0.097694 
   104a -> 109a  :     0.205475 
   104a -> 117a  :     0.011018 
   106a -> 111a  :     0.018402 
   107a -> 114a  :     0.481460 

STATE 19:  E=   0.225019 au      6.123 eV    49386.0 cm**-1 <S**2> =   0.000000
   103a -> 110a  :     0.107244 
   103a -> 111a  :     0.021706 
   104a -> 109a  :     0.059141 
   105a -> 112a  :     0.205193 
   106a -> 110a  :     0.014576 
   106a -> 111a  :     0.503371 
   107a -> 108a  :     0.026899 

STATE 20:  E=   0.216062 au      5.879 eV    47420.1 cm**-1 <S**2> =   0.000000
    92a -> 108a  :     0.053664 
    96a -> 111a  :     0.010779 
   103a -> 112a  :     0.040453 
   105a -> 110a  :     0.666785 
   105a -> 111a  :     0.019397 
   106a -> 112a  :     0.026113 
   106a -> 113a  :     0.098071 
   107a -> 109a  :     0.031433 

STATE 21:  E=   0.213333 au      5.805 eV    46821.3 cm**-1 <S**2> =   0.000000
    87a -> 110a  :     0.013324 
    91a -> 109a  :     0.059764 
    94a -> 108a  :     0.841768 
    94a -> 114a  :     0.013330 

STATE 22:  E=   0.234091 au      6.370 eV    51377.1 cm**-1 <S**2> =   0.000000
   104a -> 108a  :     0.048873 
   105a -> 110a  :     0.028202 
   105a -> 111a  :     0.553492 
   106a -> 112a  :     0.261996 
   107a -> 117a  :     0.026844 

STATE 23:  E=   0.221081 au      6.016 eV    48521.8 cm**-1 <S**2> =   0.000000
    96a -> 108a  :     0.240860 
   101a -> 109a  :     0.030458 
   102a -> 108a  :     0.014132 
   103a -> 109a  :     0.168192 
   103a -> 117a  :     0.012438 
   104a -> 110a  :     0.096205 
   105a -> 108a  :     0.012744 
   106a -> 109a  :     0.207842 
   107a -> 113a  :     0.169224 

STATE 24:  E=   0.228532 au      6.219 eV    50156.9 cm**-1 <S**2> =   0.000000
    95a -> 108a  :     0.016395 
    96a -> 113a  :     0.027024 
   101a -> 110a  :     0.010114 
   103a -> 110a  :     0.725754 
   104a -> 110a  :     0.011311 
   105a -> 112a  :     0.038734 
   106a -> 111a  :     0.110171 

STATE 25:  E=   0.224884 au      6.119 eV    49356.4 cm**-1 <S**2> =   0.000000
    84a -> 109a  :     0.017299 
    85a -> 110a  :     0.019704 
    93a -> 108a  :     0.573644 
    97a -> 117a  :     0.017422 
    98a -> 108a  :     0.177503 
    98a -> 114a  :     0.033339 
    99a -> 113a  :     0.030007 
   100a -> 110a  :     0.037048 
   100a -> 125a  :     0.011206 

STATE 26:  E=   0.228276 au      6.212 eV    50100.8 cm**-1 <S**2> =   0.000000
    96a -> 108a  :     0.084870 
   101a -> 109a  :     0.025862 
   102a -> 108a  :     0.026554 
   103a -> 109a  :     0.063588 
   104a -> 110a  :     0.062039 
   104a -> 111a  :     0.023007 
   105a -> 108a  :     0.053886 
   105a -> 114a  :     0.045383 
   106a -> 109a  :     0.560660 
   107a -> 112a  :     0.014751 

STATE 27:  E=   0.233009 au      6.340 eV    51139.5 cm**-1 <S**2> =   0.000000
   105a -> 109a  :     0.802405 
   106a -> 108a  :     0.062842 
   106a -> 114a  :     0.060549 

STATE 28:  E=   0.241770 au      6.579 eV    53062.3 cm**-1 <S**2> =   0.000000
    79a -> 110a  :     0.022144 
    88a -> 108a  :     0.013360 
    91a -> 108a  :     0.656288 
    94a -> 109a  :     0.207798 
    94a -> 117a  :     0.016695 

STATE 29:  E=   0.241002 au      6.558 eV    52893.9 cm**-1 <S**2> =   0.000000
    95a -> 108a  :     0.184333 
    96a -> 112a  :     0.014307 
   103a -> 111a  :     0.347156 
   104a -> 109a  :     0.084484 
   105a -> 113a  :     0.012129 
   106a -> 110a  :     0.258772 
   106a -> 111a  :     0.016376 

STATE 30:  E=   0.235651 au      6.412 eV    51719.5 cm**-1 <S**2> =   0.000000
    90a -> 109a  :     0.012941 
    96a -> 108a  :     0.256178 
    96a -> 114a  :     0.010385 
   103a -> 109a  :     0.220004 
   104a -> 110a  :     0.215454 
   104a -> 125a  :     0.017173 
   106a -> 109a  :     0.019292 
   107a -> 113a  :     0.174337 


-------------------------
TD-DFT-EXCITATION SPECTRA
-------------------------

Center of mass = ( -0.0000, -0.0000,  0.0001)
Calculating the Dipole integrals                  ... done
Transforming integrals                            ... done
Calculating the Linear Momentum integrals         ... done
Transforming integrals                            ... done
Calculating angular momentum integrals            ... done
Transforming integrals                            ... done

-----------------------------------------------------------------------------
         ABSORPTION SPECTRUM VIA TRANSITION ELECTRIC DIPOLE MOMENTS
-----------------------------------------------------------------------------
State   Energy    Wavelength  fosc         T2        TX        TY        TZ  
        (cm-1)      (nm)                 (au**2)    (au)      (au)      (au) 
-----------------------------------------------------------------------------
   1   20908.0    478.3   1.056000065  16.62750  -4.07768   0.00493   0.00011
   2   29949.0    333.9   0.000109145   0.00120   0.00000   0.00008   0.03464
   3   32271.5    309.9   0.000136424   0.00139  -0.00001  -0.00011   0.03731
   4   31523.8    317.2   0.199663796   2.08515   0.00062  -1.44400  -0.00007
   5   34025.6    293.9   0.000000454   0.00000   0.00000   0.00007  -0.00210
   6   37359.2    267.7   0.000628397   0.00554   0.00006   0.00003  -0.07441
   7   35818.9    279.2   0.000015689   0.00014  -0.00001   0.00004  -0.01201
   8   36071.5    277.2   0.000005980   0.00005   0.00369  -0.00209  -0.00605
   9   36062.3    277.3   0.000389099   0.00355   0.00038  -0.00024   0.05960
  10   37284.7    268.2   0.000000089   0.00000  -0.00002  -0.00001  -0.00089
  11   38959.9    256.7   0.000014669   0.00012   0.01113  -0.00018   0.00001
  12   39123.8    255.6   0.000000348   0.00000   0.00003   0.00007   0.00171
  13   40880.7    244.6   0.093652263   0.75418   0.00465   0.86842   0.00011
  14   44452.1    225.0   1.613768788  11.95157  -0.02946   3.45698  -0.00003
  15   41759.4    239.5   0.000856549   0.00675   0.00012  -0.00569  -0.08198
  16   45317.5    220.7   0.059374367   0.43133  -0.21250   0.62143  -0.00020
  17   45284.5    220.8   0.056659735   0.41191  -0.23486  -0.59729  -0.00000
  18   47511.3    210.5   0.173332518   1.20104  -1.09247  -0.08685  -0.00024
  19   49386.0    202.5   0.259815681   1.73196  -1.31604   0.00228   0.00002
  20   47420.1    210.9   0.000000016   0.00000  -0.00031   0.00002   0.00013
  21   46821.3    213.6   0.004770254   0.03354   0.00168  -0.18313   0.00000
  22   51377.1    194.6   0.000000090   0.00000   0.00008   0.00000  -0.00076
  23   48521.8    206.1   0.014609500   0.09912  -0.20822  -0.23615  -0.00005
  24   50156.9    199.4   2.369825281  15.55468   3.94394  -0.00081  -0.00009
  25   49356.4    202.6   0.016637415   0.11097  -0.33312  -0.00129   0.00001
  26   50100.8    199.6   0.295124926   1.93927   0.01425   1.39250  -0.00003
  27   51139.5    195.5   0.000370761   0.00239  -0.00003   0.00016  -0.04885
  28   53062.3    188.5   0.000034588   0.00021   0.00027   0.00013   0.01465
  29   52893.9    189.1   0.003796261   0.02363  -0.15198  -0.02304   0.00002
  30   51719.5    193.4   0.021759197   0.13850   0.00816  -0.37207   0.00003

-----------------------------------------------------------------------------
         ABSORPTION SPECTRUM VIA TRANSITION VELOCITY DIPOLE MOMENTS
-----------------------------------------------------------------------------
State   Energy    Wavelength   fosc        P2         PX        PY        PZ  
        (cm-1)      (nm)                 (au**2)     (au)      (au)      (au) 
-----------------------------------------------------------------------------
   1   20908.0    478.3   1.157696680   0.16543   0.40673  -0.00052  -0.00001
   2   29949.0    333.9   0.000123507   0.00003  -0.00000  -0.00001  -0.00503
   3   32271.5    309.9   0.000151305   0.00003  -0.00000   0.00002  -0.00578
   4   31523.8    317.2   0.229855330   0.04952  -0.00022   0.22254   0.00001
   5   34025.6    293.9   0.000000518   0.00000   0.00000  -0.00001   0.00035
   6   37359.2    267.7   0.000745399   0.00019  -0.00001  -0.00001   0.01380
   7   35818.9    279.2   0.000018787   0.00000   0.00000  -0.00001   0.00214
   8   36071.5    277.2   0.000008330   0.00000  -0.00075   0.00044   0.00114
   9   36062.3    277.3   0.000510661   0.00013  -0.00007   0.00005  -0.01122
  10   37284.7    268.2   0.000000123   0.00000   0.00000   0.00000   0.00018
  11   38959.9    256.7   0.000018949   0.00001  -0.00224  -0.00017  -0.00000
  12   39123.8    255.6   0.000002299   0.00000  -0.00001  -0.00002  -0.00078
  13   40880.7    244.6   0.118125723   0.03300  -0.00052  -0.18167  -0.00002
  14   44452.1    225.0   1.870349828   0.56823   0.00598  -0.75378   0.00001
  15   41759.4    239.5   0.001102857   0.00031  -0.00003   0.00124   0.01770
  16   45317.5    220.7   0.063761202   0.01975   0.04667  -0.13255   0.00004
  17   45284.5    220.8   0.062191583   0.01925   0.05303   0.12820  -0.00000
  18   47511.3    210.5   0.192206039   0.06241   0.24909   0.01921   0.00006
  19   49386.0    202.5   0.275217642   0.09289   0.30478  -0.00064  -0.00001
  20   47420.1    210.9   0.000000021   0.00000   0.00007  -0.00000  -0.00004
  21   46821.3    213.6   0.005753043   0.00184  -0.00039   0.04290   0.00000
  22   51377.1    194.6   0.000000120   0.00000  -0.00002   0.00000   0.00020
  23   48521.8    206.1   0.018940943   0.00628   0.05103   0.06064   0.00001
  24   50156.9    199.4   2.737747258   0.93849  -0.96876  -0.00036   0.00003
  25   49356.4    202.6   0.020311480   0.00685   0.08277   0.00040  -0.00001
  26   50100.8    199.6   0.354595347   0.12142  -0.00363  -0.34843   0.00001
  27   51139.5    195.5   0.000436077   0.00015   0.00001  -0.00004   0.01235
  28   53062.3    188.5   0.000029815   0.00001  -0.00009  -0.00003  -0.00329
  29   52893.9    189.1   0.005054229   0.00183   0.04233   0.00596  -0.00000
  30   51719.5    193.4   0.026744403   0.00945  -0.00246   0.09720  -0.00001

-------------------------------------------------------------------
                             CD SPECTRUM
-------------------------------------------------------------------
State  Energy     Wavelength     R         MX        MY        MZ   
       (cm-1)       (nm)     (1e40*cgs)   (au)      (au)      (au)  
-------------------------------------------------------------------
   1   20908.0    478.3     12.24494  -0.00637  -0.00083  -0.00000
   2   29949.0    333.9      7.83780  -0.00000  -0.00002   0.47997
   3   32271.5    309.9    -24.83482  -0.00002   0.00005  -1.41206
   4   31523.8    317.2     -0.14549   0.00029   0.00021   0.00012
   5   34025.6    293.9     -0.00483  -0.00004  -0.00012   0.00488
   6   37359.2    267.7     51.04112  -0.00004   0.00003  -1.45488
   7   35818.9    279.2      0.72811   0.00004  -0.00001  -0.12861
   8   36071.5    277.2     -0.45131   0.03261   0.52357  -0.00315
   9   36062.3    277.3      0.75563   0.00327   0.05296   0.02709
  10   37284.7    268.2      0.00558  -0.00007  -0.00012  -0.01334
  11   38959.9    256.7      1.87401   0.35685  -0.01438   0.00024
  12   39123.8    255.6      0.01705  -0.00064   0.00005   0.02117
  13   40880.7    244.6     12.45483  -0.01424   0.03050   0.00003
  14   44452.1    225.0    -134.84686   0.00295  -0.08271  -0.00363
  15   41759.4    239.5     82.36196   0.00000   0.00000  -2.13108
  16   45317.5    220.7     -4.37497   0.00753  -0.01236   0.00035
  17   45284.5    220.8     -4.61351   0.00788   0.01329  -0.00036
  18   47511.3    210.5      2.65276  -0.00533   0.00231  -0.00010
  19   49386.0    202.5     10.47182  -0.01688  -0.00149  -0.00001
  20   47420.1    210.9     -0.00085   0.00000   0.00006  -0.01369
  21   46821.3    213.6     -3.76415   0.00197   0.04362   0.00010
  22   51377.1    194.6     -0.00547  -0.00008  -0.00010   0.01531
  23   48521.8    206.1      1.28932  -0.00078  -0.01089   0.00001
  24   50156.9    199.4     31.37021   0.01687  -0.00315   0.00001
  25   49356.4    202.6    -16.88261   0.10748   0.00409   0.00006
  26   50100.8    199.6    -15.04552  -0.00020  -0.02292   0.00004
  27   51139.5    195.5     -0.42191  -0.00000  -0.00005   0.01832
  28   53062.3    188.5     -0.08917  -0.00019  -0.00007  -0.01291
  29   52893.9    189.1     -0.06812   0.00076   0.00125  -0.00002
  30   51719.5    193.4     -0.60847   0.00042   0.00348  -0.00002

Total run time:     6047.165 sec

           *** ORCA-CIS/TD-DFT FINISHED WITHOUT ERROR ***

Maximum memory used throughout the entire CIS-calculation: 3848.0 MB

-----------------------
CIS/TD-DFT TOTAL ENERGY
-----------------------

    E(SCF)  =  -1406.106651659 Eh
    DE(CIS) =      0.095263870 Eh (Root  1)
    ----------------------------- ---------
    E(tot)  =  -1406.011387789 Eh


-------------------------   --------------------
FINAL SINGLE POINT ENERGY     -1406.011387788951
-------------------------   --------------------


                            ***************************************
                            *     ORCA property calculations      *
                            ***************************************


  WARNING: The energy has been calculated at the MP2 level but the densities
           used in the property calculations are still SCF densities
           MP2 response densities have not been calculated 
           use %mp2 Density relaxed end
           or  %mp2 Density unrelaxed end

                                    ---------------------
                                    Active property flags
                                    ---------------------
   (+) Dipole Moment


------------------------------------------------------------------------------
                       ORCA ELECTRIC PROPERTIES CALCULATION
------------------------------------------------------------------------------

Dipole Moment Calculation                       ... on
Quadrupole Moment Calculation                   ... off
Polarizability Calculation                      ... off
GBWName                                         ... PDI_1_M06L_def2TZVP_coords.gbw
Electron density                                ... PDI_1_M06L_def2TZVP_coords.scfp
The origin for moment calculation is the CENTER OF MASS  = (-0.000000, -0.000000  0.000137)

-------------
DIPOLE MOMENT
-------------
                                X             Y             Z
Electronic contribution:      0.00009      -0.00012       0.01877
Nuclear contribution   :      0.00001       0.00005      -0.02957
                        -----------------------------------------
Total Dipole Moment    :      0.00010      -0.00007      -0.01080
                        -----------------------------------------
Magnitude (a.u.)       :      0.01080
Magnitude (Debye)      :      0.02745



--------------------
Rotational spectrum 
--------------------
 
Rotational constants in cm-1:     0.013982     0.002362     0.002023 
Rotational constants in MHz :   419.179379    70.800426    60.635339 

 Dipole components along the rotational axes: 
x,y,z [a.u.] :     0.000104     0.000069    -0.010798 
x,y,z [Debye]:     0.000264     0.000175    -0.027446 

 

Timings for individual modules:

Sum of individual times         ...     7002.304 sec (= 116.705 min)
GTO integral calculation        ...        1.777 sec (=   0.030 min)   0.0 %
SCF iterations                  ...      482.314 sec (=   8.039 min)   6.9 %
MP2 module                      ...      470.429 sec (=   7.840 min)   6.7 %
CIS module                      ...     6047.784 sec (= 100.796 min)  86.4 %
                             ****ORCA TERMINATED NORMALLY****
TOTAL RUN TIME: 0 days 1 hours 56 minutes 46 seconds 162 msec
