
                                 *****************
                                 * O   R   C   A *
                                 *****************

                                            #,                                       
                                            ###                                      
                                            ####                                     
                                            #####                                    
                                            ######                                   
                                           ########,                                 
                                     ,,################,,,,,                         
                               ,,#################################,,                 
                          ,,##########################################,,             
                       ,#########################################, ''#####,          
                    ,#############################################,,   '####,        
                  ,##################################################,,,,####,       
                ,###########''''           ''''###############################       
              ,#####''   ,,,,##########,,,,          '''####'''          '####       
            ,##' ,,,,###########################,,,                        '##       
           ' ,,###''''                  '''############,,,                           
         ,,##''                                '''############,,,,        ,,,,,,###''
      ,#''                                            '''#######################'''  
     '                                                          ''''####''''         
             ,#######,   #######,   ,#######,      ##                                
            ,#'     '#,  ##    ##  ,#'     '#,    #''#        ######   ,####,        
            ##       ##  ##   ,#'  ##            #'  '#       #        #'  '#        
            ##       ##  #######   ##           ,######,      #####,   #    #        
            '#,     ,#'  ##    ##  '#,     ,#' ,#      #,         ##   #,  ,#        
             '#######'   ##     ##  '#######'  #'      '#     #####' # '####'        



                  #######################################################
                  #                        -***-                        #
                  #          Department of theory and spectroscopy      #
                  #    Directorship and core code : Frank Neese         #
                  #        Max Planck Institute fuer Kohlenforschung    #
                  #                Kaiser Wilhelm Platz 1               #
                  #                 D-45470 Muelheim/Ruhr               #
                  #                      Germany                        #
                  #                                                     #
                  #                  All rights reserved                #
                  #                        -***-                        #
                  #######################################################


                         Program Version 5.0.2 -  RELEASE  -


 With contributions from (in alphabetic order):
   Daniel Aravena         : Magnetic Suceptibility
   Michael Atanasov       : Ab Initio Ligand Field Theory (pilot matlab implementation)
   Alexander A. Auer      : GIAO ZORA, VPT2 properties, NMR spectrum
   Ute Becker             : Parallelization
   Giovanni Bistoni       : ED, misc. LED, open-shell LED, HFLD
   Martin Brehm           : Molecular dynamics
   Dmytro Bykov           : SCF Hessian
   Vijay G. Chilkuri      : MRCI spin determinant printing, contributions to CSF-ICE
   Dipayan Datta          : RHF DLPNO-CCSD density
   Achintya Kumar Dutta   : EOM-CC, STEOM-CC
   Dmitry Ganyushin       : Spin-Orbit,Spin-Spin,Magnetic field MRCI
   Miquel Garcia          : C-PCM and meta-GGA Hessian, CC/C-PCM, Gaussian charge scheme
   Yang Guo               : DLPNO-NEVPT2, F12-NEVPT2, CIM, IAO-localization
   Andreas Hansen         : Spin unrestricted coupled pair/coupled cluster methods
   Benjamin Helmich-Paris : MC-RPA, TRAH-SCF, COSX integrals
   Lee Huntington         : MR-EOM, pCC
   Robert Izsak           : Overlap fitted RIJCOSX, COSX-SCS-MP3, EOM
   Marcus Kettner         : VPT2
   Christian Kollmar      : KDIIS, OOCD, Brueckner-CCSD(T), CCSD density, CASPT2, CASPT2-K
   Simone Kossmann        : Meta GGA functionals, TD-DFT gradient, OOMP2, MP2 Hessian
   Martin Krupicka        : Initial AUTO-CI
   Lucas Lang             : DCDCAS
   Marvin Lechner         : AUTO-CI (C++ implementation), FIC-MRCC
   Dagmar Lenk            : GEPOL surface, SMD
   Dimitrios Liakos       : Extrapolation schemes; Compound Job, initial MDCI parallelization
   Dimitrios Manganas     : Further ROCIS development; embedding schemes
   Dimitrios Pantazis     : SARC Basis sets
   Anastasios Papadopoulos: AUTO-CI, single reference methods and gradients
   Taras Petrenko         : DFT Hessian,TD-DFT gradient, ASA, ECA, R-Raman, ABS, FL, XAS/XES, NRVS
   Peter Pinski           : DLPNO-MP2, DLPNO-MP2 Gradient
   Christoph Reimann      : Effective Core Potentials
   Marius Retegan         : Local ZFS, SOC
   Christoph Riplinger    : Optimizer, TS searches, QM/MM, DLPNO-CCSD(T), (RO)-DLPNO pert. Triples
   Tobias Risthaus        : Range-separated hybrids, TD-DFT gradient, RPA, STAB
   Michael Roemelt        : Original ROCIS implementation
   Masaaki Saitow         : Open-shell DLPNO-CCSD energy and density
   Barbara Sandhoefer     : DKH picture change effects
   Avijit Sen             : IP-ROCIS
   Kantharuban Sivalingam : CASSCF convergence, NEVPT2, FIC-MRCI
   Bernardo de Souza      : ESD, SOC TD-DFT
   Georgi Stoychev        : AutoAux, RI-MP2 NMR, DLPNO-MP2 response
   Willem Van den Heuvel  : Paramagnetic NMR
   Boris Wezisla          : Elementary symmetry handling
   Frank Wennmohs         : Technical directorship


 We gratefully acknowledge several colleagues who have allowed us to
 interface, adapt or use parts of their codes:
   Stefan Grimme, W. Hujo, H. Kruse, P. Pracht,  : VdW corrections, initial TS optimization,
                  C. Bannwarth, S. Ehlert          DFT functionals, gCP, sTDA/sTD-DF
   Ed Valeev, F. Pavosevic, A. Kumar             : LibInt (2-el integral package), F12 methods
   Garnet Chan, S. Sharma, J. Yang, R. Olivares  : DMRG
   Ulf Ekstrom                                   : XCFun DFT Library
   Mihaly Kallay                                 : mrcc  (arbitrary order and MRCC methods)
   Jiri Pittner, Ondrej Demel                    : Mk-CCSD
   Frank Weinhold                                : gennbo (NPA and NBO analysis)
   Christopher J. Cramer and Donald G. Truhlar   : smd solvation model
   Lars Goerigk                                  : TD-DFT with DH, B97 family of functionals
   V. Asgeirsson, H. Jonsson                     : NEB implementation
   FAccTs GmbH                                   : IRC, NEB, NEB-TS, DLPNO-Multilevel, CI-OPT
                                                   MM, QMMM, 2- and 3-layer-ONIOM, Crystal-QMMM,
                                                   LR-CPCM, SF, NACMEs, symmetry and pop. for TD-DFT,
                                                   nearIR, NL-DFT gradient (VV10), updates on ESD,
                                                   ML-optimized integration grids
   S Lehtola, MJT Oliveira, MAL Marques          : LibXC Library
   Liviu Ungur et al                             : ANISO software


 Your calculation uses the libint2 library for the computation of 2-el integrals
 For citations please refer to: http://libint.valeyev.net

 Your ORCA version has been built with support for libXC version: 5.1.0
 For citations please refer to: https://tddft.org/programs/libxc/

 This ORCA versions uses:
   CBLAS   interface :  Fast vector & matrix operations
   LAPACKE interface :  Fast linear algebra routines
   SCALAPACK package :  Parallel linear algebra routines
   Shared memory     :  Shared parallel matrices
   BLAS/LAPACK       :  OpenBLAS 0.3.15  USE64BITINT DYNAMIC_ARCH NO_AFFINITY Zen SINGLE_THREADED
        Core in use  :  Zen
   Copyright (c) 2011-2014, The OpenBLAS Project


Your calculation utilizes the SMD solvation module
Please cite in your paper:
A.V. Marenich, C.J. Cramer, D.G. Truhlar J. Phys. Chem. B, 113, (2009), 6378 

================================================================================

----- Orbital basis set information -----
Your calculation utilizes the basis: def2-TZVP
   F. Weigend and R. Ahlrichs, Phys. Chem. Chem. Phys. 7, 3297 (2005).

----- AuxJ basis set information -----
Your calculation utilizes the auxiliary basis: def2/J
   F. Weigend, Phys. Chem. Chem. Phys. 8, 1057 (2006).

----- AuxC basis set information -----
Your calculation utilizes the auxiliary basis: def2-TZVP/C
  H-La, Hf-Rn : A. Hellweg, C. Hattig, S. Hofener and W. Klopper, Theor. Chem. Acc. 117, 587 (2007).
        Ce-Lu : J. Chmela and M. E. Harding, Mol. Phys. (2018).

================================================================================
                                        WARNINGS
                       Please study these warnings very carefully!
================================================================================

INFO   : Checking CIS options ...
  ===> : (D) CORRECTION FOUND - SETTING MODE=3
  ===> : JK MODE FOUND - ACTIVATING RI-MP2 CODE
  ===> : MP2 AND CIS FOUND - CHECKING
WARNING: CIS(D) and MP2 runs must have the same orbital window
  ===> : adjusting orbital windows

WARNING: No MP2 level density has been requested!
         To caclulate MP2 level properties use
         %mp2 Density relaxed end
         or
         %mp2 Density unrelaxed end
         Otherwise for double-hybrid DFT only the energy is correct!

WARNING: The frozen-core approximation is turned on by default for 
         the MP2 part of double-hybrid DFT.

WARNING:  You are using a Range-Separated Double Hybrid functional with Doubles Correction 
          Changing Mode to RPA_AOINTS 


WARNING: CIS/ROCIS methods need fully converged wavefunctions
  ===> : Setting SCFConvForced true
         You can overwrite this default with %scf ConvForced false 


INFO   : the flag for use of the SHARK integral package has been found!

================================================================================
                                       INPUT FILE
================================================================================
NAME = PDI_3_M06L_def2TZVP_coords.inp
|  1> %maxcore 3200
|  2> %pal
|  3>  nprocs= 8
|  4> end
|  5> ! RI-wB2PLYP def2-TZVP def2/J def2-TZVP/C RIJCOSX CPCM TightSCF
|  6> %TDDFT DCORR 1
|  7>    NROOTS   30
|  8> 
|  9>    TDA      FALSE
| 10> END
| 11> 
| 12> %CPCM
| 13>    SMD          TRUE
| 14>    SMDsolvent   "DICHLOROMETHANE"
| 15> END
| 16>    
| 17> 
| 18> * xyz 0 1
| 19> C                   2.25498900   -1.41242200    0.83088600
| 20> C                   1.22611500   -0.69583000    0.21135600
| 21> C                   0.00493300   -1.39792800   -0.00562900
| 22> C                   0.01042000   -2.81251500   -0.00659100
| 23> C                   1.12129500   -3.50904100    0.49256700
| 24> C                   2.17569300   -2.79665900    1.00688800
| 25> C                  -1.22133800   -0.70463000   -0.22082200
| 26> C                  -1.09477100   -3.51816200   -0.50590000
| 27> H                   2.96257300   -3.32666300    1.52829200
| 28> C                  -2.15492100   -2.81201700   -1.01771800
| 29> C                  -2.24538800   -1.42879600   -0.83973100
| 30> H                  -2.93782600   -3.34711400   -1.53962200
| 31> C                   1.22134000    0.70485900   -0.22081400
| 32> C                  -0.00493400    1.39815700   -0.00563500
| 33> C                   2.24539800    1.42902200   -0.83971600
| 34> C                  -1.22611800    0.69606200    0.21134400
| 35> C                  -0.01042000    2.81274600   -0.00660000
| 36> C                   2.15494600    2.81224700   -1.01768100
| 37> C                  -2.25499800    1.41265500    0.83086800
| 38> C                  -1.12130800    3.50927300    0.49253300
| 39> C                   1.09478900    3.51839200   -0.50587800
| 40> H                   2.93785100    3.34734000   -1.53958700
| 41> C                  -2.17571000    2.79689600    1.00684900
| 42> H                  -2.96258000    3.32690100    1.52826500
| 43> C                   1.12759000   -4.97842900    0.53013600
| 44> O                   2.04941900   -5.62115000    0.99625400
| 45> C                  -1.09771900   -4.98966800   -0.54948300
| 46> O                  -2.02439300   -5.62127600   -1.01959000
| 47> N                   0.02016100   -5.62649100   -0.01042800
| 48> C                  -1.12758100    4.97866000    0.53014300
| 49> O                  -2.04937800    5.62138200    0.99632400
| 50> C                   1.09772300    4.98989500   -0.54949400
| 51> O                   2.02439400    5.62150300   -1.01960700
| 52> N                  -0.02016900    5.62671900   -0.01046200
| 53> C                   0.05875300   -7.08120700    0.00462200
| 54> H                   0.93046300   -7.43603900   -0.54064000
| 55> H                  -0.84583600   -7.45113700   -0.46211400
| 56> H                   0.12270800   -7.44276900    1.02872300
| 57> C                  -0.05876300    7.08143700    0.00456800
| 58> H                  -0.93068900    7.43623500   -0.54036600
| 59> H                   0.84564600    7.45136100   -0.46252200
| 60> H                  -0.12232200    7.44304300    1.02868000
| 61> S                   3.57178500    0.67502400   -1.76927100
| 62> S                   3.57170700   -0.64788600    1.76482300
| 63> S                  -3.57184100   -0.67481800   -1.76919200
| 64> S                  -3.57163700    0.64809900    1.76491400
| 65> O                  -3.50346600    0.75725100   -1.63144600
| 66> O                  -3.43718700   -1.23408600   -3.09309800
| 67> O                  -3.42871100    1.19738700    3.09213100
| 68> O                  -3.50108900   -0.78278700    1.61644500
| 69> O                   3.50137700    0.78298600    1.61611400
| 70> O                   3.42871900   -1.19691300    3.09214100
| 71> O                   3.50319700   -0.75705700   -1.63176500
| 72> O                   3.43720800    1.23454900   -3.09307700
| 73> C                  -5.13413300    1.22191400    1.14923300
| 74> C                  -6.23966500    0.60898000    1.73510100
| 75> C                  -5.28958100    2.25418700    0.23580100
| 76> C                  -7.51011300    1.04479900    1.40353600
| 77> H                  -6.10364100   -0.19802900    2.44463300
| 78> C                  -6.56999900    2.67894300   -0.08861500
| 79> H                  -4.43467800    2.71571800   -0.23605800
| 80> C                  -7.67625300    2.08132800    0.49458800
| 81> H                  -8.37165500    0.56950400    1.85453100
| 82> H                  -6.69689900    3.48200900   -0.80284000
| 83> H                  -8.67184300    2.41976500    0.23745800
| 84> C                  -5.12970600   -1.24439500   -1.13843000
| 85> C                  -6.23862800   -0.61295700   -1.69725600
| 86> C                  -5.27988200   -2.29194200   -0.24166200
| 87> C                  -7.50748600   -1.04688700   -1.35697200
| 88> H                  -6.10615800    0.20757700   -2.39169900
| 89> C                  -6.55852200   -2.71390400    0.09269500
| 90> H                  -4.42193700   -2.76687300    0.21117100
| 91> C                  -7.66845100   -2.09884800   -0.46506800
| 92> H                  -8.37178400   -0.55767200   -1.78735000
| 93> H                  -6.68129400   -3.52827000    0.79471800
| 94> H                  -8.66279100   -2.43531500   -0.20060000
| 95> C                   5.13408300   -1.22211700    1.14920400
| 96> C                   6.23975600   -0.60974300    1.73539600
| 97> C                   5.28929300   -2.25413500    0.23544200
| 98> C                   7.51009700   -1.04586100    1.40381800
| 99> H                   6.10392700    0.19706700    2.44519500
|100> C                   6.56960900   -2.67921600   -0.08895800
|101> H                   4.43429000   -2.71520700   -0.23668300
|102> C                   7.67599600   -2.08215300    0.49455500
|103> H                   8.37174600   -0.57098800    1.85505300
|104> H                   6.69632200   -3.48209600   -0.80342600
|105> H                   8.67150300   -2.42083700    0.23742600
|106> C                   5.12975200    1.24420000   -1.13842000
|107> C                   6.23854400    0.61224000   -1.69690600
|108> C                   5.28013400    2.29198500   -0.24196800
|109> C                   7.50749300    1.04589300   -1.35660000
|110> H                   6.10590000   -0.20848900   -2.39108400
|111> C                   6.55885700    2.71365200    0.09243200
|112> H                   4.42227100    2.76732600    0.21059300
|113> C                   7.66866600    2.09807900   -0.46500200
|114> H                   8.37169600    0.55628000   -1.78671600
|115> H                   6.68179200    3.52819500    0.79422100
|116> H                   8.66307700    2.43431900   -0.20050800
|117> *
|118> 
|119> 
|120>                          ****END OF INPUT****
================================================================================

                       ****************************
                       * Single Point Calculation *
                       ****************************

---------------------------------
CARTESIAN COORDINATES (ANGSTROEM)
---------------------------------
  C      2.254989   -1.412422    0.830886
  C      1.226115   -0.695830    0.211356
  C      0.004933   -1.397928   -0.005629
  C      0.010420   -2.812515   -0.006591
  C      1.121295   -3.509041    0.492567
  C      2.175693   -2.796659    1.006888
  C     -1.221338   -0.704630   -0.220822
  C     -1.094771   -3.518162   -0.505900
  H      2.962573   -3.326663    1.528292
  C     -2.154921   -2.812017   -1.017718
  C     -2.245388   -1.428796   -0.839731
  H     -2.937826   -3.347114   -1.539622
  C      1.221340    0.704859   -0.220814
  C     -0.004934    1.398157   -0.005635
  C      2.245398    1.429022   -0.839716
  C     -1.226118    0.696062    0.211344
  C     -0.010420    2.812746   -0.006600
  C      2.154946    2.812247   -1.017681
  C     -2.254998    1.412655    0.830868
  C     -1.121308    3.509273    0.492533
  C      1.094789    3.518392   -0.505878
  H      2.937851    3.347340   -1.539587
  C     -2.175710    2.796896    1.006849
  H     -2.962580    3.326901    1.528265
  C      1.127590   -4.978429    0.530136
  O      2.049419   -5.621150    0.996254
  C     -1.097719   -4.989668   -0.549483
  O     -2.024393   -5.621276   -1.019590
  N      0.020161   -5.626491   -0.010428
  C     -1.127581    4.978660    0.530143
  O     -2.049378    5.621382    0.996324
  C      1.097723    4.989895   -0.549494
  O      2.024394    5.621503   -1.019607
  N     -0.020169    5.626719   -0.010462
  C      0.058753   -7.081207    0.004622
  H      0.930463   -7.436039   -0.540640
  H     -0.845836   -7.451137   -0.462114
  H      0.122708   -7.442769    1.028723
  C     -0.058763    7.081437    0.004568
  H     -0.930689    7.436235   -0.540366
  H      0.845646    7.451361   -0.462522
  H     -0.122322    7.443043    1.028680
  S      3.571785    0.675024   -1.769271
  S      3.571707   -0.647886    1.764823
  S     -3.571841   -0.674818   -1.769192
  S     -3.571637    0.648099    1.764914
  O     -3.503466    0.757251   -1.631446
  O     -3.437187   -1.234086   -3.093098
  O     -3.428711    1.197387    3.092131
  O     -3.501089   -0.782787    1.616445
  O      3.501377    0.782986    1.616114
  O      3.428719   -1.196913    3.092141
  O      3.503197   -0.757057   -1.631765
  O      3.437208    1.234549   -3.093077
  C     -5.134133    1.221914    1.149233
  C     -6.239665    0.608980    1.735101
  C     -5.289581    2.254187    0.235801
  C     -7.510113    1.044799    1.403536
  H     -6.103641   -0.198029    2.444633
  C     -6.569999    2.678943   -0.088615
  H     -4.434678    2.715718   -0.236058
  C     -7.676253    2.081328    0.494588
  H     -8.371655    0.569504    1.854531
  H     -6.696899    3.482009   -0.802840
  H     -8.671843    2.419765    0.237458
  C     -5.129706   -1.244395   -1.138430
  C     -6.238628   -0.612957   -1.697256
  C     -5.279882   -2.291942   -0.241662
  C     -7.507486   -1.046887   -1.356972
  H     -6.106158    0.207577   -2.391699
  C     -6.558522   -2.713904    0.092695
  H     -4.421937   -2.766873    0.211171
  C     -7.668451   -2.098848   -0.465068
  H     -8.371784   -0.557672   -1.787350
  H     -6.681294   -3.528270    0.794718
  H     -8.662791   -2.435315   -0.200600
  C      5.134083   -1.222117    1.149204
  C      6.239756   -0.609743    1.735396
  C      5.289293   -2.254135    0.235442
  C      7.510097   -1.045861    1.403818
  H      6.103927    0.197067    2.445195
  C      6.569609   -2.679216   -0.088958
  H      4.434290   -2.715207   -0.236683
  C      7.675996   -2.082153    0.494555
  H      8.371746   -0.570988    1.855053
  H      6.696322   -3.482096   -0.803426
  H      8.671503   -2.420837    0.237426
  C      5.129752    1.244200   -1.138420
  C      6.238544    0.612240   -1.696906
  C      5.280134    2.291985   -0.241968
  C      7.507493    1.045893   -1.356600
  H      6.105900   -0.208489   -2.391084
  C      6.558857    2.713652    0.092432
  H      4.422271    2.767326    0.210593
  C      7.668666    2.098079   -0.465002
  H      8.371696    0.556280   -1.786716
  H      6.681792    3.528195    0.794221
  H      8.663077    2.434319   -0.200508

----------------------------
CARTESIAN COORDINATES (A.U.)
----------------------------
  NO LB      ZA    FRAG     MASS         X           Y           Z
   0 C     6.0000    0    12.011    4.261312   -2.669091    1.570147
   1 C     6.0000    0    12.011    2.317022   -1.314928    0.399405
   2 C     6.0000    0    12.011    0.009322   -2.641701   -0.010637
   3 C     6.0000    0    12.011    0.019691   -5.314883   -0.012455
   4 C     6.0000    0    12.011    2.118940   -6.631126    0.930817
   5 C     6.0000    0    12.011    4.111464   -5.284920    1.902743
   6 C     6.0000    0    12.011   -2.307994   -1.331558   -0.417293
   7 C     6.0000    0    12.011   -2.068817   -6.648363   -0.956012
   8 H     1.0000    0     1.008    5.598452   -6.286482    2.888053
   9 C     6.0000    0    12.011   -4.072211   -5.313942   -1.923208
  10 C     6.0000    0    12.011   -4.243168   -2.700033   -1.586862
  11 H     1.0000    0     1.008   -5.551687   -6.325129   -2.909464
  12 C     6.0000    0    12.011    2.307998    1.331990   -0.417278
  13 C     6.0000    0    12.011   -0.009324    2.642134   -0.010649
  14 C     6.0000    0    12.011    4.243187    2.700460   -1.586833
  15 C     6.0000    0    12.011   -2.317027    1.315367    0.399382
  16 C     6.0000    0    12.011   -0.019691    5.315320   -0.012472
  17 C     6.0000    0    12.011    4.072258    5.314377   -1.923138
  18 C     6.0000    0    12.011   -4.261329    2.669531    1.570113
  19 C     6.0000    0    12.011   -2.118965    6.631565    0.930752
  20 C     6.0000    0    12.011    2.068851    6.648797   -0.955971
  21 H     1.0000    0     1.008    5.551734    6.325556   -2.909398
  22 C     6.0000    0    12.011   -4.111496    5.285367    1.902669
  23 H     1.0000    0     1.008   -5.598465    6.286932    2.888002
  24 C     6.0000    0    12.011    2.130836   -9.407867    1.001812
  25 O     8.0000    0    15.999    3.872841  -10.622434    1.882647
  26 C     6.0000    0    12.011   -2.074388   -9.429106   -1.038372
  27 O     8.0000    0    15.999   -3.825548  -10.622672   -1.926746
  28 N     7.0000    0    14.007    0.038099  -10.632527   -0.019706
  29 C     6.0000    0    12.011   -2.130819    9.408304    1.001825
  30 O     8.0000    0    15.999   -3.872763   10.622872    1.882780
  31 C     6.0000    0    12.011    2.074396    9.429535   -1.038393
  32 O     8.0000    0    15.999    3.825550   10.623101   -1.926778
  33 N     7.0000    0    14.007   -0.038114   10.632958   -0.019770
  34 C     6.0000    0    12.011    0.111027  -13.381542    0.008734
  35 H     1.0000    0     1.008    1.758320  -14.052077   -1.021662
  36 H     1.0000    0     1.008   -1.598398  -14.080608   -0.873269
  37 H     1.0000    0     1.008    0.231885  -14.064795    1.944005
  38 C     6.0000    0    12.011   -0.111046   13.381977    0.008632
  39 H     1.0000    0     1.008   -1.758747   14.052448   -1.021144
  40 H     1.0000    0     1.008    1.598039   14.081032   -0.874040
  41 H     1.0000    0     1.008   -0.231155   14.065313    1.943923
  42 S    16.0000    0    32.060    6.749695    1.275610   -3.343438
  43 S    16.0000    0    32.060    6.749548   -1.224327    3.335032
  44 S    16.0000    0    32.060   -6.749801   -1.275221   -3.343288
  45 S    16.0000    0    32.060   -6.749416    1.224730    3.335204
  46 O     8.0000    0    15.999   -6.620591    1.430997   -3.082986
  47 O     8.0000    0    15.999   -6.495342   -2.332085   -5.845108
  48 O     8.0000    0    15.999   -6.479325    2.262734    5.843281
  49 O     8.0000    0    15.999   -6.616099   -1.479253    3.054638
  50 O     8.0000    0    15.999    6.616644    1.479629    3.054013
  51 O     8.0000    0    15.999    6.479340   -2.261838    5.843300
  52 O     8.0000    0    15.999    6.620083   -1.430630   -3.083589
  53 O     8.0000    0    15.999    6.495382    2.332960   -5.845068
  54 C     6.0000    0    12.011   -9.702105    2.309083    2.171736
  55 C     6.0000    0    12.011  -11.791258    1.150805    3.278866
  56 C     6.0000    0    12.011   -9.995859    4.259796    0.445599
  57 C     6.0000    0    12.011  -14.192057    1.974384    2.652299
  58 H     1.0000    0     1.008  -11.534210   -0.374221    4.619687
  59 C     6.0000    0    12.011  -12.415499    5.062469   -0.167458
  60 H     1.0000    0     1.008   -8.380327    5.131963   -0.446085
  61 C     6.0000    0    12.011  -14.506016    3.933140    0.934636
  62 H     1.0000    0     1.008  -15.820135    1.076207    3.504556
  63 H     1.0000    0     1.008  -12.655305    6.580043   -1.517148
  64 H     1.0000    0     1.008  -16.387408    4.572693    0.448731
  65 C     6.0000    0    12.011   -9.693739   -2.351566   -2.151321
  66 C     6.0000    0    12.011  -11.789298   -1.158321   -3.207349
  67 C     6.0000    0    12.011   -9.977531   -4.331143   -0.456675
  68 C     6.0000    0    12.011  -14.187092   -1.978330   -2.564305
  69 H     1.0000    0     1.008  -11.538966    0.392264   -4.519656
  70 C     6.0000    0    12.011  -12.393810   -5.128535    0.175168
  71 H     1.0000    0     1.008   -8.356250   -5.228632    0.399055
  72 C     6.0000    0    12.011  -14.491272   -3.966248   -0.878851
  73 H     1.0000    0     1.008  -15.820379   -1.053847   -3.377602
  74 H     1.0000    0     1.008  -12.625816   -6.667464    1.501799
  75 H     1.0000    0     1.008  -16.370303   -4.602078   -0.379079
  76 C     6.0000    0    12.011    9.702011   -2.309466    2.171681
  77 C     6.0000    0    12.011   11.791430   -1.152247    3.279423
  78 C     6.0000    0    12.011    9.995315   -4.259698    0.444921
  79 C     6.0000    0    12.011   14.192027   -1.976391    2.652832
  80 H     1.0000    0     1.008   11.534750    0.372403    4.620749
  81 C     6.0000    0    12.011   12.414762   -5.062984   -0.168106
  82 H     1.0000    0     1.008    8.379594   -5.130998   -0.447266
  83 C     6.0000    0    12.011   14.505530   -3.934699    0.934574
  84 H     1.0000    0     1.008   15.820307   -1.079011    3.505542
  85 H     1.0000    0     1.008   12.654215   -6.580208   -1.518255
  86 H     1.0000    0     1.008   16.386766   -4.574719    0.448670
  87 C     6.0000    0    12.011    9.693826    2.351197   -2.151302
  88 C     6.0000    0    12.011   11.789140    1.156966   -3.206688
  89 C     6.0000    0    12.011    9.978007    4.331224   -0.457253
  90 C     6.0000    0    12.011   14.187106    1.976451   -2.563602
  91 H     1.0000    0     1.008   11.538479   -0.393987   -4.518494
  92 C     6.0000    0    12.011   12.394443    5.128059    0.174671
  93 H     1.0000    0     1.008    8.356881    5.229488    0.397963
  94 C     6.0000    0    12.011   14.491679    3.964795   -0.878726
  95 H     1.0000    0     1.008   15.820213    1.051217   -3.376404
  96 H     1.0000    0     1.008   12.626757    6.667322    1.500860
  97 H     1.0000    0     1.008   16.370843    4.600196   -0.378905

--------------------------------
INTERNAL COORDINATES (ANGSTROEM)
--------------------------------
 C      0   0   0     0.000000000000     0.00000000     0.00000000
 C      1   0   0     1.398536100085     0.00000000     0.00000000
 C      2   1   0     1.425240179392   116.44764403     0.00000000
 C      3   2   1     1.414597968747   119.30072897   339.82795690
 C      4   3   2     1.402979131443   119.95287774    14.23702341
 C      5   4   3     1.372504771347   118.94190917     1.61812322
 C      3   2   1     1.425030073189   121.37537226   159.79151648
 C      4   3   2     1.403101675778   120.00676125   194.20727438
 H      6   5   4     1.082564781263   118.99761931   170.70462815
 C      8   4   3     1.372776911464   118.83418017     1.57345783
 C     10   8   4     1.397556433601   120.77201559   348.99280162
 H     10   8   4     1.082429131006   118.94999897   170.69640682
 C      2   1   3     1.465852442863   128.50689540   178.33599496
 C     13   2   1     1.425030540698   115.03498147   218.87323222
 C     13   2   1     1.398623081297   128.52300671    40.56093274
 C     14  13   2     1.425239501741   121.37550519   341.39419031
 C     14  13   2     1.414599966896   119.32381801   161.35749103
 C     15  13   2     1.397556620017   121.42751567   189.33500453
 C     16  14  13     1.398538368664   116.44779799   159.79120759
 C     17  14  13     1.402981026943   119.95279631   194.27203252
 C     18  15  13     1.372776724920   120.77206729     4.54128768
 H     18  15  13     1.082428117941   120.25584480   182.81770007
 C     20  17  14     1.372503375438   118.94208788     1.61902137
 H     23  20  17     1.082563781946   118.99759741   170.70237956
 C      5   4   3     1.469881679364   120.58259631   178.41890693
 O     25   5   4     1.216603871030   122.76203878   182.58757720
 C      8   4   3     1.472154229906   120.98478760   178.39840276
 O     27   8   4     1.215999160933   122.15134249   182.56848200
 N     25   5   4     1.392333574967   116.86978821     3.16478500
 C     20  17  14     1.469881634145   120.58242059   178.41668167
 O     30  20  17     1.216604291976   122.76209672   182.59276800
 C     21  18  15     1.472152180592   120.10458653   172.14207582
 O     32  21  18     1.215999194356   122.15142559   359.35283513
 N     30  20  17     1.392334575901   116.86963356     3.17014531
 C     29  25   5     1.455305633061   116.11375562   178.49599144
 H     35  29  25     1.087701577165   110.00839216   301.55776729
 H     35  29  25     1.083038299192   108.35012864   181.28272707
 H     35  29  25     1.087933904275   110.09008271    61.00840143
 C     34  30  20     1.455307478597   116.11387517   178.49310419
 H     39  34  30     1.087699239053   110.00753089   301.57837923
 H     39  34  30     1.083038537245   108.35014492   181.30295179
 H     39  34  30     1.087935675608   110.09114943    61.02904226
 S     15  13   2     1.786585557928   123.73198427    23.17173534
 S      1   2   3     1.786197051500   123.68465280   205.02840418
 S     11  10   8     1.786577212497   113.54687177   172.01588978
 S     19  16  14     1.786204373406   123.68370241   205.03390180
 O     45  11  10     1.440302302262   109.54883671   185.76859047
 O     45  11  10     1.443481725681   104.14523112   312.79673615
 O     46  19  16     1.443485404675   104.17817022   119.20011037
 O     46  19  16     1.440296778189   109.58640806   352.17173731
 O     44   1   2     1.440296967977   109.58729712   352.16288651
 O     44   1   2     1.443485118731   104.17977410   119.19201652
 O     43  15  13     1.440301428292   109.54804108   352.91894650
 O     43  15  13     1.443482428085   104.14372575   119.94642722
 C     46  19  16     1.774745192416   109.21777831   232.60963217
 C     55  46  19     1.393244560299   114.23488346   175.15772022
 C     55  46  19     1.387122794080   124.59127943   350.70860668
 C     56  55  46     1.383441965060   119.29549567   175.36021730
 H     56  55  46     1.083144364192   120.23763774   355.54157597
 C     57  55  46     1.387491857748   119.02585354   184.99095580
 H     57  55  46     1.080055979684   121.13078983     6.11805929
 C     60  57  55     1.386025735674   120.40944278     0.13603409
 H     58  56  55     1.082384610392   119.52218158   179.84087795
 H     60  57  55     1.082190353395   119.32081169   180.17511215
 H     62  60  57     1.082522465341   119.95412622   179.88939000
 C     45  11  10     1.774604749740   109.35423663    66.27713863
 C     66  45  11     1.393093122589   114.25094302   173.59725360
 C     66  45  11     1.387119459170   124.55652107   348.96075217
 C     67  66  45     1.383506078671   119.28951734   175.08296140
 H     67  66  45     1.083086065973   120.21378673   355.18379389
 C     68  66  45     1.387359644250   119.03073743   185.23179221
 H     68  66  45     1.080132771318   121.13787525     6.44610860
 C     71  68  66     1.386122589220   120.40168880     0.17473339
 H     69  67  66     1.082389750466   119.52351641   179.87512367
 H     71  68  66     1.082174310575   119.32614309   180.23054238
 H     73  71  68     1.082527321001   119.95294398   179.87331791
 C     44   1   2     1.774752591179   109.21364016   232.59997616
 C     77  44   1     1.393246482023   114.23451378   175.18713622
 C     77  44   1     1.387123746847   124.59219070   350.74308418
 C     78  77  44     1.383441049083   119.29570226   175.36545987
 H     78  77  44     1.083146579989   120.23792068   355.54720321
 C     79  77  44     1.387493523018   119.02575811   184.98673561
 H     79  77  44     1.080055338776   121.13057811     6.11439618
 C     82  79  77     1.386024473416   120.40966213     0.13432310
 H     80  78  77     1.082384585328   119.52221385   179.83984668
 H     82  79  77     1.082190834277   119.32062617   180.17405167
 H     84  82  79     1.082523145963   119.95417075   179.88996272
 C     43  15  13     1.774597271571   109.35770226   233.42834802
 C     88  43  15     1.393090001780   114.25190842   173.56886121
 C     88  43  15     1.387117277109   124.55483100   348.92743188
 C     89  88  43     1.383508099957   119.28912995   175.07792752
 H     89  88  43     1.083085231116   120.21352391   355.17743429
 C     90  88  43     1.387356814096   119.03085582   185.23624085
 H     90  88  43     1.080133997137   121.13750127     6.45071067
 C     93  90  88     1.386123659406   120.40132211     0.17587778
 H     91  89  88     1.082389711903   119.52350145   179.87549561
 H     93  90  88     1.082174252879   119.32642741   180.23134914
 H     95  93  90     1.082528360163   119.95278869   179.87305277

---------------------------
INTERNAL COORDINATES (A.U.)
---------------------------
 C      0   0   0     0.000000000000     0.00000000     0.00000000
 C      1   0   0     2.642850217562     0.00000000     0.00000000
 C      2   1   0     2.693313614111   116.44764403     0.00000000
 C      3   2   1     2.673202750532   119.30072897   339.82795690
 C      4   3   2     2.651246330034   119.95287774    14.23702341
 C      5   4   3     2.593658135345   118.94190917     1.61812322
 C      3   2   1     2.692916570930   121.37537226   159.79151648
 C      4   3   2     2.651477905266   120.00676125   194.20727438
 H      6   5   4     2.045750958816   118.99761931   170.70462815
 C      8   4   3     2.594172405637   118.83418017     1.57345783
 C     10   8   4     2.640998916205   120.77201559   348.99280162
 H     10   8   4     2.045494616979   118.94999897   170.69640682
 C      2   1   3     2.770059669750   128.50689540   178.33599496
 C     13   2   1     2.692917454392   115.03498147   218.87323222
 C     13   2   1     2.643014588233   128.52300671    40.56093274
 C     14  13   2     2.693312333536   121.37550519   341.39419031
 C     14  13   2     2.673206526487   119.32381801   161.35749103
 C     15  13   2     2.640999268481   121.42751567   189.33500453
 C     16  14  13     2.642854504556   116.44779799   159.79120759
 C     17  14  13     2.651249912010   119.95279631   194.27203252
 C     18  15  13     2.594172053121   120.77206729     4.54128768
 H     18  15  13     2.045492702565   120.25584480   182.81770007
 C     20  17  14     2.593655497461   118.94208788     1.61902137
 H     23  20  17     2.045749070380   118.99759741   170.70237956
 C      5   4   3     2.777673823266   120.58259631   178.41890693
 O     25   5   4     2.299048129716   122.76203878   182.58757720
 C      8   4   3     2.781968321415   120.98478760   178.39840276
 O     27   8   4     2.297905393241   122.15134249   182.56848200
 N     25   5   4     2.631129143752   116.86978821     3.16478500
 C     20  17  14     2.777673737815   120.58242059   178.41668167
 O     30  20  17     2.299048925187   122.76209672   182.59276800
 C     21  18  15     2.781964448773   120.10458653   172.14207582
 O     32  21  18     2.297905456401   122.15142559   359.35283513
 N     30  20  17     2.631131035243   116.86963356     3.17014531
 C     29  25   5     2.750129087639   116.11375562   178.49599144
 H     35  29  25     2.055458096277   110.00839216   301.55776729
 H     35  29  25     2.046645778021   108.35012864   181.28272707
 H     35  29  25     2.055897130887   110.09008271    61.00840143
 C     34  30  20     2.750132575196   116.11387517   178.49310419
 H     39  34  30     2.055453677884   110.00753089   301.57837923
 H     39  34  30     2.046646227875   108.35014492   181.30295179
 H     39  34  30     2.055900478222   110.09114943    61.02904226
 S     15  13   2     3.376157419303   123.73198427    23.17173534
 S      1   2   3     3.375423248554   123.68465280   205.02840418
 S     11  10   8     3.376141648724   113.54687177   172.01588978
 S     19  16  14     3.375437084949   123.68370241   205.03390180
 O     45  11  10     2.721776901332   109.54883671   185.76859047
 O     45  11  10     2.727785140858   104.14523112   312.79673615
 O     46  19  16     2.727792093148   104.17817022   119.20011037
 O     46  19  16     2.721766462346   109.58640806   352.17173731
 O     44   1   2     2.721766820995   109.58729712   352.16288651
 O     44   1   2     2.727791552792   104.17977410   119.19201652
 O     43  15  13     2.721775249768   109.54804108   352.91894650
 O     43  15  13     2.727786468208   104.14372575   119.94642722
 C     46  19  16     3.353782371159   109.21777831   232.60963217
 C     55  46  19     2.632850656541   114.23488346   175.15772022
 C     55  46  19     2.621282194931   124.59127943   350.70860668
 C     56  55  46     2.614326436138   119.29549567   175.36021730
 H     56  55  46     2.046846211823   120.23763774   355.54157597
 C     57  55  46     2.621979624189   119.02585354   184.99095580
 H     57  55  46     2.041010010907   121.13078983     6.11805929
 C     60  57  55     2.619209054990   120.40944278     0.13603409
 H     58  56  55     2.045410485212   119.52218158   179.84087795
 H     60  57  55     2.045043392688   119.32081169   180.17511215
 H     62  60  57     2.045670993313   119.95412622   179.88939000
 C     45  11  10     3.353516972964   109.35423663    66.27713863
 C     66  45  11     2.632564480742   114.25094302   173.59725360
 C     66  45  11     2.621275892865   124.55652107   348.96075217
 C     67  66  45     2.614447593304   119.28951734   175.08296140
 H     67  66  45     2.046736044155   120.21378673   355.18379389
 C     68  66  45     2.621729776887   119.03073743   185.23179221
 H     68  66  45     2.041155126064   121.13787525     6.44610860
 C     71  68  66     2.619392081668   120.40168880     0.17473339
 H     69  67  66     2.045420198543   119.52351641   179.87512367
 H     71  68  66     2.045013076152   119.32614309   180.23054238
 H     73  71  68     2.045680169179   119.95294398   179.87331791
 C     44   1   2     3.353796352796   109.21364016   232.59997616
 C     77  44   1     2.632854288072   114.23451378   175.18713622
 C     77  44   1     2.621283995400   124.59219070   350.74308418
 C     78  77  44     2.614324705192   119.29570226   175.36545987
 H     78  77  44     2.046850399073   120.23792068   355.54720321
 C     79  77  44     2.621982771094   119.02575811   184.98673561
 H     79  77  44     2.041008799766   121.13057811     6.11439618
 C     82  79  77     2.619206669668   120.40966213     0.13432310
 H     80  78  77     2.045410437847   119.52221385   179.83984668
 H     82  79  77     2.045044301423   119.32062617   180.17405167
 H     84  82  79     2.045672279501   119.95417075   179.88996272
 C     43  15  13     3.353502841272   109.35770226   233.42834802
 C     88  43  15     2.632558583268   114.25190842   173.56886121
 C     88  43  15     2.621271769366   124.55483100   348.92743188
 C     89  88  43     2.614451412980   119.28912995   175.07792752
 H     89  88  43     2.046734466504   120.21352391   355.17743429
 C     90  88  43     2.621724428671   119.03085582   185.23624085
 H     90  88  43     2.041157442526   121.13750127     6.45071067
 C     93  90  88     2.619394104027   120.40132211     0.17587778
 H     91  89  88     2.045420125671   119.52350145   179.87549561
 H     93  90  88     2.045012967123   119.32642741   180.23134914
 H     95  93  90     2.045682132911   119.95278869   179.87305277

---------------------
BASIS SET INFORMATION
---------------------
There are 5 groups of distinct atoms

 Group   1 Type C   : 11s6p2d1f contracted to 5s3p2d1f pattern {62111/411/11/1}
 Group   2 Type H   : 5s1p contracted to 3s1p pattern {311/1}
 Group   3 Type O   : 11s6p2d1f contracted to 5s3p2d1f pattern {62111/411/11/1}
 Group   4 Type N   : 11s6p2d1f contracted to 5s3p2d1f pattern {62111/411/11/1}
 Group   5 Type S   : 14s9p3d1f contracted to 5s5p2d1f pattern {73211/51111/21/1}

Atom   0C    basis set group =>   1
Atom   1C    basis set group =>   1
Atom   2C    basis set group =>   1
Atom   3C    basis set group =>   1
Atom   4C    basis set group =>   1
Atom   5C    basis set group =>   1
Atom   6C    basis set group =>   1
Atom   7C    basis set group =>   1
Atom   8H    basis set group =>   2
Atom   9C    basis set group =>   1
Atom  10C    basis set group =>   1
Atom  11H    basis set group =>   2
Atom  12C    basis set group =>   1
Atom  13C    basis set group =>   1
Atom  14C    basis set group =>   1
Atom  15C    basis set group =>   1
Atom  16C    basis set group =>   1
Atom  17C    basis set group =>   1
Atom  18C    basis set group =>   1
Atom  19C    basis set group =>   1
Atom  20C    basis set group =>   1
Atom  21H    basis set group =>   2
Atom  22C    basis set group =>   1
Atom  23H    basis set group =>   2
Atom  24C    basis set group =>   1
Atom  25O    basis set group =>   3
Atom  26C    basis set group =>   1
Atom  27O    basis set group =>   3
Atom  28N    basis set group =>   4
Atom  29C    basis set group =>   1
Atom  30O    basis set group =>   3
Atom  31C    basis set group =>   1
Atom  32O    basis set group =>   3
Atom  33N    basis set group =>   4
Atom  34C    basis set group =>   1
Atom  35H    basis set group =>   2
Atom  36H    basis set group =>   2
Atom  37H    basis set group =>   2
Atom  38C    basis set group =>   1
Atom  39H    basis set group =>   2
Atom  40H    basis set group =>   2
Atom  41H    basis set group =>   2
Atom  42S    basis set group =>   5
Atom  43S    basis set group =>   5
Atom  44S    basis set group =>   5
Atom  45S    basis set group =>   5
Atom  46O    basis set group =>   3
Atom  47O    basis set group =>   3
Atom  48O    basis set group =>   3
Atom  49O    basis set group =>   3
Atom  50O    basis set group =>   3
Atom  51O    basis set group =>   3
Atom  52O    basis set group =>   3
Atom  53O    basis set group =>   3
Atom  54C    basis set group =>   1
Atom  55C    basis set group =>   1
Atom  56C    basis set group =>   1
Atom  57C    basis set group =>   1
Atom  58H    basis set group =>   2
Atom  59C    basis set group =>   1
Atom  60H    basis set group =>   2
Atom  61C    basis set group =>   1
Atom  62H    basis set group =>   2
Atom  63H    basis set group =>   2
Atom  64H    basis set group =>   2
Atom  65C    basis set group =>   1
Atom  66C    basis set group =>   1
Atom  67C    basis set group =>   1
Atom  68C    basis set group =>   1
Atom  69H    basis set group =>   2
Atom  70C    basis set group =>   1
Atom  71H    basis set group =>   2
Atom  72C    basis set group =>   1
Atom  73H    basis set group =>   2
Atom  74H    basis set group =>   2
Atom  75H    basis set group =>   2
Atom  76C    basis set group =>   1
Atom  77C    basis set group =>   1
Atom  78C    basis set group =>   1
Atom  79C    basis set group =>   1
Atom  80H    basis set group =>   2
Atom  81C    basis set group =>   1
Atom  82H    basis set group =>   2
Atom  83C    basis set group =>   1
Atom  84H    basis set group =>   2
Atom  85H    basis set group =>   2
Atom  86H    basis set group =>   2
Atom  87C    basis set group =>   1
Atom  88C    basis set group =>   1
Atom  89C    basis set group =>   1
Atom  90C    basis set group =>   1
Atom  91H    basis set group =>   2
Atom  92C    basis set group =>   1
Atom  93H    basis set group =>   2
Atom  94C    basis set group =>   1
Atom  95H    basis set group =>   2
Atom  96H    basis set group =>   2
Atom  97H    basis set group =>   2
---------------------------------
AUXILIARY/J BASIS SET INFORMATION
---------------------------------
There are 5 groups of distinct atoms

 Group   1 Type C   : 12s5p4d2f1g contracted to 6s4p3d1f1g pattern {711111/2111/211/2/1}
 Group   2 Type H   : 5s2p1d contracted to 3s1p1d pattern {311/2/1}
 Group   3 Type O   : 12s5p4d2f1g contracted to 6s4p3d1f1g pattern {711111/2111/211/2/1}
 Group   4 Type N   : 12s5p4d2f1g contracted to 6s4p3d1f1g pattern {711111/2111/211/2/1}
 Group   5 Type S   : 14s5p5d2f1g contracted to 8s4p3d1f1g pattern {71111111/2111/311/2/1}

Atom   0C    basis set group =>   1
Atom   1C    basis set group =>   1
Atom   2C    basis set group =>   1
Atom   3C    basis set group =>   1
Atom   4C    basis set group =>   1
Atom   5C    basis set group =>   1
Atom   6C    basis set group =>   1
Atom   7C    basis set group =>   1
Atom   8H    basis set group =>   2
Atom   9C    basis set group =>   1
Atom  10C    basis set group =>   1
Atom  11H    basis set group =>   2
Atom  12C    basis set group =>   1
Atom  13C    basis set group =>   1
Atom  14C    basis set group =>   1
Atom  15C    basis set group =>   1
Atom  16C    basis set group =>   1
Atom  17C    basis set group =>   1
Atom  18C    basis set group =>   1
Atom  19C    basis set group =>   1
Atom  20C    basis set group =>   1
Atom  21H    basis set group =>   2
Atom  22C    basis set group =>   1
Atom  23H    basis set group =>   2
Atom  24C    basis set group =>   1
Atom  25O    basis set group =>   3
Atom  26C    basis set group =>   1
Atom  27O    basis set group =>   3
Atom  28N    basis set group =>   4
Atom  29C    basis set group =>   1
Atom  30O    basis set group =>   3
Atom  31C    basis set group =>   1
Atom  32O    basis set group =>   3
Atom  33N    basis set group =>   4
Atom  34C    basis set group =>   1
Atom  35H    basis set group =>   2
Atom  36H    basis set group =>   2
Atom  37H    basis set group =>   2
Atom  38C    basis set group =>   1
Atom  39H    basis set group =>   2
Atom  40H    basis set group =>   2
Atom  41H    basis set group =>   2
Atom  42S    basis set group =>   5
Atom  43S    basis set group =>   5
Atom  44S    basis set group =>   5
Atom  45S    basis set group =>   5
Atom  46O    basis set group =>   3
Atom  47O    basis set group =>   3
Atom  48O    basis set group =>   3
Atom  49O    basis set group =>   3
Atom  50O    basis set group =>   3
Atom  51O    basis set group =>   3
Atom  52O    basis set group =>   3
Atom  53O    basis set group =>   3
Atom  54C    basis set group =>   1
Atom  55C    basis set group =>   1
Atom  56C    basis set group =>   1
Atom  57C    basis set group =>   1
Atom  58H    basis set group =>   2
Atom  59C    basis set group =>   1
Atom  60H    basis set group =>   2
Atom  61C    basis set group =>   1
Atom  62H    basis set group =>   2
Atom  63H    basis set group =>   2
Atom  64H    basis set group =>   2
Atom  65C    basis set group =>   1
Atom  66C    basis set group =>   1
Atom  67C    basis set group =>   1
Atom  68C    basis set group =>   1
Atom  69H    basis set group =>   2
Atom  70C    basis set group =>   1
Atom  71H    basis set group =>   2
Atom  72C    basis set group =>   1
Atom  73H    basis set group =>   2
Atom  74H    basis set group =>   2
Atom  75H    basis set group =>   2
Atom  76C    basis set group =>   1
Atom  77C    basis set group =>   1
Atom  78C    basis set group =>   1
Atom  79C    basis set group =>   1
Atom  80H    basis set group =>   2
Atom  81C    basis set group =>   1
Atom  82H    basis set group =>   2
Atom  83C    basis set group =>   1
Atom  84H    basis set group =>   2
Atom  85H    basis set group =>   2
Atom  86H    basis set group =>   2
Atom  87C    basis set group =>   1
Atom  88C    basis set group =>   1
Atom  89C    basis set group =>   1
Atom  90C    basis set group =>   1
Atom  91H    basis set group =>   2
Atom  92C    basis set group =>   1
Atom  93H    basis set group =>   2
Atom  94C    basis set group =>   1
Atom  95H    basis set group =>   2
Atom  96H    basis set group =>   2
Atom  97H    basis set group =>   2
---------------------------------
AUXILIARY/C BASIS SET INFORMATION
---------------------------------
There are 5 groups of distinct atoms

 Group   1 Type C   : 8s6p5d3f1g contracted to 8s6p4d3f1g pattern {11111111/111111/2111/111/1}
 Group   2 Type H   : 4s3p2d contracted to 4s2p1d pattern {1111/21/2}
 Group   3 Type O   : 8s6p5d3f1g contracted to 8s6p4d3f1g pattern {11111111/111111/2111/111/1}
 Group   4 Type N   : 8s6p5d3f1g contracted to 8s6p4d3f1g pattern {11111111/111111/2111/111/1}
 Group   5 Type S   : 10s7p7d5f2g contracted to 9s7p6d5f2g pattern {211111111/1111111/211111/11111/11}

Atom   0C    basis set group =>   1
Atom   1C    basis set group =>   1
Atom   2C    basis set group =>   1
Atom   3C    basis set group =>   1
Atom   4C    basis set group =>   1
Atom   5C    basis set group =>   1
Atom   6C    basis set group =>   1
Atom   7C    basis set group =>   1
Atom   8H    basis set group =>   2
Atom   9C    basis set group =>   1
Atom  10C    basis set group =>   1
Atom  11H    basis set group =>   2
Atom  12C    basis set group =>   1
Atom  13C    basis set group =>   1
Atom  14C    basis set group =>   1
Atom  15C    basis set group =>   1
Atom  16C    basis set group =>   1
Atom  17C    basis set group =>   1
Atom  18C    basis set group =>   1
Atom  19C    basis set group =>   1
Atom  20C    basis set group =>   1
Atom  21H    basis set group =>   2
Atom  22C    basis set group =>   1
Atom  23H    basis set group =>   2
Atom  24C    basis set group =>   1
Atom  25O    basis set group =>   3
Atom  26C    basis set group =>   1
Atom  27O    basis set group =>   3
Atom  28N    basis set group =>   4
Atom  29C    basis set group =>   1
Atom  30O    basis set group =>   3
Atom  31C    basis set group =>   1
Atom  32O    basis set group =>   3
Atom  33N    basis set group =>   4
Atom  34C    basis set group =>   1
Atom  35H    basis set group =>   2
Atom  36H    basis set group =>   2
Atom  37H    basis set group =>   2
Atom  38C    basis set group =>   1
Atom  39H    basis set group =>   2
Atom  40H    basis set group =>   2
Atom  41H    basis set group =>   2
Atom  42S    basis set group =>   5
Atom  43S    basis set group =>   5
Atom  44S    basis set group =>   5
Atom  45S    basis set group =>   5
Atom  46O    basis set group =>   3
Atom  47O    basis set group =>   3
Atom  48O    basis set group =>   3
Atom  49O    basis set group =>   3
Atom  50O    basis set group =>   3
Atom  51O    basis set group =>   3
Atom  52O    basis set group =>   3
Atom  53O    basis set group =>   3
Atom  54C    basis set group =>   1
Atom  55C    basis set group =>   1
Atom  56C    basis set group =>   1
Atom  57C    basis set group =>   1
Atom  58H    basis set group =>   2
Atom  59C    basis set group =>   1
Atom  60H    basis set group =>   2
Atom  61C    basis set group =>   1
Atom  62H    basis set group =>   2
Atom  63H    basis set group =>   2
Atom  64H    basis set group =>   2
Atom  65C    basis set group =>   1
Atom  66C    basis set group =>   1
Atom  67C    basis set group =>   1
Atom  68C    basis set group =>   1
Atom  69H    basis set group =>   2
Atom  70C    basis set group =>   1
Atom  71H    basis set group =>   2
Atom  72C    basis set group =>   1
Atom  73H    basis set group =>   2
Atom  74H    basis set group =>   2
Atom  75H    basis set group =>   2
Atom  76C    basis set group =>   1
Atom  77C    basis set group =>   1
Atom  78C    basis set group =>   1
Atom  79C    basis set group =>   1
Atom  80H    basis set group =>   2
Atom  81C    basis set group =>   1
Atom  82H    basis set group =>   2
Atom  83C    basis set group =>   1
Atom  84H    basis set group =>   2
Atom  85H    basis set group =>   2
Atom  86H    basis set group =>   2
Atom  87C    basis set group =>   1
Atom  88C    basis set group =>   1
Atom  89C    basis set group =>   1
Atom  90C    basis set group =>   1
Atom  91H    basis set group =>   2
Atom  92C    basis set group =>   1
Atom  93H    basis set group =>   2
Atom  94C    basis set group =>   1
Atom  95H    basis set group =>   2
Atom  96H    basis set group =>   2
Atom  97H    basis set group =>   2


           ************************************************************
           *        Program running with 8 parallel MPI-processes     *
           *              working on a common directory               *
           ************************************************************
------------------------------------------------------------------------------
                           ORCA GTO INTEGRAL CALCULATION
                           -- RI-GTO INTEGRALS CHOSEN --
------------------------------------------------------------------------------
------------------------------------------------------------------------------
                   ___                                                        
                  /   \      - P O W E R E D   B Y -                         
                 /     \                                                     
                 |  |  |   _    _      __       _____    __    __             
                 |  |  |  | |  | |    /  \     |  _  \  |  |  /  |          
                  \  \/   | |  | |   /    \    | | | |  |  | /  /          
                 / \  \   | |__| |  /  /\  \   | |_| |  |  |/  /          
                |  |  |   |  __  | /  /__\  \  |    /   |      \           
                |  |  |   | |  | | |   __   |  |    \   |  |\   \          
                \     /   | |  | | |  |  |  |  | |\  \  |  | \   \       
                 \___/    |_|  |_| |__|  |__|  |_| \__\ |__|  \__/        
                                                                              
                      - O R C A' S   B I G   F R I E N D -                    
                                      &                                       
                       - I N T E G R A L  F E E D E R -                       
                                                                              
 v1 FN, 2020, v2 2021                                                         
------------------------------------------------------------------------------


Reading SHARK input file PDI_3_M06L_def2TZVP_coords.SHARKINP.tmp ... ok
----------------------
SHARK INTEGRAL PACKAGE
----------------------

Number of atoms                             ...     98
Number of basis functions                   ...   2312
Number of shells                            ...    876
Maximum angular momentum                    ...      3
Integral batch strategy                     ... SHARK/LIBINT Hybrid
RI-J (if used) integral strategy            ... SPLIT-RIJ (Revised 2003 algorithm where possible)
Printlevel                                  ...      1
Contraction scheme used                     ... SEGMENTED contraction
Coulomb Range Separation                    ... NOT USED
Exchange Range Separation                   ... Long Range
   Mu parameter                             ...  0.300000
   Scaling (regular/separated)              ...  0.530000  0.470000
Finite Nucleus Model                        ... NOT USED
Auxiliary Coulomb fitting basis             ... AVAILABLE
   # of basis functions in Aux-J            ...   3670
   # of shells in Aux-J                     ...   1178
   Maximum angular momentum in Aux-J        ...      4
Auxiliary J/K fitting basis                 ... NOT available
Auxiliary Correlation fitting basis         ... AVAILABLE
   # of basis functions in Aux-C            ...   5766
   # of shells in Aux-C                     ...   1734
   Maximum angular momentum in Aux-C        ...      4
Auxiliary 'external' fitting basis          ... NOT available
Integral threshold                          ...     2.500000e-11
Primitive cut-off                           ...     2.500000e-12
Primitive pair pre-selection threshold      ...     2.500000e-12

Calculating pre-screening integrals         ... done (  0.3 sec) Dimension = 876
Organizing shell pair data                  ... done (  1.5 sec)
Shell pair information
Total number of shell pairs                 ...    384126
Shell pairs after pre-screening             ...    169556
Total number of primitive shell pairs       ...   1231738
Primitive shell pairs kept                  ...    322371
          la=0 lb=0:  37799 shell pairs
          la=1 lb=0:  50050 shell pairs
          la=1 lb=1:  16420 shell pairs
          la=2 lb=0:  23494 shell pairs
          la=2 lb=1:  15998 shell pairs
          la=2 lb=2:   3657 shell pairs
          la=3 lb=0:  10679 shell pairs
          la=3 lb=1:   7452 shell pairs
          la=3 lb=2:   3248 shell pairs
          la=3 lb=3:    759 shell pairs

Calculating one electron integrals          ... done (  0.3 sec)
Calculating RI/J V-Matrix + Cholesky decomp.... done (  0.4 sec)
Calculating RI/C V-Matrix + Cholesky decomp.... done (  1.1 sec)
Calculating Nuclear repulsion               ... done (  0.0 sec) ENN=  12492.096323946877 Eh

SHARK setup successfully completed in   5.0 seconds

Maximum memory used throughout the entire GTOINT-calculation: 332.5 MB


           ************************************************************
           *        Program running with 8 parallel MPI-processes     *
           *              working on a common directory               *
           ************************************************************
-------------------------------------------------------------------------------
                                 ORCA SCF
-------------------------------------------------------------------------------

------------
SCF SETTINGS
------------
Hamiltonian:
 Density Functional     Method          .... DFT(GTOs)
 Exchange Functional    Exchange        .... WB88
 Correlation Functional Correlation     .... LYP
 LDA part of GGA corr.  LDAOpt          .... VWN-3
 Gradients option       PostSCFGGA      .... off
 Hybrid DFT is turned on
   Fraction HF Exchange ScalHFX         ....  0.530000
   Scaling of DF-GGA-X  ScalDFX         ....  0.000000
   Scaling of DF-GGA-C  ScalDFC         ....  0.730000
   Scaling of DF-LDA-C  ScalLDAC        ....  0.730000
   Perturbative correction              ....  0.270000
   Density functional embedding theory  .... OFF
 Long-range corrected/Screened/Range-Separated Hybrid DFT is turned on
   Amount of maximum screened exact exchange              ....  0.470000
   Range separation parameter mu (erf(mu*r12)/r12)        ....  0.300000
 RI-approximation to the Coulomb term is turned on
   Number of AuxJ basis functions       .... 3670
   RIJ-COSX (HFX calculated with COS-X)).... on


General Settings:
 Integral files         IntName         .... PDI_3_M06L_def2TZVP_coords
 Hartree-Fock type      HFTyp           .... RHF
 Total Charge           Charge          ....    0
 Multiplicity           Mult            ....    1
 Number of Electrons    NEL             ....  504
 Basis Dimension        Dim             .... 2312
 Nuclear Repulsion      ENuc            ....  12492.0963239469 Eh

Convergence Acceleration:
 DIIS                   CNVDIIS         .... on
   Start iteration      DIISMaxIt       ....    12
   Startup error        DIISStart       ....  0.200000
   # of expansion vecs  DIISMaxEq       ....     5
   Bias factor          DIISBfac        ....   1.050
   Max. coefficient     DIISMaxC        ....  10.000
 Trust-Rad. Augm. Hess. CNVTRAH         .... auto
   Auto Start mean grad. ratio tolernc. ....  1.125000
   Auto Start start iteration           ....    20
   Auto Start num. interpolation iter.  ....    10
   Max. Number of Micro iterations      ....    16
   Max. Number of Macro iterations      .... Maxiter - #DIIS iter
   Number of Davidson start vectors     ....     2
   Converg. threshold I  (grad. norm)   ....   1.000e-05
   Converg. threshold II (energy diff.) ....   1.000e-08
   Grad. Scal. Fac. for Micro threshold ....   0.100
   Minimum threshold for Micro iter.    ....   0.010
   NR start threshold (gradient norm)   ....   0.001
   Initial trust radius                 ....   0.400
   Minimum AH scaling param. (alpha)    ....   1.000
   Maximum AH scaling param. (alpha)    .... 1000.000
   Orbital update algorithm             .... Taylor
   White noise on init. David. guess    .... on
   Maximum white noise                  ....   0.010
   Quad. conv. algorithm                .... NR
 SOSCF                  CNVSOSCF        .... on
   Start iteration      SOSCFMaxIt      ....   150
   Startup grad/error   SOSCFStart      ....  0.003300
 Level Shifting         CNVShift        .... on
   Level shift para.    LevelShift      ....    0.2500
   Turn off err/grad.   ShiftErr        ....    0.0010
 Zerner damping         CNVZerner       .... off
 Static damping         CNVDamp         .... on
   Fraction old density DampFac         ....    0.7000
   Max. Damping (<1)    DampMax         ....    0.9800
   Min. Damping (>=0)   DampMin         ....    0.0000
   Turn off err/grad.   DampErr         ....    0.1000
 Fernandez-Rico         CNVRico         .... off

SCF Procedure:
 Maximum # iterations   MaxIter         ....   125
 SCF integral mode      SCFMode         .... Direct
   Integral package                     .... SHARK and LIBINT hybrid scheme
 Reset frequency        DirectResetFreq ....    20
 Integral Threshold     Thresh          ....  2.500e-11 Eh
 Primitive CutOff       TCut            ....  2.500e-12 Eh

Convergence Tolerance:
 Convergence Check Mode ConvCheckMode   .... Total+1el-Energy
 Convergence forced     ConvForced      .... 1
 Energy Change          TolE            ....  1.000e-08 Eh
 1-El. energy change                    ....  1.000e-05 Eh
 Orbital Gradient       TolG            ....  1.000e-05
 Orbital Rotation angle TolX            ....  1.000e-05
 DIIS Error             TolErr          ....  5.000e-07


Diagonalization of the overlap matrix:
Smallest eigenvalue                        ... 1.659e-06
Time for diagonalization                   ...    0.706 sec
Threshold for overlap eigenvalues          ... 1.000e-08
Number of eigenvalues below threshold      ... 0
Time for construction of square roots      ...    0.434 sec
Total time needed                          ...    1.157 sec

Time for model grid setup =    1.317 sec

------------------------------
INITIAL GUESS: MODEL POTENTIAL
------------------------------
Loading Hartree-Fock densities                     ... done
Calculating cut-offs                               ... done
Initializing the effective Hamiltonian             ... done
Setting up the integral package (SHARK)            ... done
Starting the Coulomb interaction                   ... done (   4.7 sec)
Reading the grid                                   ... done
Mapping shells                                     ... done
Starting the XC term evaluation                    ... done (   1.1 sec)
  promolecular density results
     # of electrons  =    503.975105888
     EX              =   -475.900663845
     EC              =     -6.239743558
     EX+EC           =   -482.140407402
Transforming the Hamiltonian                       ... done (   0.4 sec)
Diagonalizing the Hamiltonian                      ... done (   0.6 sec)
Back transforming the eigenvectors                 ... done (   0.2 sec)
Now organizing SCF variables                       ... done
                      ------------------
                      INITIAL GUESS DONE (   8.3 sec)
                      ------------------
-------------------
DFT GRID GENERATION
-------------------

General Integration Accuracy     IntAcc      ... 4.388
Radial Grid Type                 RadialGrid  ... OptM3 with GC (2021)
Angular Grid (max. ang.)         AngularGrid ... 4 (Lebedev-302)
Angular grid pruning method      GridPruning ... 4 (adaptive)
Weight generation scheme         WeightScheme... Becke
Basis function cutoff            BFCut       ... 1.0000e-11
Integration weight cutoff        WCut        ... 1.0000e-14
Angular grids for H and He will be reduced by one unit
Partially contracted basis set               ... off
Rotationally invariant grid construction     ... off

Total number of grid points                  ...   501837
Total number of batches                      ...     7881
Average number of points per batch           ...       63
Average number of grid points per atom       ...     5121
Time for grid setup =    4.892 sec

--------------------
COSX GRID GENERATION
--------------------

GRIDX 1
-------
General Integration Accuracy     IntAcc      ... 3.816
Radial Grid Type                 RadialGrid  ... OptM3 with GC (2021)
Angular Grid (max. ang.)         AngularGrid ... 1 (Lebedev-50)
Angular grid pruning method      GridPruning ... 4 (adaptive)
Weight generation scheme         WeightScheme... Becke
Basis function cutoff            BFCut       ... 1.0000e-11
Integration weight cutoff        WCut        ... 1.0000e-14
Angular grids for H and He will be reduced by one unit
Partially contracted basis set               ... on
Rotationally invariant grid construction     ... off

Total number of grid points                  ...    63093
Total number of batches                      ...     1032
Average number of points per batch           ...       61
Average number of grid points per atom       ...      644
UseSFitting                                  ... on

GRIDX 2
-------
General Integration Accuracy     IntAcc      ... 4.020
Radial Grid Type                 RadialGrid  ... OptM3 with GC (2021)
Angular Grid (max. ang.)         AngularGrid ... 2 (Lebedev-110)
Angular grid pruning method      GridPruning ... 4 (adaptive)
Weight generation scheme         WeightScheme... Becke
Basis function cutoff            BFCut       ... 1.0000e-11
Integration weight cutoff        WCut        ... 1.0000e-14
Angular grids for H and He will be reduced by one unit
Partially contracted basis set               ... on
Rotationally invariant grid construction     ... off

Total number of grid points                  ...   138606
Total number of batches                      ...     2214
Average number of points per batch           ...       62
Average number of grid points per atom       ...     1414
UseSFitting                                  ... on

GRIDX 3
-------
General Integration Accuracy     IntAcc      ... 4.338
Radial Grid Type                 RadialGrid  ... OptM3 with GC (2021)
Angular Grid (max. ang.)         AngularGrid ... 3 (Lebedev-194)
Angular grid pruning method      GridPruning ... 4 (adaptive)
Weight generation scheme         WeightScheme... Becke
Basis function cutoff            BFCut       ... 1.0000e-11
Integration weight cutoff        WCut        ... 1.0000e-14
Angular grids for H and He will be reduced by one unit
Partially contracted basis set               ... on
Rotationally invariant grid construction     ... off

Total number of grid points                  ...   304128
Total number of batches                      ...     4810
Average number of points per batch           ...       63
Average number of grid points per atom       ...     3103
UseSFitting                                  ... on

Time for X-Grid setup             =    8.900 sec


--------------------
CPCM SOLVATION MODEL
--------------------
CPCM parameters:
  Epsilon                                         ...       8.9300
  Refrac                                          ...       1.4242
  Rsolv                                           ...       1.3000
  Surface type                                    ... GAUSSIAN VDW
  Epsilon function type                           ...         CPCM
Solvent:                                     ... DICHLOROMETHANE
SMD-CDS solvent descriptors:
  Soln                                       ...    1.4242
  Soln25                                     ...    1.4212
  Sola                                       ...    0.1000
  Solb                                       ...    0.0500
  Solg                                       ...   39.1500
  Solc                                       ...    0.0000
  Solh                                       ...    0.6670
Radii:
 Radius for C  used is    3.4960 Bohr (=   1.8500 Ang.)
 Radius for H  used is    2.2677 Bohr (=   1.2000 Ang.)
 Radius for O  used is    3.9949 Bohr (=   2.1140 Ang.)
 Radius for N  used is    3.5716 Bohr (=   1.8900 Ang.)
 Radius for S  used is    4.7054 Bohr (=   2.4900 Ang.)
Calculating surface                               ...        done! (  0.0s)
GEPOL surface points                              ...         4816
GEPOL Volume                                      ...    6472.1861
GEPOL Surface-area                                ...    2865.8006
Calculating surface distance matrix               ...        done! (  0.1s)
Performing Cholesky decomposition & store         ...        done! (  0.7s)
Overall time for CPCM initialization              ...                 0.8s
--------------
SCF ITERATIONS
--------------
ITER       Energy         Delta-E        Max-DP      RMS-DP      [F,P]     Damp
               ***  Starting incremental Fock matrix formation  ***
  0  -4517.5085000157   0.000000000000 0.22557750  0.00086292  0.2961787 0.7000
  1  -4518.4395062197  -0.931006203974 0.16288870  0.00065149  0.1517838 0.7000
                               ***Turning on DIIS***
  2  -4518.8968754537  -0.457369233979 0.19190339  0.00119073  0.0668086 0.0000
  3  -4519.7118804282  -0.815004974525 0.18893523  0.00059667  0.0639585 0.0000
  4  -4519.8066604998  -0.094780071638 0.01706090  0.00014297  0.0095555 0.0000
  5  -4519.8111047581  -0.004444258298 0.01833667  0.00007862  0.0034457 0.0000
                      *** Initiating the SOSCF procedure ***
                           *** Shutting down DIIS ***
                      *** Re-Reading the Fockian *** 
                      *** Removing any level shift *** 
ITER      Energy       Delta-E        Grad      Rot      Max-DP    RMS-DP
  6  -4519.81196854  -0.0008637800  0.002406  0.002406  0.007591  0.000038
               *** Restarting incremental Fock matrix formation ***
  7  -4519.81227045  -0.0003019109  0.001534  0.004828  0.037844  0.000337
  8  -4519.81240048  -0.0001300272  0.000781  0.005815  0.015030  0.000136
  9  -4519.81244089  -0.0000404107  0.000172  0.000379  0.014017  0.000121
 10  -4519.81244921  -0.0000083251  0.000131  0.000527  0.001260  0.000007
 11  -4519.81245061  -0.0000014014  0.000040  0.000143  0.001041  0.000007
 12  -4519.81245064  -0.0000000243  0.000026  0.000080  0.000865  0.000004
 13  -4519.81245072  -0.0000000852  0.000012  0.000053  0.000564  0.000003
                  ***Gradient check signals convergence***
              ***Rediagonalizing the Fockian in SOSCF/NRSCF***

               *****************************************************
               *                     SUCCESS                       *
               *           SCF CONVERGED AFTER  14 CYCLES          *
               *****************************************************

Old exchange energy                            =   -293.463961669 Eh
New exchange energy                            =   -293.463945569 Eh
Exchange energy change after final integration =      0.000016099 Eh
Total energy after final integration           =  -4519.812434730 Eh
Final COS-X integration done in                =   387.891 sec

SMD CDS free energy correction energy :               -14.79024     Kcal/mol
Total Energy after SMD CDS correction =             -4519.836004469 Eh

----------------
TOTAL SCF ENERGY
----------------

Total Energy       :        -4519.83600447 Eh         -122990.99042 eV

Components:
Nuclear Repulsion  :        12492.09632395 Eh          339927.22254 eV
Electronic Energy  :       -17011.93232842 Eh         -462918.21296 eV
One Electron Energy:       -31094.87067638 Eh         -846134.44775 eV
Two Electron Energy:        14082.93834797 Eh          383216.23479 eV
Max COSX asymmetry :            0.00000499 Eh               0.00014 eV
CPCM Dielectric    :           -0.06888245 Eh              -1.87439 eV
SMD CDS (Gcds)     :           -0.02356974 Eh              -0.64137 eV

Virial components:
Potential Energy   :        -9028.16619050 Eh         -245668.89161 eV
Kinetic Energy     :         4508.33018603 Eh          122677.90119 eV
Virial Ratio       :            2.00255212


DFT components:
N(Alpha)           :      252.000285344184 electrons
N(Beta)            :      252.000285344184 electrons
N(Total)           :      504.000570688367 electrons
E(X)               :     -187.253870363265 Eh       
E(C)               :      -13.221761255160 Eh       
E(XC)              :     -200.475631618425 Eh       
DFET-embed. en.    :        0.000000000000 Eh       
CPCM Solvation Model Properties:
Surface-charge          :           -0.05784227
Charge-correction       :            0.00031488 Eh               0.00857 eV
Free-energy (cav+disp)  :           -0.02356974 Eh              -0.64137 eV

---------------
SCF CONVERGENCE
---------------

  Last Energy change         ...   -1.0625e-07  Tolerance :   1.0000e-08
  Last MAX-Density change    ...    4.1078e-15  Tolerance :   1.0000e-07
  Last RMS-Density change    ...    1.3036e-17  Tolerance :   5.0000e-09
  Last Orbital Gradient      ...    2.0269e-06  Tolerance :   1.0000e-05
  Last Orbital Rotation      ...    1.7373e-05  Tolerance :   1.0000e-05

             **** THE GBW FILE WAS UPDATED (PDI_3_M06L_def2TZVP_coords.gbw) ****
             **** DENSITY PDI_3_M06L_def2TZVP_coords.scfp WAS UPDATED ****
             **** ENERGY FILE WAS UPDATED (PDI_3_M06L_def2TZVP_coords.en.tmp) ****
             **** THE GBW FILE WAS UPDATED (PDI_3_M06L_def2TZVP_coords.gbw) ****
             **** DENSITY PDI_3_M06L_def2TZVP_coords.scfp WAS UPDATED ****
----------------
ORBITAL ENERGIES
----------------

  NO   OCC          E(Eh)            E(eV) 
   0   2.0000     -90.442302     -2461.0601 
   1   2.0000     -90.442300     -2461.0601 
   2   2.0000     -90.442226     -2461.0581 
   3   2.0000     -90.442224     -2461.0580 
   4   2.0000     -19.802952      -538.8657 
   5   2.0000     -19.802951      -538.8657 
   6   2.0000     -19.802915      -538.8647 
   7   2.0000     -19.802915      -538.8647 
   8   2.0000     -19.797805      -538.7257 
   9   2.0000     -19.797803      -538.7256 
  10   2.0000     -19.797758      -538.7244 
  11   2.0000     -19.797758      -538.7244 
  12   2.0000     -19.795032      -538.6502 
  13   2.0000     -19.795031      -538.6502 
  14   2.0000     -19.795031      -538.6502 
  15   2.0000     -19.795030      -538.6502 
  16   2.0000     -14.974464      -407.4759 
  17   2.0000     -14.974463      -407.4758 
  18   2.0000     -10.834780      -294.8293 
  19   2.0000     -10.834779      -294.8293 
  20   2.0000     -10.832444      -294.7658 
  21   2.0000     -10.832444      -294.7658 
  22   2.0000     -10.772831      -293.1436 
  23   2.0000     -10.772819      -293.1433 
  24   2.0000     -10.772293      -293.1290 
  25   2.0000     -10.772278      -293.1286 
  26   2.0000     -10.759442      -292.7793 
  27   2.0000     -10.759441      -292.7793 
  28   2.0000     -10.759415      -292.7786 
  29   2.0000     -10.759413      -292.7785 
  30   2.0000     -10.749524      -292.5094 
  31   2.0000     -10.749517      -292.5092 
  32   2.0000     -10.748685      -292.4866 
  33   2.0000     -10.748682      -292.4865 
  34   2.0000     -10.738971      -292.2223 
  35   2.0000     -10.738968      -292.2222 
  36   2.0000     -10.738836      -292.2186 
  37   2.0000     -10.738833      -292.2185 
  38   2.0000     -10.734123      -292.0903 
  39   2.0000     -10.734122      -292.0903 
  40   2.0000     -10.733907      -292.0844 
  41   2.0000     -10.733905      -292.0844 
  42   2.0000     -10.730840      -292.0010 
  43   2.0000     -10.730837      -292.0009 
  44   2.0000     -10.730640      -291.9956 
  45   2.0000     -10.730636      -291.9954 
  46   2.0000     -10.709859      -291.4301 
  47   2.0000     -10.709858      -291.4301 
  48   2.0000     -10.709792      -291.4283 
  49   2.0000     -10.709791      -291.4282 
  50   2.0000     -10.709583      -291.4226 
  51   2.0000     -10.709580      -291.4225 
  52   2.0000     -10.709402      -291.4177 
  53   2.0000     -10.709399      -291.4176 
  54   2.0000     -10.709212      -291.4125 
  55   2.0000     -10.709212      -291.4125 
  56   2.0000     -10.700488      -291.1751 
  57   2.0000     -10.700486      -291.1750 
  58   2.0000     -10.700404      -291.1728 
  59   2.0000     -10.700402      -291.1728 
  60   2.0000     -10.697608      -291.0967 
  61   2.0000     -10.697606      -291.0966 
  62   2.0000     -10.697466      -291.0928 
  63   2.0000     -10.697463      -291.0928 
  64   2.0000     -10.697233      -291.0865 
  65   2.0000     -10.697232      -291.0865 
  66   2.0000     -10.697148      -291.0842 
  67   2.0000     -10.697146      -291.0841 
  68   2.0000      -8.622965      -234.6428 
  69   2.0000      -8.622964      -234.6428 
  70   2.0000      -8.622889      -234.6407 
  71   2.0000      -8.622887      -234.6407 
  72   2.0000      -6.471623      -176.1018 
  73   2.0000      -6.471621      -176.1018 
  74   2.0000      -6.471534      -176.0994 
  75   2.0000      -6.471532      -176.0994 
  76   2.0000      -6.470350      -176.0672 
  77   2.0000      -6.470348      -176.0671 
  78   2.0000      -6.470285      -176.0654 
  79   2.0000      -6.470284      -176.0654 
  80   2.0000      -6.469964      -176.0567 
  81   2.0000      -6.469963      -176.0566 
  82   2.0000      -6.469888      -176.0546 
  83   2.0000      -6.469886      -176.0546 
  84   2.0000      -1.357164       -36.9303 
  85   2.0000      -1.357135       -36.9295 
[...]
   243a -> 266a  :     0.017286 
   251a -> 254a  :     0.127716 
   251a -> 256a  :     0.495671 

STATE 14:  E=   0.167241 au      4.551 eV    36705.2 cm**-1 <S**2> =   0.000000
   238a -> 252a  :     0.011562 
   240a -> 252a  :     0.073300 
   243a -> 254a  :     0.012215 
   249a -> 252a  :     0.784002 
   250a -> 254a  :     0.019540 
   251a -> 255a  :     0.042590 

STATE 15:  E=   0.169640 au      4.616 eV    37231.6 cm**-1 <S**2> =   0.000000
   228a -> 253a  :     0.019238 
   229a -> 253a  :     0.021816 
   230a -> 252a  :     0.086812 
   230a -> 261a  :     0.020865 
   232a -> 252a  :     0.064244 
   233a -> 253a  :     0.037077 
   235a -> 266a  :     0.032966 
   236a -> 254a  :     0.016317 
   236a -> 256a  :     0.016049 
   243a -> 252a  :     0.057615 
   245a -> 252a  :     0.015835 
   249a -> 254a  :     0.016999 
   250a -> 252a  :     0.419562 
   251a -> 253a  :     0.036164 

STATE 16:  E=   0.179773 au      4.892 eV    39455.6 cm**-1 <S**2> =   0.000000
   241a -> 265a  :     0.016980 
   242a -> 264a  :     0.020494 
   244a -> 252a  :     0.019939 
   245a -> 258a  :     0.033432 
   245a -> 262a  :     0.017914 
   246a -> 257a  :     0.038403 
   246a -> 263a  :     0.014641 
   247a -> 254a  :     0.018371 
   247a -> 260a  :     0.069884 
   248a -> 252a  :     0.517070 
   248a -> 259a  :     0.066526 
   249a -> 257a  :     0.039037 
   249a -> 263a  :     0.017989 
   250a -> 258a  :     0.038068 
   250a -> 262a  :     0.016282 

STATE 17:  E=   0.179782 au      4.892 eV    39457.6 cm**-1 <S**2> =   0.000000
   241a -> 264a  :     0.018549 
   242a -> 265a  :     0.018056 
   245a -> 257a  :     0.034142 
   245a -> 263a  :     0.017978 
   246a -> 258a  :     0.037856 
   246a -> 262a  :     0.014702 
   247a -> 252a  :     0.544612 
   247a -> 259a  :     0.067745 
   248a -> 254a  :     0.018712 
   248a -> 260a  :     0.068212 
   249a -> 258a  :     0.033704 
   249a -> 262a  :     0.017780 
   250a -> 257a  :     0.040883 
   250a -> 263a  :     0.016204 

STATE 18:  E=   0.182188 au      4.958 eV    39985.6 cm**-1 <S**2> =   0.000000
   225a -> 252a  :     0.025303 
   227a -> 252a  :     0.074928 
   234a -> 252a  :     0.113454 
   236a -> 252a  :     0.012859 
   237a -> 253a  :     0.013113 
   238a -> 252a  :     0.271714 
   238a -> 261a  :     0.012942 
   239a -> 253a  :     0.133858 
   243a -> 254a  :     0.012193 
   243a -> 256a  :     0.028675 
   244a -> 253a  :     0.031516 
   246a -> 252a  :     0.043607 
   251a -> 255a  :     0.104174 
   251a -> 266a  :     0.018447 

STATE 19:  E=   0.190983 au      5.197 eV    41916.0 cm**-1 <S**2> =   0.000000
   241a -> 258a  :     0.030820 
   241a -> 262a  :     0.028324 
   242a -> 257a  :     0.032611 
   242a -> 263a  :     0.031667 
   245a -> 252a  :     0.076470 
   245a -> 259a  :     0.096371 
   245a -> 261a  :     0.012536 
   246a -> 260a  :     0.109451 
   247a -> 257a  :     0.148048 
   247a -> 263a  :     0.021331 
   248a -> 255a  :     0.010531 
   248a -> 258a  :     0.140230 
   248a -> 262a  :     0.018396 
   249a -> 260a  :     0.020026 
   249a -> 264a  :     0.064613 
   250a -> 259a  :     0.031355 
   250a -> 265a  :     0.057369 

STATE 20:  E=   0.191206 au      5.203 eV    41965.0 cm**-1 <S**2> =   0.000000
   241a -> 257a  :     0.037640 
   241a -> 263a  :     0.027419 
   242a -> 258a  :     0.030861 
   242a -> 262a  :     0.031515 
   245a -> 260a  :     0.102550 
   246a -> 252a  :     0.049424 
   246a -> 259a  :     0.096284 
   246a -> 261a  :     0.011361 
   247a -> 255a  :     0.010602 
   247a -> 258a  :     0.138721 
   247a -> 262a  :     0.018702 
   248a -> 257a  :     0.142061 
   248a -> 263a  :     0.019692 
   249a -> 259a  :     0.029044 
   249a -> 265a  :     0.059054 
   250a -> 260a  :     0.026228 
   250a -> 264a  :     0.063315 

STATE 21:  E=   0.185160 au      5.038 eV    40637.9 cm**-1 <S**2> =   0.000000
   241a -> 264a  :     0.025906 
   242a -> 252a  :     0.031332 
   242a -> 259a  :     0.012654 
   242a -> 265a  :     0.023848 
   245a -> 257a  :     0.026678 
   245a -> 263a  :     0.023958 
   246a -> 258a  :     0.033755 
   246a -> 262a  :     0.016628 
   247a -> 252a  :     0.377902 
   247a -> 259a  :     0.057300 
   247a -> 261a  :     0.016454 
   248a -> 260a  :     0.068806 
   249a -> 255a  :     0.011480 
   249a -> 258a  :     0.074401 
   249a -> 262a  :     0.019810 
   250a -> 257a  :     0.088458 
   250a -> 263a  :     0.017463 

STATE 22:  E=   0.184808 au      5.029 eV    40560.7 cm**-1 <S**2> =   0.000000
   241a -> 252a  :     0.020155 
   241a -> 259a  :     0.012101 
   241a -> 265a  :     0.021661 
   242a -> 264a  :     0.028205 
   244a -> 252a  :     0.027280 
   245a -> 258a  :     0.029436 
   245a -> 262a  :     0.021010 
   246a -> 257a  :     0.034775 
   246a -> 263a  :     0.019813 
   247a -> 260a  :     0.071586 
   248a -> 252a  :     0.365504 
   248a -> 259a  :     0.057609 
   248a -> 261a  :     0.016171 
   249a -> 257a  :     0.079156 
   249a -> 263a  :     0.019947 
   250a -> 255a  :     0.010191 
   250a -> 258a  :     0.073625 
   250a -> 262a  :     0.018742 

STATE 23:  E=   0.176521 au      4.803 eV    38742.0 cm**-1 <S**2> =   0.000000
   223a -> 252a  :     0.010413 
   228a -> 252a  :     0.017439 
   241a -> 254a  :     0.023336 
   242a -> 252a  :     0.771063 
   245a -> 257a  :     0.011448 
   246a -> 252a  :     0.012164 
   247a -> 252a  :     0.015829 
   250a -> 253a  :     0.014174 

STATE 24:  E=   0.176290 au      4.797 eV    38691.1 cm**-1 <S**2> =   0.000000
   224a -> 252a  :     0.014253 
   239a -> 252a  :     0.012793 
   241a -> 252a  :     0.724611 
   242a -> 254a  :     0.030621 
   244a -> 252a  :     0.043506 
   245a -> 252a  :     0.016945 
   245a -> 258a  :     0.011146 
   246a -> 257a  :     0.011698 
   248a -> 252a  :     0.020510 
   249a -> 253a  :     0.011827 

STATE 25:  E=   0.178144 au      4.848 eV    39098.0 cm**-1 <S**2> =   0.000000
   237a -> 252a  :     0.643695 
   237a -> 261a  :     0.017871 
   238a -> 253a  :     0.157285 
   238a -> 267a  :     0.016048 
   239a -> 261a  :     0.024615 
   251a -> 256a  :     0.034940 

STATE 26:  E=   0.181002 au      4.925 eV    39725.3 cm**-1 <S**2> =   0.000000
   241a -> 252a  :     0.018194 
   243a -> 252a  :     0.016527 
   245a -> 252a  :     0.784003 
   246a -> 254a  :     0.022287 
   250a -> 252a  :     0.037175 

STATE 27:  E=   0.180891 au      4.922 eV    39701.1 cm**-1 <S**2> =   0.000000
   238a -> 252a  :     0.027498 
   240a -> 252a  :     0.081606 
   245a -> 254a  :     0.017979 
   246a -> 252a  :     0.729820 
   247a -> 258a  :     0.010377 
   248a -> 257a  :     0.010471 
   249a -> 252a  :     0.016513 

STATE 28:  E=   0.182922 au      4.978 eV    40146.8 cm**-1 <S**2> =   0.000000
   222a -> 252a  :     0.018831 
   227a -> 252a  :     0.026994 
   232a -> 254a  :     0.013352 
   234a -> 252a  :     0.370873 
   236a -> 252a  :     0.038312 
   237a -> 253a  :     0.050097 
   238a -> 252a  :     0.223105 
   238a -> 261a  :     0.011291 
   239a -> 253a  :     0.012163 
   243a -> 254a  :     0.030357 
   244a -> 253a  :     0.011935 
   246a -> 252a  :     0.024788 

STATE 29:  E=   0.196299 au      5.342 eV    43082.6 cm**-1 <S**2> =   0.000000
   211a -> 252a  :     0.017305 
   223a -> 252a  :     0.013824 
   228a -> 252a  :     0.156431 
   233a -> 252a  :     0.083155 
   240a -> 266a  :     0.025406 
   241a -> 254a  :     0.022188 
   243a -> 253a  :     0.126459 
   244a -> 254a  :     0.214165 
   244a -> 256a  :     0.055453 
   245a -> 257a  :     0.010852 
   247a -> 252a  :     0.018609 
   251a -> 261a  :     0.019086 

STATE 30:  E=   0.199210 au      5.421 eV    43721.6 cm**-1 <S**2> =   0.000000
   227a -> 255a  :     0.018314 
   239a -> 254a  :     0.042776 
   239a -> 256a  :     0.025294 
   240a -> 255a  :     0.054671 
   240a -> 266a  :     0.017242 
   241a -> 254a  :     0.014961 
   243a -> 253a  :     0.159178 
   244a -> 254a  :     0.378307 
   244a -> 256a  :     0.020060 
   248a -> 254a  :     0.014499 
   251a -> 259a  :     0.018631 
   251a -> 261a  :     0.086353 


-------------------------
TD-DFT-EXCITATION SPECTRA
-------------------------

Center of mass = (  0.0000,  0.0000, -0.0005)
Calculating the Dipole integrals                  ... done
Transforming integrals                            ... done
Calculating the Linear Momentum integrals         ... done
Transforming integrals                            ... done
Calculating angular momentum integrals            ... done
Transforming integrals                            ... done

-----------------------------------------------------------------------------
         ABSORPTION SPECTRUM VIA TRANSITION ELECTRIC DIPOLE MOMENTS
-----------------------------------------------------------------------------
State   Energy    Wavelength  fosc         T2        TX        TY        TZ  
        (cm-1)      (nm)                 (au**2)    (au)      (au)      (au) 
-----------------------------------------------------------------------------
   1   21534.9    464.4   0.680744582  10.40681   0.01145  -3.22594  -0.00001
   2   27319.3    366.0   0.009153748   0.11031  -0.00011   0.00003   0.33213
   3   29186.2    342.6   0.285855005   3.22436  -1.79564  -0.00722   0.00006
   4   32006.7    312.4   0.000022309   0.00023   0.00010  -0.00004   0.01515
   5   32004.0    312.5   0.040592011   0.41755  -0.00000  -0.00000  -0.64618
   6   36274.9    275.7   0.096042884   0.87164   0.00010   0.00002   0.93361
   7   34937.3    286.2   0.007707205   0.07262  -0.00268   0.00026   0.26948
   8   34862.7    286.8   0.000962959   0.00909  -0.09469   0.00765  -0.00830
   9   35095.9    284.9   0.000027811   0.00026   0.00006   0.00007   0.01615
  10   37943.6    263.5   1.328344528  11.52517   3.39487   0.00227   0.00005
  11   37719.4    265.1   0.012789830   0.11163   0.15171   0.29768  -0.00007
  12   37205.9    268.8   0.000035445   0.00031  -0.00098   0.00019  -0.01768
  13   37969.9    263.4   0.002595034   0.02250  -0.00121   0.00007  -0.14999
  14   36705.2    272.4   0.049972281   0.44821   0.66943   0.00818  -0.00026
  15   37231.6    268.6   0.000002502   0.00002  -0.00206   0.00013  -0.00423
  16   39455.6    253.4   0.020649185   0.17229  -0.00290  -0.01166   0.41491
  17   39457.6    253.4   0.023367830   0.19497  -0.06042  -0.43726  -0.01100
  18   39985.6    250.1   1.050433558   8.64849  -2.94077  -0.01874  -0.00021
  19   41916.0    238.6   0.000063790   0.00050   0.00030  -0.00025  -0.02238
  20   41965.0    238.3   0.004014530   0.03149   0.17746   0.00057  -0.00025
  21   40637.9    246.1   0.009636283   0.07806  -0.00207  -0.27939   0.00018
  22   40560.7    246.5   0.010118757   0.08213  -0.00022   0.00010   0.28658
  23   38742.0    258.1   0.019070917   0.16206  -0.07545  -0.39543   0.00118
  24   38691.1    258.5   0.000123244   0.00105  -0.00315  -0.02179  -0.02375
  25   39098.0    255.8   0.086994904   0.73251  -0.00119   0.00019   0.85587
  26   39725.3    251.7   0.000452258   0.00375   0.00148   0.00107  -0.06119
  27   39701.1    251.9   0.063595733   0.52735  -0.72381   0.05880  -0.00065
  28   40146.8    249.1   0.444095912   3.64168   1.90384   0.13072   0.00031
  29   43082.6    232.1   0.258376242   1.97436  -0.23542   1.38526  -0.00014
  30   43721.6    228.7   0.123977111   0.93351   0.06532   0.96398   0.00007

-----------------------------------------------------------------------------
         ABSORPTION SPECTRUM VIA TRANSITION VELOCITY DIPOLE MOMENTS
-----------------------------------------------------------------------------
State   Energy    Wavelength   fosc        P2         PX        PY        PZ  
        (cm-1)      (nm)                 (au**2)     (au)      (au)      (au) 
-----------------------------------------------------------------------------
   1   21534.9    464.4   0.768157404   0.11306  -0.00120   0.33624   0.00000
   2   27319.3    366.0   0.010732224   0.00200   0.00001  -0.00000  -0.04476
   3   29186.2    342.6   0.344787293   0.06878   0.26225   0.00117  -0.00001
   4   32006.7    312.4   0.000024135   0.00001  -0.00001   0.00001  -0.00230
   5   32004.0    312.5   0.046586122   0.01019   0.00000   0.00000   0.10094
   6   36274.9    275.7   0.115656451   0.02867  -0.00002  -0.00000  -0.16933
   7   34937.3    286.2   0.010884961   0.00260   0.00048  -0.00005  -0.05098
   8   34862.7    286.8   0.001263896   0.00030   0.01722  -0.00142   0.00157
   9   35095.9    284.9   0.000039900   0.00001  -0.00001  -0.00001  -0.00309
  10   37943.6    263.5   1.617727769   0.41952  -0.64770  -0.00079  -0.00001
  11   37719.4    265.1   0.016134384   0.00416  -0.02923  -0.05749   0.00001
  12   37205.9    268.8   0.000043282   0.00001   0.00019  -0.00004   0.00331
  13   37969.9    263.4   0.003568108   0.00093   0.00024  -0.00001   0.03043
  14   36705.2    272.4   0.069331493   0.01739  -0.13187  -0.00176   0.00005
  15   37231.6    268.6   0.000002407   0.00000   0.00041  -0.00002   0.00066
  16   39455.6    253.4   0.025942667   0.00700   0.00058   0.00235  -0.08361
  17   39457.6    253.4   0.029271568   0.00789   0.01211   0.08799   0.00222
  18   39985.6    250.1   1.275241213   0.34850   0.59033   0.00319   0.00004
  19   41916.0    238.6   0.000074874   0.00002  -0.00005   0.00009   0.00463
  20   41965.0    238.3   0.004667920   0.00134  -0.03659  -0.00002   0.00003
  21   40637.9    246.1   0.011795659   0.00328   0.00036   0.05724  -0.00004
  22   40560.7    246.5   0.012848621   0.00356   0.00004  -0.00002  -0.05968
  23   38742.0    258.1   0.026930899   0.00713   0.01561   0.08299  -0.00030
  24   38691.1    258.5   0.000210319   0.00006   0.00065   0.00457   0.00586
  25   39098.0    255.8   0.117353628   0.03136   0.00024  -0.00004  -0.17708
  26   39725.3    251.7   0.000606174   0.00016  -0.00032  -0.00023   0.01282
  27   39701.1    251.9   0.085466290   0.02319   0.15176  -0.01263   0.00014
  28   40146.8    249.1   0.581595933   0.15958  -0.39855  -0.02716  -0.00007
  29   43082.6    232.1   0.305567122   0.08997   0.04947  -0.29585   0.00002
  30   43721.6    228.7   0.140586993   0.04201  -0.01369  -0.20450  -0.00002

-------------------------------------------------------------------
                             CD SPECTRUM
-------------------------------------------------------------------
State  Energy     Wavelength     R         MX        MY        MZ   
       (cm-1)       (nm)     (1e40*cgs)   (au)      (au)      (au)  
-------------------------------------------------------------------
   1   21534.9    464.4    -34.10080  -0.00140   0.02242  -0.00001
   2   27319.3    366.0    159.21304   0.00002   0.00000   1.01681
   3   29186.2    342.6    -31.08488   0.03670   0.00357  -0.00001
   4   32006.7    312.4     -0.19634   0.00001  -0.00000  -0.02749
   5   32004.0    312.5    -179.57893  -0.00002   0.00000   0.58947
   6   36274.9    275.7    625.59041   0.00000   0.00002   1.42130
   7   34937.3    286.2     68.37490  -0.01366   0.00091   0.53806
   8   34862.7    286.8     20.00032  -0.44419   0.02966  -0.01650
   9   35095.9    284.9      0.22255  -0.00012   0.00002   0.02923
  10   37943.6    263.5    -252.58721  -0.15780  -0.01927  -0.00017
  11   37719.4    265.1     51.26560  -0.01291   0.37187   0.00015
  12   37205.9    268.8      1.01344   0.00014   0.00024  -0.12158
  13   37969.9    263.4     53.93028   0.00022   0.00006  -0.76265
  14   36705.2    272.4    -27.34530  -0.08669   0.00380  -0.00136
  15   37231.6    268.6      0.06472   0.00031   0.00012  -0.03263
  16   39455.6    253.4    154.95304   0.00078   0.01052   0.79246
  17   39457.6    253.4    -81.42663   0.01319   0.39369  -0.02057
  18   39985.6    250.1    -1166.63114   0.84142   0.00740  -0.00026
  19   41916.0    238.6      0.09741   0.00049   0.00064  -0.00923
  20   41965.0    238.3     22.29780   0.26641   0.03304  -0.00047
  21   40637.9    246.1    -91.24550   0.00212   0.69271   0.00073
  22   40560.7    246.5     63.03214  -0.00007  -0.00039   0.46653
  23   38742.0    258.1    -25.08535   0.05048   0.12492  -0.00432
  24   38691.1    258.5     -0.77938   0.00196   0.00670   0.06321
  25   39098.0    255.8    879.36977   0.00049   0.00010   2.17936
  26   39725.3    251.7      4.08829  -0.00079  -0.00016  -0.14173
  27   39701.1    251.9    -142.72036   0.41705  -0.01464  -0.00137
  28   40146.8    249.1    -458.05580  -0.51191   0.02304   0.00053
  29   43082.6    232.1    165.30857   0.06462   0.26410  -0.00125
  30   43721.6    228.7    -38.10976  -0.01508  -0.08283   0.00022

Total run time:   211555.720 sec

           *** ORCA-CIS/TD-DFT FINISHED WITHOUT ERROR ***

Maximum memory used throughout the entire CIS-calculation: 16186.9 MB

-----------------------
CIS/TD-DFT TOTAL ENERGY
-----------------------

    E(SCF)  =  -4519.836004469 Eh
    DE(CIS) =      0.098120109 Eh (Root  1)
    ----------------------------- ---------
    E(tot)  =  -4519.737884360 Eh


-------------------------   --------------------
FINAL SINGLE POINT ENERGY     -4519.737884360357
-------------------------   --------------------


                            ***************************************
                            *     ORCA property calculations      *
                            ***************************************


  WARNING: The energy has been calculated at the MP2 level but the densities
           used in the property calculations are still SCF densities
           MP2 response densities have not been calculated 
           use %mp2 Density relaxed end
           or  %mp2 Density unrelaxed end

                                    ---------------------
                                    Active property flags
                                    ---------------------
   (+) Dipole Moment


------------------------------------------------------------------------------
                       ORCA ELECTRIC PROPERTIES CALCULATION
------------------------------------------------------------------------------

Dipole Moment Calculation                       ... on
Quadrupole Moment Calculation                   ... off
Polarizability Calculation                      ... off
GBWName                                         ... PDI_3_M06L_def2TZVP_coords.gbw
Electron density                                ... PDI_3_M06L_def2TZVP_coords.scfp
The origin for moment calculation is the CENTER OF MASS  = ( 0.000000,  0.000009 -0.000530)

-------------
DIPOLE MOMENT
-------------
                                X             Y             Z
Electronic contribution:      0.00010       0.00363      -0.22716
Nuclear contribution   :     -0.00016      -0.00468       0.26689
                        -----------------------------------------
Total Dipole Moment    :     -0.00006      -0.00105       0.03973
                        -----------------------------------------
Magnitude (a.u.)       :      0.03974
Magnitude (Debye)      :      0.10101



--------------------
Rotational spectrum 
--------------------
 
Rotational constants in cm-1:     0.001689     0.000890     0.000662 
Rotational constants in MHz :    50.636708    26.686424    19.835733 

 Dipole components along the rotational axes: 
x,y,z [a.u.] :     0.000058    -0.001045     0.039726 
x,y,z [Debye]:     0.000148    -0.002657     0.100975 

 

Timings for individual modules:

Sum of individual times         ...   227785.615 sec (=3796.427 min)
GTO integral calculation        ...        5.528 sec (=   0.092 min)   0.0 %
SCF iterations                  ...     2493.786 sec (=  41.563 min)   1.1 %
MP2 module                      ...    13728.866 sec (= 228.814 min)   6.0 %
CIS module                      ...   211557.435 sec (=3525.957 min)  92.9 %
                             ****ORCA TERMINATED NORMALLY****
TOTAL RUN TIME: 2 days 15 hours 16 minutes 47 seconds 644 msec
