 Entering Gaussian System, Link 0=g09
 Input=/home/png4rjv/fotokatalizis/benchmark/OPCs/RESTART/PDI_3_CAM-B3LYP-D3_def2TZVP_RE.gjf
 Output=/home/png4rjv/fotokatalizis/benchmark/OPCs/RESTART/PDI_3_CAM-B3LYP-D3_def2TZVP_RE.log
 Initial command:
 /opt/nce/packages/global/g09/l1.exe "/home/png4rjv/fotokatalizis/benchmark/OPCs/RESTART/PDI_3_CAM-B3LYP-D3_def2TZVP_RE/Gau-34226.inp" -scrdir="/home/png4rjv/fotokatalizis/benchmark/OPCs/RESTART/PDI_3_CAM-B3LYP-D3_def2TZVP_RE/"
 Default is to use a total of  12 processors:
                               12 via shared-memory
                                1 via Linda
 Entering Link 1 = /opt/nce/packages/global/g09/l1.exe PID=     34227.
  
 Copyright (c) 1988,1990,1992,1993,1995,1998,2003,2009,2015,
            Gaussian, Inc.  All Rights Reserved.
  
 This is part of the Gaussian(R) 09 program.  It is based on
 the Gaussian(R) 03 system (copyright 2003, Gaussian, Inc.),
 the Gaussian(R) 98 system (copyright 1998, Gaussian, Inc.),
 the Gaussian(R) 94 system (copyright 1995, Gaussian, Inc.),
 the Gaussian 92(TM) system (copyright 1992, Gaussian, Inc.),
 the Gaussian 90(TM) system (copyright 1990, Gaussian, Inc.),
 the Gaussian 88(TM) system (copyright 1988, Gaussian, Inc.),
 the Gaussian 86(TM) system (copyright 1986, Carnegie Mellon
 University), and the Gaussian 82(TM) system (copyright 1983,
 Carnegie Mellon University). Gaussian is a federally registered
 trademark of Gaussian, Inc.
  
 This software contains proprietary and confidential information,
 including trade secrets, belonging to Gaussian, Inc.
  
 This software is provided under written license and may be
 used, copied, transmitted, or stored only in accord with that
 written license.
  
 The following legend is applicable only to US Government
 contracts under FAR:
  
                    RESTRICTED RIGHTS LEGEND
  
 Use, reproduction and disclosure by the US Government is
 subject to restrictions as set forth in subparagraphs (a)
 and (c) of the Commercial Computer Software - Restricted
 Rights clause in FAR 52.227-19.
  
 Gaussian, Inc.
 340 Quinnipiac St., Bldg. 40, Wallingford CT 06492
  
  
 ---------------------------------------------------------------
 Warning -- This program may not be used in any manner that
 competes with the business of Gaussian, Inc. or will provide
 assistance to any competitor of Gaussian, Inc.  The licensee
 of this program is prohibited from giving any competitor of
 Gaussian, Inc. access to this program.  By using this program,
 the user acknowledges that Gaussian, Inc. is engaged in the
 business of creating and licensing software in the field of
 computational chemistry and represents and warrants to the
 licensee that it is not a competitor of Gaussian, Inc. and that
 it will not use this program in any manner prohibited above.
 ---------------------------------------------------------------
  

 Cite this work as:
 Gaussian 09, Revision E.01,
 M. J. Frisch, G. W. Trucks, H. B. Schlegel, G. E. Scuseria, 
 M. A. Robb, J. R. Cheeseman, G. Scalmani, V. Barone, B. Mennucci, 
 G. A. Petersson, H. Nakatsuji, M. Caricato, X. Li, H. P. Hratchian, 
 A. F. Izmaylov, J. Bloino, G. Zheng, J. L. Sonnenberg, M. Hada, 
 M. Ehara, K. Toyota, R. Fukuda, J. Hasegawa, M. Ishida, T. Nakajima, 
 Y. Honda, O. Kitao, H. Nakai, T. Vreven, J. A. Montgomery, Jr., 
 J. E. Peralta, F. Ogliaro, M. Bearpark, J. J. Heyd, E. Brothers, 
 K. N. Kudin, V. N. Staroverov, T. Keith, R. Kobayashi, J. Normand, 
 K. Raghavachari, A. Rendell, J. C. Burant, S. S. Iyengar, J. Tomasi, 
 M. Cossi, N. Rega, J. M. Millam, M. Klene, J. E. Knox, J. B. Cross, 
 V. Bakken, C. Adamo, J. Jaramillo, R. Gomperts, R. E. Stratmann, 
 O. Yazyev, A. J. Austin, R. Cammi, C. Pomelli, J. W. Ochterski, 
 R. L. Martin, K. Morokuma, V. G. Zakrzewski, G. A. Voth, 
 P. Salvador, J. J. Dannenberg, S. Dapprich, A. D. Daniels, 
 O. Farkas, J. B. Foresman, J. V. Ortiz, J. Cioslowski, 
 and D. J. Fox, Gaussian, Inc., Wallingford CT, 2013.
 
 ******************************************
 Gaussian 09:  ES64L-G09RevE.01 30-Nov-2015
                26-Mar-2021 
 ******************************************
 %chk=cp.chk
 Default route:  MaxDisk=500GB
 ----------------------------------------------------------------------
 #p cam-b3lyp/def2TZVP freq=noraman nosymm int=(Acc2E=11,ultrafine) scr
 f=(SMD,solvent=dichloromethane) EmpiricalDispersion=GD3BJ
 ----------------------------------------------------------------------
 1/10=4,30=1,38=1/1,3;
 2/12=2,15=1,17=6,18=5,40=1/2;
 3/5=44,7=101,11=2,16=1,25=1,30=1,70=32201,71=2,72=9,74=-40,75=-5,124=41,140=1/1,2,3;
 4//1;
 5/5=2,38=5,53=9,87=11,98=1/2;
 8/6=4,10=90,11=11,87=11/1;
 11/6=1,8=1,9=11,15=111,16=1,31=1,87=11/1,2,10;
 10/6=1,31=1,87=11/2;
 6/7=2,8=2,9=2,10=2,18=1,28=1/1;
 7/8=1,10=1,25=1,30=1,87=11/1,2,3,16;
 1/10=4,30=1/3;
 99//99;
 Leave Link    1 at Fri Mar 26 21:50:50 2021, MaxMem=           0 cpu:         1.2
 (Enter /opt/nce/packages/global/g09/l101.exe)
 -----
 Title
 -----
 Symbolic Z-matrix:
 Charge =  0 Multiplicity = 1
 C                    -2.22061   1.40615   0.88007 
 C                    -1.21897   0.70144   0.23337 
 C                    -0.00036   1.39884  -0.00077 
 C                    -0.00086   2.80195  -0.00145 
 C                    -1.09546   3.49812   0.52953 
 C                    -2.13332   2.79511   1.06411 
 C                     1.21855   0.7019   -0.23393 
 C                     1.093     3.49974  -0.53255 
 H                    -2.90921   3.3251    1.59697 
 C                     2.13119   2.79585  -1.06592 
 C                     2.2196    1.40715  -0.8809 
 H                     2.90697   3.32571  -1.59893 
 C                    -1.21858  -0.7019   -0.23365 
 C                     0.00035  -1.39877  -0.00041 
 C                    -2.21966  -1.40729  -0.88042 
 C                     1.21898  -0.70132   0.23345 
 C                     0.00085  -2.80188  -0.00075 
 C                    -2.13122  -2.79603  -1.06517 
 C                     2.22069  -1.40587   0.88022 
 C                     1.09547  -3.49792   0.53035 
 C                    -1.09302  -3.49979  -0.53165 
 H                    -2.90701  -3.32601  -1.59804 
 C                     2.13337  -2.79477   1.06469 
 H                     2.90929  -3.32464   1.59763 
 C                    -1.08726   4.97431   0.56614 
 O                    -1.99095   5.61335   1.05815 
 C                     1.09096   4.97782  -0.57437 
 O                     2.00215   5.60093  -1.07187 
 N                    -0.00044   5.6185   -0.0034 
 C                     1.08727  -4.97409   0.56732 
 O                     1.99098  -5.61302   1.05946 
 C                    -1.09098  -4.97788  -0.57311 
 O                    -2.00215  -5.60111  -1.07052 
 N                     0.00045  -5.61843  -0.00205 
 C                    -0.03221   7.07669   0.01287 
 H                    -0.91201   7.43213  -0.51916 
 H                     0.86517   7.44164  -0.47068 
 H                    -0.07332   7.43348   1.03973 
 C                     0.03225  -7.07661   0.01451 
 H                     0.91204  -7.43215  -0.51746 
 H                    -0.86513  -7.44168  -0.46894 
 H                     0.07338  -7.43319   1.04144 
 S                    -3.52953  -0.63953  -1.812 
 S                    -3.52946   0.63743   1.81224 
 S                     3.52949   0.6392   -1.8123 
 S                     3.52968  -0.6369    1.812 
 O                     3.45644  -0.78605  -1.64627 
 O                     3.37593   1.16285  -3.14506 
 O                     3.37579  -1.16033   3.1448 
 O                     3.4559    0.78827   1.64566 
 O                    -3.45556  -0.78779   1.64642 
 O                    -3.37548   1.16141   3.14483 
 O                    -3.4565    0.78575  -1.64619 
 O                    -3.37587  -1.16334  -3.14468 
 C                     5.08945  -1.21756   1.2093 
 C                     6.19622  -0.62323   1.80223 
 C                     5.2317   -2.23432   0.28294 
 C                     7.45988  -1.06425   1.46336 
 H                     6.07205   0.17636   2.51984 
 C                     6.50506  -2.66844  -0.04625 
 H                     4.37717  -2.67713  -0.2013 
 C                     7.61482  -2.08965   0.54288 
 H                     8.32607  -0.60203   1.91688 
 H                     6.62359  -3.46096  -0.77268 
 H                     8.60671  -2.43228   0.27925 
 C                     5.08861   1.22058  -1.20869 
 C                     6.19604   0.6262   -1.80032 
 C                     5.22978   2.23797  -0.28285 
 C                     7.4593    1.06776  -1.46062 
 H                     6.0727   -0.17388  -2.51752 
 C                     6.50274   2.67262   0.0472 
 H                     4.37469   2.68085   0.20035 
 C                     7.61316   2.09374  -0.54061 
 H                     8.326     0.6055   -1.91311 
 H                     6.62043   3.46561   0.77325 
 H                     8.60473   2.43678  -0.2763 
 C                    -5.08931   1.21775   1.20946 
 C                    -6.19599   0.62314   1.80226 
 C                    -5.23171   2.23455   0.28316 
 C                    -7.45973   1.0639    1.46332 
 H                    -6.07169  -0.17648   2.51981 
 C                    -6.50514   2.66841  -0.04611 
 H                    -4.37724   2.67759  -0.20097 
 C                    -7.61482   2.08932   0.54289 
 H                    -8.32585   0.60147   1.91675 
 H                    -6.6238    3.46095  -0.7725 
 H                    -8.60676   2.43175   0.2792 
 C                    -5.08871  -1.22083  -1.20843 
 C                    -6.19607  -0.62673  -1.80049 
 C                    -5.23001  -2.23782  -0.28217 
 C                    -7.45937  -1.0682   -1.46084 
 H                    -6.07264   0.17304  -2.51802 
 C                    -6.50301  -2.67238   0.04783 
 H                    -4.375    -2.68045   0.20139 
 C                    -7.61335  -2.0938   -0.54042 
 H                    -8.32601  -0.60616  -1.91368 
 H                    -6.6208   -3.46506   0.7742 
 H                    -8.60496  -2.43676  -0.27614 
 
 NAtoms=     98 NQM=       98 NQMF=       0 NMMI=      0 NMMIF=      0
                NMic=       0 NMicF=      0.
                    Isotopes and Nuclear Properties:
 (Nuclear quadrupole moments (NQMom) in fm**2, nuclear magnetic moments (NMagM)
  in nuclear magnetons)

  Atom         1           2           3           4           5           6           7           8           9          10
 IAtWgt=          12          12          12          12          12          12          12          12           1          12
 AtmWgt=  12.0000000  12.0000000  12.0000000  12.0000000  12.0000000  12.0000000  12.0000000  12.0000000   1.0078250  12.0000000
 NucSpn=           0           0           0           0           0           0           0           0           1           0
 AtZEff=   0.0000000   0.0000000   0.0000000   0.0000000   0.0000000   0.0000000   0.0000000   0.0000000   0.0000000   0.0000000
 NQMom=    0.0000000   0.0000000   0.0000000   0.0000000   0.0000000   0.0000000   0.0000000   0.0000000   0.0000000   0.0000000
 NMagM=    0.0000000   0.0000000   0.0000000   0.0000000   0.0000000   0.0000000   0.0000000   0.0000000   2.7928460   0.0000000
 AtZNuc=   6.0000000   6.0000000   6.0000000   6.0000000   6.0000000   6.0000000   6.0000000   6.0000000   1.0000000   6.0000000

  Atom        11          12          13          14          15          16          17          18          19          20
 IAtWgt=          12           1          12          12          12          12          12          12          12          12
 AtmWgt=  12.0000000   1.0078250  12.0000000  12.0000000  12.0000000  12.0000000  12.0000000  12.0000000  12.0000000  12.0000000
 NucSpn=           0           1           0           0           0           0           0           0           0           0
 AtZEff=   0.0000000   0.0000000   0.0000000   0.0000000   0.0000000   0.0000000   0.0000000   0.0000000   0.0000000   0.0000000
 NQMom=    0.0000000   0.0000000   0.0000000   0.0000000   0.0000000   0.0000000   0.0000000   0.0000000   0.0000000   0.0000000
 NMagM=    0.0000000   2.7928460   0.0000000   0.0000000   0.0000000   0.0000000   0.0000000   0.0000000   0.0000000   0.0000000
 AtZNuc=   6.0000000   1.0000000   6.0000000   6.0000000   6.0000000   6.0000000   6.0000000   6.0000000   6.0000000   6.0000000

  Atom        21          22          23          24          25          26          27          28          29          30
 IAtWgt=          12           1          12           1          12          16          12          16          14          12
 AtmWgt=  12.0000000   1.0078250  12.0000000   1.0078250  12.0000000  15.9949146  12.0000000  15.9949146  14.0030740  12.0000000
 NucSpn=           0           1           0           1           0           0           0           0           2           0
 AtZEff=   0.0000000   0.0000000   0.0000000   0.0000000   0.0000000   0.0000000   0.0000000   0.0000000   0.0000000   0.0000000
 NQMom=    0.0000000   0.0000000   0.0000000   0.0000000   0.0000000   0.0000000   0.0000000   0.0000000   2.0440000   0.0000000
 NMagM=    0.0000000   2.7928460   0.0000000   2.7928460   0.0000000   0.0000000   0.0000000   0.0000000   0.4037610   0.0000000
 AtZNuc=   6.0000000   1.0000000   6.0000000   1.0000000   6.0000000   8.0000000   6.0000000   8.0000000   7.0000000   6.0000000

  Atom        31          32          33          34          35          36          37          38          39          40
 IAtWgt=          16          12          16          14          12           1           1           1          12           1
 AtmWgt=  15.9949146  12.0000000  15.9949146  14.0030740  12.0000000   1.0078250   1.0078250   1.0078250  12.0000000   1.0078250
 NucSpn=           0           0           0           2           0           1           1           1           0           1
 AtZEff=   0.0000000   0.0000000   0.0000000   0.0000000   0.0000000   0.0000000   0.0000000   0.0000000   0.0000000   0.0000000
 NQMom=    0.0000000   0.0000000   0.0000000   2.0440000   0.0000000   0.0000000   0.0000000   0.0000000   0.0000000   0.0000000
 NMagM=    0.0000000   0.0000000   0.0000000   0.4037610   0.0000000   2.7928460   2.7928460   2.7928460   0.0000000   2.7928460
 AtZNuc=   8.0000000   6.0000000   8.0000000   7.0000000   6.0000000   1.0000000   1.0000000   1.0000000   6.0000000   1.0000000

  Atom        41          42          43          44          45          46          47          48          49          50
 IAtWgt=           1           1          32          32          32          32          16          16          16          16
 AtmWgt=   1.0078250   1.0078250  31.9720718  31.9720718  31.9720718  31.9720718  15.9949146  15.9949146  15.9949146  15.9949146
 NucSpn=           1           1           0           0           0           0           0           0           0           0
 AtZEff=   0.0000000   0.0000000   0.0000000   0.0000000   0.0000000   0.0000000   0.0000000   0.0000000   0.0000000   0.0000000
 NQMom=    0.0000000   0.0000000   0.0000000   0.0000000   0.0000000   0.0000000   0.0000000   0.0000000   0.0000000   0.0000000
 NMagM=    2.7928460   2.7928460   0.0000000   0.0000000   0.0000000   0.0000000   0.0000000   0.0000000   0.0000000   0.0000000
 AtZNuc=   1.0000000   1.0000000  16.0000000  16.0000000  16.0000000  16.0000000   8.0000000   8.0000000   8.0000000   8.0000000

  Atom        51          52          53          54          55          56          57          58          59          60
 IAtWgt=          16          16          16          16          12          12          12          12           1          12
 AtmWgt=  15.9949146  15.9949146  15.9949146  15.9949146  12.0000000  12.0000000  12.0000000  12.0000000   1.0078250  12.0000000
 NucSpn=           0           0           0           0           0           0           0           0           1           0
 AtZEff=   0.0000000   0.0000000   0.0000000   0.0000000   0.0000000   0.0000000   0.0000000   0.0000000   0.0000000   0.0000000
 NQMom=    0.0000000   0.0000000   0.0000000   0.0000000   0.0000000   0.0000000   0.0000000   0.0000000   0.0000000   0.0000000
 NMagM=    0.0000000   0.0000000   0.0000000   0.0000000   0.0000000   0.0000000   0.0000000   0.0000000   2.7928460   0.0000000
 AtZNuc=   8.0000000   8.0000000   8.0000000   8.0000000   6.0000000   6.0000000   6.0000000   6.0000000   1.0000000   6.0000000

  Atom        61          62          63          64          65          66          67          68          69          70
 IAtWgt=           1          12           1           1           1          12          12          12          12           1
 AtmWgt=   1.0078250  12.0000000   1.0078250   1.0078250   1.0078250  12.0000000  12.0000000  12.0000000  12.0000000   1.0078250
 NucSpn=           1           0           1           1           1           0           0           0           0           1
 AtZEff=   0.0000000   0.0000000   0.0000000   0.0000000   0.0000000   0.0000000   0.0000000   0.0000000   0.0000000   0.0000000
 NQMom=    0.0000000   0.0000000   0.0000000   0.0000000   0.0000000   0.0000000   0.0000000   0.0000000   0.0000000   0.0000000
 NMagM=    2.7928460   0.0000000   2.7928460   2.7928460   2.7928460   0.0000000   0.0000000   0.0000000   0.0000000   2.7928460
 AtZNuc=   1.0000000   6.0000000   1.0000000   1.0000000   1.0000000   6.0000000   6.0000000   6.0000000   6.0000000   1.0000000

  Atom        71          72          73          74          75          76          77          78          79          80
 IAtWgt=          12           1          12           1           1           1          12          12          12          12
 AtmWgt=  12.0000000   1.0078250  12.0000000   1.0078250   1.0078250   1.0078250  12.0000000  12.0000000  12.0000000  12.0000000
 NucSpn=           0           1           0           1           1           1           0           0           0           0
 AtZEff=   0.0000000   0.0000000   0.0000000   0.0000000   0.0000000   0.0000000   0.0000000   0.0000000   0.0000000   0.0000000
 NQMom=    0.0000000   0.0000000   0.0000000   0.0000000   0.0000000   0.0000000   0.0000000   0.0000000   0.0000000   0.0000000
 NMagM=    0.0000000   2.7928460   0.0000000   2.7928460   2.7928460   2.7928460   0.0000000   0.0000000   0.0000000   0.0000000
 AtZNuc=   6.0000000   1.0000000   6.0000000   1.0000000   1.0000000   1.0000000   6.0000000   6.0000000   6.0000000   6.0000000

  Atom        81          82          83          84          85          86          87          88          89          90
 IAtWgt=           1          12           1          12           1           1           1          12          12          12
 AtmWgt=   1.0078250  12.0000000   1.0078250  12.0000000   1.0078250   1.0078250   1.0078250  12.0000000  12.0000000  12.0000000
 NucSpn=           1           0           1           0           1           1           1           0           0           0
 AtZEff=   0.0000000   0.0000000   0.0000000   0.0000000   0.0000000   0.0000000   0.0000000   0.0000000   0.0000000   0.0000000
 NQMom=    0.0000000   0.0000000   0.0000000   0.0000000   0.0000000   0.0000000   0.0000000   0.0000000   0.0000000   0.0000000
 NMagM=    2.7928460   0.0000000   2.7928460   0.0000000   2.7928460   2.7928460   2.7928460   0.0000000   0.0000000   0.0000000
 AtZNuc=   1.0000000   6.0000000   1.0000000   6.0000000   1.0000000   1.0000000   1.0000000   6.0000000   6.0000000   6.0000000

  Atom        91          92          93          94          95          96          97          98
 IAtWgt=          12           1          12           1          12           1           1           1
 AtmWgt=  12.0000000   1.0078250  12.0000000   1.0078250  12.0000000   1.0078250   1.0078250   1.0078250
 NucSpn=           0           1           0           1           0           1           1           1
 AtZEff=   0.0000000   0.0000000   0.0000000   0.0000000   0.0000000   0.0000000   0.0000000   0.0000000
 NQMom=    0.0000000   0.0000000   0.0000000   0.0000000   0.0000000   0.0000000   0.0000000   0.0000000
 NMagM=    0.0000000   2.7928460   0.0000000   2.7928460   0.0000000   2.7928460   2.7928460   2.7928460
 AtZNuc=   6.0000000   1.0000000   6.0000000   1.0000000   6.0000000   1.0000000   1.0000000   1.0000000
 Leave Link  101 at Fri Mar 26 21:50:51 2021, MaxMem=  5242880000 cpu:         1.6
 (Enter /opt/nce/packages/global/g09/l103.exe)

 GradGradGradGradGradGradGradGradGradGradGradGradGradGradGradGradGradGrad
 Berny optimization.
 Initialization pass.
 Trust Radius=3.00D-01 FncErr=1.00D-07 GrdErr=1.00D-07
 Number of steps in this run=      2 maximum allowed number of steps=      2.
 GradGradGradGradGradGradGradGradGradGradGradGradGradGradGradGradGradGrad

 Leave Link  103 at Fri Mar 26 21:50:51 2021, MaxMem=  5242880000 cpu:         0.3
 (Enter /opt/nce/packages/global/g09/l202.exe)
 Symmetry turned off by external request.
 Stoichiometry    C50H30N2O12S4
 Framework group  C1[X(C50H30N2O12S4)]
 Deg. of freedom   288
 Full point group                 C1      NOp   1
                          Input orientation:                          
 ---------------------------------------------------------------------
 Center     Atomic      Atomic             Coordinates (Angstroms)
 Number     Number       Type             X           Y           Z
 ---------------------------------------------------------------------
      1          6           0       -2.220606    1.406148    0.880068
      2          6           0       -1.218971    0.701439    0.233370
      3          6           0       -0.000361    1.398838   -0.000774
      4          6           0       -0.000857    2.801945   -0.001451
      5          6           0       -1.095457    3.498123    0.529528
      6          6           0       -2.133323    2.795110    1.064109
      7          6           0        1.218548    0.701900   -0.233928
      8          6           0        1.092998    3.499735   -0.532551
      9          1           0       -2.909210    3.325099    1.596967
     10          6           0        2.131190    2.795851   -1.065918
     11          6           0        2.219603    1.407153   -0.880899
     12          1           0        2.906971    3.325714   -1.598925
     13          6           0       -1.218575   -0.701896   -0.233651
     14          6           0        0.000350   -1.398772   -0.000411
     15          6           0       -2.219659   -1.407294   -0.880419
     16          6           0        1.218984   -0.701316    0.233449
     17          6           0        0.000848   -2.801875   -0.000749
     18          6           0       -2.131221   -2.796027   -1.065169
     19          6           0        2.220687   -1.405866    0.880222
     20          6           0        1.095469   -3.497920    0.530354
     21          6           0       -1.093022   -3.499789   -0.531652
     22          1           0       -2.907013   -3.326012   -1.598036
     23          6           0        2.133374   -2.794773    1.064686
     24          1           0        2.909291   -3.324637    1.597626
     25          6           0       -1.087257    4.974306    0.566138
     26          8           0       -1.990949    5.613354    1.058151
     27          6           0        1.090956    4.977818   -0.574367
     28          8           0        2.002153    5.600930   -1.071868
     29          7           0       -0.000442    5.618502   -0.003397
     30          6           0        1.087270   -4.974094    0.567321
     31          8           0        1.990977   -5.613022    1.059463
     32          6           0       -1.090980   -4.977883   -0.573113
     33          8           0       -2.002150   -5.601112   -1.070517
     34          7           0        0.000451   -5.618428   -0.002051
     35          6           0       -0.032212    7.076685    0.012865
     36          1           0       -0.912010    7.432129   -0.519158
     37          1           0        0.865165    7.441643   -0.470676
     38          1           0       -0.073322    7.433477    1.039728
     39          6           0        0.032249   -7.076608    0.014510
     40          1           0        0.912043   -7.432145   -0.517458
     41          1           0       -0.865131   -7.441682   -0.468937
     42          1           0        0.073384   -7.433189    1.041445
     43         16           0       -3.529527   -0.639525   -1.811996
     44         16           0       -3.529462    0.637434    1.812244
     45         16           0        3.529489    0.639201   -1.812302
     46         16           0        3.529681   -0.636897    1.811999
     47          8           0        3.456442   -0.786049   -1.646267
     48          8           0        3.375926    1.162848   -3.145059
     49          8           0        3.375787   -1.160330    3.144804
     50          8           0        3.455895    0.788271    1.645662
     51          8           0       -3.455565   -0.787791    1.646420
     52          8           0       -3.375477    1.161406    3.144827
     53          8           0       -3.456503    0.785749   -1.646185
     54          8           0       -3.375873   -1.163338   -3.144678
     55          6           0        5.089445   -1.217557    1.209302
     56          6           0        6.196216   -0.623229    1.802227
     57          6           0        5.231699   -2.234320    0.282935
     58          6           0        7.459882   -1.064247    1.463358
     59          1           0        6.072047    0.176355    2.519840
     60          6           0        6.505060   -2.668443   -0.046252
     61          1           0        4.377174   -2.677126   -0.201298
     62          6           0        7.614820   -2.089646    0.542879
     63          1           0        8.326067   -0.602033    1.916883
     64          1           0        6.623594   -3.460962   -0.772683
     65          1           0        8.606708   -2.432278    0.279248
     66          6           0        5.088615    1.220582   -1.208692
     67          6           0        6.196045    0.626199   -1.800318
     68          6           0        5.229780    2.237970   -0.282852
     69          6           0        7.459299    1.067763   -1.460623
     70          1           0        6.072702   -0.173877   -2.517521
     71          6           0        6.502737    2.672621    0.047195
     72          1           0        4.374694    2.680852    0.200347
     73          6           0        7.613162    2.093744   -0.540612
     74          1           0        8.326000    0.605502   -1.913112
     75          1           0        6.620431    3.465613    0.773248
     76          1           0        8.604731    2.436777   -0.276301
     77          6           0       -5.089310    1.217750    1.209456
     78          6           0       -6.195988    0.623138    1.802260
     79          6           0       -5.231710    2.234553    0.283155
     80          6           0       -7.459728    1.063899    1.463322
     81          1           0       -6.071693   -0.176477    2.519814
     82          6           0       -6.505140    2.668410   -0.046109
     83          1           0       -4.377236    2.677592   -0.200965
     84          6           0       -7.614820    2.089321    0.542893
     85          1           0       -8.325845    0.601468    1.916754
     86          1           0       -6.623795    3.460952   -0.772496
     87          1           0       -8.606763    2.431748    0.279204
     88          6           0       -5.088712   -1.220827   -1.208432
     89          6           0       -6.196070   -0.626734   -1.800492
     90          6           0       -5.230008   -2.237818   -0.282173
     91          6           0       -7.459369   -1.068198   -1.460836
     92          1           0       -6.072637    0.173038   -2.518020
     93          6           0       -6.503009   -2.672381    0.047826
     94          1           0       -4.375001   -2.680450    0.201388
     95          6           0       -7.613354   -2.093800   -0.540419
     96          1           0       -8.326008   -0.606162   -1.913675
     97          1           0       -6.620802   -3.465062    0.774203
     98          1           0       -8.604955   -2.436758   -0.276135
 ---------------------------------------------------------------------
 Rotational constants (GHZ):      0.0504131      0.0270129      0.0201484
 Leave Link  202 at Fri Mar 26 21:50:51 2021, MaxMem=  5242880000 cpu:         0.6
 (Enter /opt/nce/packages/global/g09/l301.exe)
 Standard basis: def2TZVP (5D, 7F)
 Ernie: Thresh=  0.10000D-02 Tol=  0.10000D-05 Strict=F.
  2312 basis functions,  3780 primitive gaussians,  2652 cartesian basis functions
   252 alpha electrons      252 beta electrons
       nuclear repulsion energy     12513.9027003131 Hartrees.
 IExCor=20419 DFT=T Ex+Corr=CAM-B3LYP ExCW=0 ScaHFX=  1.000000
 ScaDFX=  1.000000  1.000000  1.000000  0.810000 ScalE2=  1.000000  1.000000
 IRadAn=      5 IRanWt=     -1 IRanGd=            0 ICorTp=0 IEmpDi=141
  HFx wShort=  0.000000 wLong=  0.330000 cFull=  0.190000 cShort=  0.000000 cLong=  0.460000
  DFx wShort=  0.000000 wLong=  0.330000 cFull=  0.190000 cShort=  0.000000 cLong=  0.460000
 NAtoms=   98 NActive=   98 NUniq=   98 SFac= 1.00D+00 NAtFMM=   60 NAOKFM=T Big=T
 Integral buffers will be    131072 words long.
 Raffenetti 2 integral format.
 Two-electron integral symmetry is turned off.
 R6Disp:  Grimme-D3(BJ) Dispersion energy=       -0.1849230315 Hartrees.
 Nuclear repulsion after empirical dispersion term =    12513.7177772816 Hartrees.
 Force inversion solution in PCM.
 ------------------------------------------------------------------------------
 Polarizable Continuum Model (PCM)
 =================================
 Model                : PCM (using non-symmetric T matrix).
 Atomic radii         : SMD-Coulomb.
 Polarization charges : Total charges.
 Charge compensation  : None.
 Solution method      : Matrix inversion.
 Cavity type          : VdW (van der Waals Surface) (Alpha=1.000).
 Cavity algorithm     : GePol (No added spheres)
                        Default sphere list used, NSphG=   98.
                        Lebedev-Laikov grids with approx.  5.0 points / Ang**2.
                        Smoothing algorithm: York/Karplus (Gamma=1.0000).
                        Polarization charges: spherical gaussians, with
                                              point-specific exponents (IZeta= 3).
                        Self-potential: point-specific (ISelfS= 7).
                        Self-field    : sphere-specific E.n sum rule (ISelfD= 2).
 1st derivatives      : Analytical E(r).r(x)/FMM algorithm (CHGder, D1EAlg=3).
                        Cavity 1st derivative terms included.
 2nd derivatives      : Analytical E(r).r(xy)/FMM algorithm (CHGder, D2EAlg=3).
                        Cavity 2nd derivative terms included.
 Solvent              : Dichloromethane, Eps=   8.930000 Eps(inf)=   2.028346
 ------------------------------------------------------------------------------
 GePol: Number of generator spheres                  =      98
 GePol: Total number of spheres                      =      98
 GePol: Number of exposed spheres                    =      98 (100.00%)
 GePol: Number of points                             =    6982
 GePol: Average weight of points                     =       0.12
 GePol: Minimum weight of points                     =   0.73D-08
 GePol: Maximum weight of points                     =    0.20498
 GePol: Number of points with low weight             =     430
 GePol: Fraction of low-weight points (<1% of avg)   =       6.16%
 GePol: Cavity surface area                          =    826.352 Ang**2
 GePol: Cavity volume                                =    967.046 Ang**3
 ------------------------------------------------------------------------------
 Atomic radii for non-electrostatic terms: SMD-CDS.
 ------------------------------------------------------------------------------
 PCM non-electrostatic energy =        -0.0234518215 Hartrees.
 Nuclear repulsion after PCM non-electrostatic terms =    12513.6943254601 Hartrees.
 Leave Link  301 at Fri Mar 26 21:50:51 2021, MaxMem=  5242880000 cpu:         3.0
 (Enter /opt/nce/packages/global/g09/l302.exe)
 NPDir=0 NMtPBC=     1 NCelOv=     1 NCel=       1 NClECP=     1 NCelD=      1
         NCelK=      1 NCelE2=     1 NClLst=     1 CellRange=     0.0.
 One-electron integrals computed using PRISM.
   1 Symmetry operations used in ECPInt.
 ECPInt:  NShTT=  384126 NPrTT= 1231738 LenC2=  252427 LenP2D=  507744.
 LDataN:  DoStor=T MaxTD1= 6 Len=  172
 NBasis=  2312 RedAO= T EigKep=  1.65D-06  NBF=  2312
 NBsUse=  2312 1.00D-06 EigRej= -1.00D+00 NBFU=  2312
 Precomputing XC quadrature grid using
 IXCGrd= 4 IRadAn=           5 IRanWt=          -1 IRanGd=           0 AccXCQ= 0.00D+00.
 Generated NRdTot=       0 NPtTot=           0 NUsed=           0 NTot=          32
 NSgBfM=  2439  2460  2460  2469  2481 MxSgAt=    98 MxSgA2=    98.
 Leave Link  302 at Fri Mar 26 21:51:09 2021, MaxMem=  5242880000 cpu:       217.9
 (Enter /opt/nce/packages/global/g09/l303.exe)
 DipDrv:  MaxL=1.
 Leave Link  303 at Fri Mar 26 21:51:11 2021, MaxMem=  5242880000 cpu:        12.7
 (Enter /opt/nce/packages/global/g09/l401.exe)
 ExpMin= 9.52D-02 ExpMax= 6.07D+04 ExpMxC= 2.07D+03 IAcc=3 IRadAn=         5 AccDes= 0.00D+00
 Harris functional with IExCor=20419 and IRadAn=       5 diagonalized for initial guess.
 HarFok:  IExCor=20419 AccDes= 0.00D+00 IRadAn=         5 IDoV= 1 UseB2=F ITyADJ=14
 ICtDFT=  3500011 ScaDFX=  1.000000  1.000000  1.000000  1.000000
 FoFCou: FMM=F IPFlag=           0 FMFlag=      100000 FMFlg1=        2001
         NFxFlg=           0 DoJE=T BraDBF=F KetDBF=T FulRan=T
         wScrn=  0.000000 ICntrl=     500 IOpCl=  0 I1Cent=   200000004 NGrid=           0
         NMat0=    1 NMatS0=      1 NMatT0=    0 NMatD0=    1 NMtDS0=    0 NMtDT0=    0
 Symmetry not used in FoFCou.
 Harris En= -4395.35886347799    
 JPrj=0 DoOrth=F DoCkMO=F.
 Leave Link  401 at Fri Mar 26 21:51:50 2021, MaxMem=  5242880000 cpu:       468.9
 (Enter /opt/nce/packages/global/g09/l502.exe)
 Closed shell SCF:
 Using DIIS extrapolation, IDIIS=  1040.
 Two-electron integral symmetry not used.
 IVT=    21165794 IEndB=    21165794 NGot=  5242880000 MDV=  5228766603
 LenX=  5228766603 LenY=  5221730847
 Requested convergence on RMS density matrix=1.00D-08 within 128 cycles.
 Requested convergence on MAX density matrix=1.00D-06.
 Requested convergence on             energy=1.00D-06.
 No special actions if energy rises.
 Fock matrices will be formed incrementally for  20 cycles.

 Cycle   1  Pass 1  IDiag  1:
 FoFJK:  IHMeth= 1 ICntrl=       0 DoSepK=T KAlg= 0 I1Cent=   0 FoldK=F
 IRaf=         1 NMat=   1 IRICut=       1 DoRegI=T DoRafI=F ISym2E= 0.
 FoFCou: FMM=T IPFlag=           0 FMFlag=      100000 FMFlg1=        2001
         NFxFlg=           0 DoJE=T BraDBF=F KetDBF=F FulRan=T
         wScrn=  0.000000 ICntrl=     500 IOpCl=  0 I1Cent=           0 NGrid=           0
         NMat0=    1 NMatS0=      1 NMatT0=    0 NMatD0=    1 NMtDS0=    0 NMtDT0=    0
 Symmetry not used in FoFCou.
 FMM levels:  10  Number of levels for PrismC:   9
 Inv3:  Mode=1 IEnd=   146244972.
 Iteration    1 A*A^-1 deviation from unit magnitude is 1.22D-14 for   6966.
 Iteration    1 A*A^-1 deviation from orthogonality  is 1.18D-14 for   6966   5446.
 Iteration    1 A^-1*A deviation from unit magnitude is 1.21D-14 for   6966.
 Iteration    1 A^-1*A deviation from orthogonality  is 1.70D-09 for   4889   4874.
 Iteration    2 A*A^-1 deviation from unit magnitude is 3.11D-15 for    484.
 Iteration    2 A*A^-1 deviation from orthogonality  is 3.92D-15 for   2681   1584.
 Iteration    2 A^-1*A deviation from unit magnitude is 8.88D-16 for   2579.
 Iteration    2 A^-1*A deviation from orthogonality  is 4.44D-16 for   6946    927.
 E= -4526.98889215220    
 DIIS: error= 6.24D-02 at cycle   1 NSaved=   1.
 NSaved= 1 IEnMin= 1 EnMin= -4526.98889215220     IErMin= 1 ErrMin= 6.24D-02
 ErrMax= 6.24D-02  0.00D+00 EMaxC= 1.00D-01 BMatC= 6.92D+00 BMatP= 6.92D+00
 IDIUse=3 WtCom= 3.76D-01 WtEn= 6.24D-01
 Coeff-Com:  0.100D+01
 Coeff-En:   0.100D+01
 Coeff:      0.100D+01
 Gap=     0.186 Goal=   None    Shift=    0.000
 GapD=    0.186 DampG=1.000 DampE=0.500 DampFc=0.5000 IDamp=-1.
 Damping current iteration by 5.00D-01
 RMSDP=4.14D-03 MaxDP=7.13D-01              OVMax= 1.72D-01

 Cycle   2  Pass 1  IDiag  1:
 RMSU=  1.30D-03    CP:  7.88D-01
 E= -4527.61322787463     Delta-E=       -0.624335722438 Rises=F Damp=T
 DIIS: error= 2.01D-02 at cycle   2 NSaved=   2.
 NSaved= 2 IEnMin= 2 EnMin= -4527.61322787463     IErMin= 2 ErrMin= 2.01D-02
 ErrMax= 2.01D-02  0.00D+00 EMaxC= 1.00D-01 BMatC= 1.17D+00 BMatP= 6.92D+00
 IDIUse=3 WtCom= 7.99D-01 WtEn= 2.01D-01
 Coeff-Com: -0.419D+00 0.142D+01
 Coeff-En:   0.000D+00 0.100D+01
 Coeff:     -0.335D+00 0.133D+01
 Gap=     0.252 Goal=   None    Shift=    0.000
 RMSDP=1.91D-03 MaxDP=4.41D-01 DE=-6.24D-01 OVMax= 1.58D-01

 Cycle   3  Pass 1  IDiag  1:
 RMSU=  1.17D-03    CP:  5.93D-01  1.22D+00
 E= -4527.99009511904     Delta-E=       -0.376867244409 Rises=F Damp=F
 DIIS: error= 1.14D-02 at cycle   3 NSaved=   3.
 NSaved= 3 IEnMin= 3 EnMin= -4527.99009511904     IErMin= 3 ErrMin= 1.14D-02
 ErrMax= 1.14D-02  0.00D+00 EMaxC= 1.00D-01 BMatC= 4.53D-01 BMatP= 1.17D+00
 IDIUse=3 WtCom= 8.86D-01 WtEn= 1.14D-01
 Coeff-Com: -0.288D+00 0.706D+00 0.582D+00
 Coeff-En:   0.000D+00 0.000D+00 0.100D+01
 Coeff:     -0.255D+00 0.625D+00 0.630D+00
 Gap=     0.186 Goal=   None    Shift=    0.000
 RMSDP=7.87D-04 MaxDP=9.04D-02 DE=-3.77D-01 OVMax= 7.97D-02

 Cycle   4  Pass 1  IDiag  1:
 RMSU=  4.27D-04    CP:  5.89D-01  1.54D+00  5.55D-01
 E= -4528.30672028292     Delta-E=       -0.316625163876 Rises=F Damp=F
 DIIS: error= 3.58D-03 at cycle   4 NSaved=   4.
 NSaved= 4 IEnMin= 4 EnMin= -4528.30672028292     IErMin= 4 ErrMin= 3.58D-03
 ErrMax= 3.58D-03  0.00D+00 EMaxC= 1.00D-01 BMatC= 7.06D-02 BMatP= 4.53D-01
 IDIUse=3 WtCom= 9.64D-01 WtEn= 3.58D-02
 Coeff-Com: -0.123D+00 0.282D+00 0.364D+00 0.477D+00
 Coeff-En:   0.000D+00 0.000D+00 0.917D-01 0.908D+00
 Coeff:     -0.119D+00 0.272D+00 0.354D+00 0.493D+00
 Gap=     0.179 Goal=   None    Shift=    0.000
 RMSDP=3.51D-04 MaxDP=7.46D-02 DE=-3.17D-01 OVMax= 2.60D-02

 Cycle   5  Pass 1  IDiag  1:
 RMSU=  1.03D-04    CP:  5.61D-01  1.54D+00  7.28D-01  6.14D-01
 E= -4528.35949936340     Delta-E=       -0.052779080484 Rises=F Damp=F
 DIIS: error= 5.61D-04 at cycle   5 NSaved=   5.
 NSaved= 5 IEnMin= 5 EnMin= -4528.35949936340     IErMin= 5 ErrMin= 5.61D-04
 ErrMax= 5.61D-04  0.00D+00 EMaxC= 1.00D-01 BMatC= 1.56D-03 BMatP= 7.06D-02
 IDIUse=3 WtCom= 9.94D-01 WtEn= 5.61D-03
 Coeff-Com: -0.229D-01 0.497D-01 0.878D-01 0.202D+00 0.683D+00
 Coeff-En:   0.000D+00 0.000D+00 0.000D+00 0.000D+00 0.100D+01
 Coeff:     -0.227D-01 0.494D-01 0.873D-01 0.201D+00 0.685D+00
 Gap=     0.179 Goal=   None    Shift=    0.000
 RMSDP=4.25D-05 MaxDP=5.42D-03 DE=-5.28D-02 OVMax= 6.53D-03

 Cycle   6  Pass 1  IDiag  1:
 RMSU=  2.53D-05    CP:  5.63D-01  1.54D+00  7.19D-01  6.64D-01  8.33D-01
 E= -4528.36068643001     Delta-E=       -0.001187066602 Rises=F Damp=F
 DIIS: error= 1.52D-04 at cycle   6 NSaved=   6.
 NSaved= 6 IEnMin= 6 EnMin= -4528.36068643001     IErMin= 6 ErrMin= 1.52D-04
 ErrMax= 1.52D-04  0.00D+00 EMaxC= 1.00D-01 BMatC= 1.29D-04 BMatP= 1.56D-03
 IDIUse=3 WtCom= 9.98D-01 WtEn= 1.52D-03
 Coeff-Com:  0.568D-04-0.101D-02 0.740D-02 0.491D-01 0.300D+00 0.644D+00
 Coeff-En:   0.000D+00 0.000D+00 0.000D+00 0.000D+00 0.000D+00 0.100D+01
 Coeff:      0.567D-04-0.101D-02 0.739D-02 0.490D-01 0.300D+00 0.645D+00
 Gap=     0.180 Goal=   None    Shift=    0.000
 RMSDP=1.79D-05 MaxDP=2.84D-03 DE=-1.19D-03 OVMax= 1.87D-03

 Cycle   7  Pass 1  IDiag  1:
 RMSU=  1.01D-05    CP:  5.62D-01  1.54D+00  7.24D-01  6.68D-01  8.74D-01
                    CP:  8.03D-01
 E= -4528.36078695751     Delta-E=       -0.000100527508 Rises=F Damp=F
 DIIS: error= 7.51D-05 at cycle   7 NSaved=   7.
 NSaved= 7 IEnMin= 7 EnMin= -4528.36078695751     IErMin= 7 ErrMin= 7.51D-05
 ErrMax= 7.51D-05  0.00D+00 EMaxC= 1.00D-01 BMatC= 2.48D-05 BMatP= 1.29D-04
 IDIUse=1 WtCom= 1.00D+00 WtEn= 0.00D+00
 Coeff-Com:  0.413D-02-0.936D-02-0.125D-01-0.117D-01 0.325D-01 0.334D+00
 Coeff-Com:  0.663D+00
 Coeff:      0.413D-02-0.936D-02-0.125D-01-0.117D-01 0.325D-01 0.334D+00
 Coeff:      0.663D+00
 Gap=     0.180 Goal=   None    Shift=    0.000
 RMSDP=7.19D-06 MaxDP=7.79D-04 DE=-1.01D-04 OVMax= 9.25D-04

 Cycle   8  Pass 1  IDiag  1:
 RMSU=  4.17D-06    CP:  5.62D-01  1.54D+00  7.24D-01  6.72D-01  8.81D-01
                    CP:  1.02D+00  9.80D-01
 E= -4528.36080874350     Delta-E=       -0.000021785982 Rises=F Damp=F
 DIIS: error= 1.68D-05 at cycle   8 NSaved=   8.
 NSaved= 8 IEnMin= 8 EnMin= -4528.36080874350     IErMin= 8 ErrMin= 1.68D-05
 ErrMax= 1.68D-05  0.00D+00 EMaxC= 1.00D-01 BMatC= 2.32D-06 BMatP= 2.48D-05
 IDIUse=1 WtCom= 1.00D+00 WtEn= 0.00D+00
 Coeff-Com:  0.207D-02-0.459D-02-0.709D-02-0.116D-01-0.190D-01 0.953D-01
 Coeff-Com:  0.316D+00 0.629D+00
 Coeff:      0.207D-02-0.459D-02-0.709D-02-0.116D-01-0.190D-01 0.953D-01
 Coeff:      0.316D+00 0.629D+00
 Gap=     0.180 Goal=   None    Shift=    0.000
 RMSDP=1.49D-06 MaxDP=1.15D-04 DE=-2.18D-05 OVMax= 5.52D-04

 Cycle   9  Pass 1  IDiag  1:
 RMSU=  1.17D-06    CP:  5.62D-01  1.54D+00  7.24D-01  6.72D-01  8.81D-01
                    CP:  1.01D+00  1.05D+00  9.00D-01
 E= -4528.36081142593     Delta-E=       -0.000002682438 Rises=F Damp=F
 DIIS: error= 1.02D-05 at cycle   9 NSaved=   9.
 NSaved= 9 IEnMin= 9 EnMin= -4528.36081142593     IErMin= 9 ErrMin= 1.02D-05
 ErrMax= 1.02D-05  0.00D+00 EMaxC= 1.00D-01 BMatC= 2.36D-07 BMatP= 2.32D-06
 IDIUse=1 WtCom= 1.00D+00 WtEn= 0.00D+00
 Coeff-Com: -0.158D-03 0.375D-03 0.389D-03-0.119D-02-0.116D-01-0.294D-01
 Coeff-Com: -0.227D-01 0.202D+00 0.862D+00
 Coeff:     -0.158D-03 0.375D-03 0.389D-03-0.119D-02-0.116D-01-0.294D-01
 Coeff:     -0.227D-01 0.202D+00 0.862D+00
 Gap=     0.180 Goal=   None    Shift=    0.000
 RMSDP=8.84D-07 MaxDP=9.67D-05 DE=-2.68D-06 OVMax= 3.04D-04

 Cycle  10  Pass 1  IDiag  1:
 RMSU=  6.14D-07    CP:  5.62D-01  1.54D+00  7.24D-01  6.72D-01  8.80D-01
                    CP:  1.03D+00  1.09D+00  9.66D-01  9.73D-01
 E= -4528.36081190216     Delta-E=       -0.000000476230 Rises=F Damp=F
 DIIS: error= 3.87D-06 at cycle  10 NSaved=  10.
 NSaved=10 IEnMin=10 EnMin= -4528.36081190216     IErMin=10 ErrMin= 3.87D-06
 ErrMax= 3.87D-06  0.00D+00 EMaxC= 1.00D-01 BMatC= 4.30D-08 BMatP= 2.36D-07
 IDIUse=1 WtCom= 1.00D+00 WtEn= 0.00D+00
 Coeff-Com: -0.290D-03 0.660D-03 0.979D-03 0.752D-03-0.280D-02-0.230D-01
 Coeff-Com: -0.476D-01 0.810D-02 0.360D+00 0.703D+00
 Coeff:     -0.290D-03 0.660D-03 0.979D-03 0.752D-03-0.280D-02-0.230D-01
 Coeff:     -0.476D-01 0.810D-02 0.360D+00 0.703D+00
 Gap=     0.180 Goal=   None    Shift=    0.000
 RMSDP=3.62D-07 MaxDP=4.21D-05 DE=-4.76D-07 OVMax= 1.82D-04

 Cycle  11  Pass 1  IDiag  1:
 RMSU=  1.65D-07    CP:  5.62D-01  1.54D+00  7.24D-01  6.71D-01  8.80D-01
                    CP:  1.03D+00  1.09D+00  9.88D-01  1.11D+00  1.07D+00
 E= -4528.36081197492     Delta-E=       -0.000000072752 Rises=F Damp=F
 DIIS: error= 2.02D-06 at cycle  11 NSaved=  11.
 NSaved=11 IEnMin=11 EnMin= -4528.36081197492     IErMin=11 ErrMin= 2.02D-06
 ErrMax= 2.02D-06  0.00D+00 EMaxC= 1.00D-01 BMatC= 9.66D-09 BMatP= 4.30D-08
 IDIUse=1 WtCom= 1.00D+00 WtEn= 0.00D+00
 Coeff-Com: -0.122D-03 0.277D-03 0.431D-03 0.502D-03 0.496D-04-0.746D-02
 Coeff-Com: -0.215D-01-0.256D-01 0.540D-01 0.354D+00 0.645D+00
 Coeff:     -0.122D-03 0.277D-03 0.431D-03 0.502D-03 0.496D-04-0.746D-02
 Coeff:     -0.215D-01-0.256D-01 0.540D-01 0.354D+00 0.645D+00
 Gap=     0.180 Goal=   None    Shift=    0.000
 RMSDP=1.19D-07 MaxDP=1.69D-05 DE=-7.28D-08 OVMax= 4.94D-05

 Cycle  12  Pass 1  IDiag  1:
 RMSU=  7.39D-08    CP:  5.62D-01  1.54D+00  7.24D-01  6.71D-01  8.80D-01
                    CP:  1.03D+00  1.09D+00  9.92D-01  1.14D+00  1.16D+00
                    CP:  9.90D-01
 E= -4528.36081198848     Delta-E=       -0.000000013562 Rises=F Damp=F
 DIIS: error= 5.25D-07 at cycle  12 NSaved=  12.
 NSaved=12 IEnMin=12 EnMin= -4528.36081198848     IErMin=12 ErrMin= 5.25D-07
 ErrMax= 5.25D-07  0.00D+00 EMaxC= 1.00D-01 BMatC= 1.18D-09 BMatP= 9.66D-09
 IDIUse=1 WtCom= 1.00D+00 WtEn= 0.00D+00
 Coeff-Com:  0.917D-05-0.224D-04-0.235D-04 0.756D-04 0.728D-03 0.217D-02
 Coeff-Com:  0.142D-02-0.141D-01-0.566D-01 0.302D-02 0.275D+00 0.788D+00
 Coeff:      0.917D-05-0.224D-04-0.235D-04 0.756D-04 0.728D-03 0.217D-02
 Coeff:      0.142D-02-0.141D-01-0.566D-01 0.302D-02 0.275D+00 0.788D+00
 Gap=     0.180 Goal=   None    Shift=    0.000
 RMSDP=5.63D-08 MaxDP=6.87D-06 DE=-1.36D-08 OVMax= 3.13D-05

 Cycle  13  Pass 1  IDiag  1:
 RMSU=  3.19D-08    CP:  5.62D-01  1.54D+00  7.24D-01  6.71D-01  8.80D-01
                    CP:  1.03D+00  1.09D+00  9.91D-01  1.16D+00  1.18D+00
                    CP:  1.12D+00  1.16D+00
 E= -4528.36081199124     Delta-E=       -0.000000002761 Rises=F Damp=F
 DIIS: error= 2.46D-07 at cycle  13 NSaved=  13.
 NSaved=13 IEnMin=13 EnMin= -4528.36081199124     IErMin=13 ErrMin= 2.46D-07
 ErrMax= 2.46D-07  0.00D+00 EMaxC= 1.00D-01 BMatC= 2.06D-10 BMatP= 1.18D-09
 IDIUse=1 WtCom= 1.00D+00 WtEn= 0.00D+00
 Coeff-Com:  0.174D-04-0.401D-04-0.577D-04-0.221D-04 0.309D-03 0.172D-02
 Coeff-Com:  0.297D-02-0.432D-02-0.329D-01-0.314D-01 0.656D-01 0.376D+00
 Coeff-Com:  0.622D+00
 Coeff:      0.174D-04-0.401D-04-0.577D-04-0.221D-04 0.309D-03 0.172D-02
 Coeff:      0.297D-02-0.432D-02-0.329D-01-0.314D-01 0.656D-01 0.376D+00
 Coeff:      0.622D+00
 Gap=     0.180 Goal=   None    Shift=    0.000
 RMSDP=1.58D-08 MaxDP=1.61D-06 DE=-2.76D-09 OVMax= 6.95D-06

 Cycle  14  Pass 1  IDiag  1:
 RMSU=  1.01D-08    CP:  5.62D-01  1.54D+00  7.24D-01  6.71D-01  8.80D-01
                    CP:  1.03D+00  1.09D+00  9.90D-01  1.16D+00  1.20D+00
                    CP:  1.14D+00  1.26D+00  1.04D+00
 E= -4528.36081199125     Delta-E=       -0.000000000015 Rises=F Damp=F
 DIIS: error= 8.85D-08 at cycle  14 NSaved=  14.
 NSaved=14 IEnMin=14 EnMin= -4528.36081199125     IErMin=14 ErrMin= 8.85D-08
 ErrMax= 8.85D-08  0.00D+00 EMaxC= 1.00D-01 BMatC= 2.32D-11 BMatP= 2.06D-10
 IDIUse=1 WtCom= 1.00D+00 WtEn= 0.00D+00
 Coeff-Com:  0.418D-05-0.936D-05-0.144D-04-0.161D-04-0.988D-06 0.221D-03
 Coeff-Com:  0.874D-03 0.679D-03-0.250D-02-0.875D-02-0.225D-01-0.795D-02
 Coeff-Com:  0.225D+00 0.815D+00
 Coeff:      0.418D-05-0.936D-05-0.144D-04-0.161D-04-0.988D-06 0.221D-03
 Coeff:      0.874D-03 0.679D-03-0.250D-02-0.875D-02-0.225D-01-0.795D-02
 Coeff:      0.225D+00 0.815D+00
 Gap=     0.180 Goal=   None    Shift=    0.000
 RMSDP=1.05D-08 MaxDP=1.09D-06 DE=-1.46D-11 OVMax= 2.09D-06

 Cycle  15  Pass 1  IDiag  1:
 RMSU=  5.96D-09    CP:  5.62D-01  1.54D+00  7.24D-01  6.71D-01  8.80D-01
                    CP:  1.03D+00  1.09D+00  9.90D-01  1.16D+00  1.19D+00
                    CP:  1.14D+00  1.31D+00  1.20D+00  1.12D+00
 E= -4528.36081199117     Delta-E=        0.000000000084 Rises=F Damp=F
 DIIS: error= 3.36D-08 at cycle  15 NSaved=  15.
 NSaved=15 IEnMin=14 EnMin= -4528.36081199125     IErMin=15 ErrMin= 3.36D-08
 ErrMax= 3.36D-08  0.00D+00 EMaxC= 1.00D-01 BMatC= 4.83D-12 BMatP= 2.32D-11
 IDIUse=1 WtCom= 1.00D+00 WtEn= 0.00D+00
 Coeff-Com: -0.524D-06 0.134D-05 0.129D-05-0.500D-05-0.490D-04-0.147D-03
 Coeff-Com:  0.213D-04 0.931D-03 0.332D-02 0.541D-03-0.215D-01-0.624D-01
 Coeff-Com:  0.314D-01 0.424D+00 0.624D+00
 Coeff:     -0.524D-06 0.134D-05 0.129D-05-0.500D-05-0.490D-04-0.147D-03
 Coeff:      0.213D-04 0.931D-03 0.332D-02 0.541D-03-0.215D-01-0.624D-01
 Coeff:      0.314D-01 0.424D+00 0.624D+00
 Gap=     0.180 Goal=   None    Shift=    0.000
 RMSDP=5.04D-09 MaxDP=4.04D-07 DE= 8.37D-11 OVMax= 1.44D-06

 Error on total polarization charges =  0.05398
 SCF Done:  E(RCAM-B3LYP) =  -4528.36081199     A.U. after   15 cycles
            NFock= 15  Conv=0.50D-08     -V/T= 2.0032
 KE= 4.513782098541D+03 PE=-3.565754164986D+04 EE= 1.410170441387D+04
 SMD-CDS (non-electrostatic) energy       (kcal/mol) =     -14.72
 (included in total energy above)
 Leave Link  502 at Sat Mar 27 01:20:42 2021, MaxMem=  5242880000 cpu:    149016.8
 (Enter /opt/nce/packages/global/g09/l801.exe)
 DoSCS=F DFT=T ScalE2(SS,OS)=  1.000000  1.000000
 Range of M.O.s used for correlation:     1  2312
 NBasis=  2312 NAE=   252 NBE=   252 NFC=     0 NFV=     0
 NROrb=   2312 NOA=   252 NOB=   252 NVA=  2060 NVB=  2060

 **** Warning!!: The largest alpha MO coefficient is  0.47990240D+02

 Leave Link  801 at Sat Mar 27 01:20:44 2021, MaxMem=  5242880000 cpu:         5.4
 (Enter /opt/nce/packages/global/g09/l1101.exe)
 Using compressed storage, NAtomX=    98.
 Will process     99 centers per pass.
 PrsmSu:  requested number of processors reduced to:   4 ShMem   1 Linda.
   1 Symmetry operations used in ECPInt.
 ECPInt:  NShTT=  384126 NPrTT= 1231738 LenC2=  252427 LenP2D=  507744.
 LDataN:  DoStor=T MaxTD1= 7 Len=  274
 Number of processors reduced to   2 by ecpmxn.
 R6Disp: Adding Grimme-D3(BJ) dispersion energy 1st derivatives to the gradient.
 Leave Link 1101 at Sat Mar 27 01:21:43 2021, MaxMem=  5242880000 cpu:       547.7
 (Enter /opt/nce/packages/global/g09/l1102.exe)
 Symmetrizing basis deriv contribution to polar:
 IMax=3 JMax=2 DiffMx= 0.00D+00
 Leave Link 1102 at Sat Mar 27 01:21:44 2021, MaxMem=  5242880000 cpu:         9.8
 (Enter /opt/nce/packages/global/g09/l1110.exe)
 Forming Gx(P) for the SCF density, NAtomX=    98.
 Integral derivatives from FoFJK, PRISM(SPDF).
 Do as many integral derivatives as possible in FoFJK.
 G2DrvN: MDV=    5242879112.
 G2DrvN: will do    33 centers at a time, making    3 passes.
 G2DrvN:  IPasSy=1 do centers    0 through   32.
 Calling FoFCou, ICntrl=  3107 FMM=T I1Cent=   0 AccDes= 1.00D-11.
 FoFJK:  IHMeth= 1 ICntrl=    3107 DoSepK=T KAlg= 0 I1Cent=   0 FoldK=F
 IRaf=         1 NMat=   1 IRICut=       1 DoRegI=T DoRafI=F ISym2E= 0.
 FoFCou: FMM=T IPFlag=           0 FMFlag=      100000 FMFlg1=        2001
         NFxFlg=           0 DoJE=F BraDBF=F KetDBF=F FulRan=T
         wScrn=  0.000000 ICntrl=    3507 IOpCl=  0 I1Cent=           0 NGrid=           0
         NMat0=    1 NMatS0=      1 NMatT0=    0 NMatD0=    1 NMtDS0=    0 NMtDT0=    0
 Symmetry not used in FoFCou.
 FMM levels:  10  Number of levels for PrismC:   9
 G2DrvN:  IPasSy=1 do centers   33 through   65.
 Calling FoFCou, ICntrl=  3107 FMM=T I1Cent=   0 AccDes= 1.00D-11.
 G2DrvN:  IPasSy=1 do centers   66 through   98.
 Calling FoFCou, ICntrl=  3107 FMM=T I1Cent=   0 AccDes= 1.00D-11.
 NEqPCM:  Using equilibrium solvation (IEInf=0, Eps=   8.9300, EpsInf=   2.0283)
 G2PCM: DoFxE=T DoFxN=T DoGrad=T DoDP/DQ/DG/TGxP=FFFF NFrqRd=   0 IEInf=0 SqF1=F DoCFld=F IF1Alg=4.
 GePol: Maximum number of non-zero 1st derivatives   =     239
 End of G2Drv F.D. properties file   721 does not exist.
 End of G2Drv F.D. properties file   722 does not exist.
 End of G2Drv F.D. properties file   788 does not exist.
 Leave Link 1110 at Sat Mar 27 09:30:21 2021, MaxMem=  5242880000 cpu:    351006.1
 (Enter /opt/nce/packages/global/g09/l1002.exe)
 Minotr:  Closed shell wavefunction.
          IDoAtm=11111111111111111111111111111111111111111111111111
          IDoAtm=111111111111111111111111111111111111111111111111
 NEqPCM:  Using equilibrium solvation (IEInf=0, Eps=   8.9300, EpsInf=   2.0283)
          Direct CPHF calculation.
          Differentiating once with respect to electric field.
                with respect to dipole field.
          Differentiating once with respect to nuclear coordinates.
          Requested convergence is 1.0D-08 RMS, and 1.0D-07 maximum.
          Secondary convergence is 1.0D-12 RMS, and 1.0D-12 maximum.
          NewPWx=T KeepS1=F KeepF1=F KeepIn=T MapXYZ=F SortEE=F KeepMc=T.
          MDV=    5242876704 using IRadAn=       1.
 Generate precomputed XC quadrature information.
          Solving linear equations simultaneously, MaxMat=      72.
 FoF2E skips out because all densities are zero.
 CalDSu exits because no D1Ps are significant.
 FoFJK:  IHMeth= 1 ICntrl=       0 DoSepK=T KAlg= 0 I1Cent=   0 FoldK=F
 IRaf=         1 NMat=  72 IRICut=       1 DoRegI=T DoRafI=F ISym2E= 0.
          There are   297 degrees of freedom in the 1st order CPHF.  IDoFFX=6 NUNeed=     3.
    297 vectors produced by pass  0 Test12= 5.19D-13 1.00D-09 XBig12= 6.51D+02 1.55D+01.
 AX will form    72 AO Fock derivatives at one time.
    297 vectors produced by pass  1 Test12= 5.19D-13 1.00D-09 XBig12= 7.03D+01 1.78D+00.
    295 vectors produced by pass  2 Test12= 5.19D-13 1.00D-09 XBig12= 2.85D+00 4.72D-01.
    294 vectors produced by pass  3 Test12= 5.19D-13 1.00D-09 XBig12= 5.29D-02 3.14D-02.
    294 vectors produced by pass  4 Test12= 5.19D-13 1.00D-09 XBig12= 5.82D-04 1.79D-03.
    294 vectors produced by pass  5 Test12= 5.19D-13 1.00D-09 XBig12= 4.46D-06 1.66D-04.
    269 vectors produced by pass  6 Test12= 5.19D-13 1.00D-09 XBig12= 2.70D-08 1.37D-05.
    129 vectors produced by pass  7 Test12= 5.19D-13 1.00D-09 XBig12= 1.54D-10 6.59D-07.
     37 vectors produced by pass  8 Test12= 5.19D-13 1.00D-09 XBig12= 9.01D-13 5.33D-08.
      3 vectors produced by pass  9 Test12= 5.19D-13 1.00D-09 XBig12= 6.68D-15 3.82D-09.
 InvSVY:  IOpt=1 It=  1 EMax= 1.78D-14
 Solved reduced A of dimension  2209 with   297 vectors.
 FullF1:  Do perturbations    1 to     3.
 Isotropic polarizability for W=    0.000000     1013.09 Bohr**3.
 End of Minotr F.D. properties file   721 does not exist.
 End of Minotr F.D. properties file   722 does not exist.
 End of Minotr F.D. properties file   788 does not exist.
 Leave Link 1002 at Tue Mar 30 21:59:17 2021, MaxMem=  5242880000 cpu:   3599590.1
 (Enter /opt/nce/packages/global/g09/l601.exe)
 Copying SCF densities to generalized density rwf, IOpCl= 0 IROHF=0.

 **********************************************************************

            Population analysis using the SCF density.

 **********************************************************************

 Alpha  occ. eigenvalues --  -89.12983 -89.12983 -89.12982 -89.12982 -19.20246
 Alpha  occ. eigenvalues --  -19.20245 -19.20245 -19.20245 -19.19878 -19.19878
 Alpha  occ. eigenvalues --  -19.19877 -19.19877 -19.19568 -19.19568 -19.19536
 Alpha  occ. eigenvalues --  -19.19536 -14.45388 -14.45388 -10.38287 -10.38287
 Alpha  occ. eigenvalues --  -10.38065 -10.38065 -10.32302 -10.32300 -10.32271
 Alpha  occ. eigenvalues --  -10.32270 -10.31254 -10.31254 -10.31250 -10.31249
 Alpha  occ. eigenvalues --  -10.30298 -10.30297 -10.30049 -10.30049 -10.29188
 Alpha  occ. eigenvalues --  -10.29188 -10.29188 -10.29187 -10.29052 -10.29052
 Alpha  occ. eigenvalues --  -10.29025 -10.29024 -10.28673 -10.28673 -10.28671
 Alpha  occ. eigenvalues --  -10.28671 -10.27133 -10.27133 -10.26629 -10.26629
 Alpha  occ. eigenvalues --  -10.26628 -10.26628 -10.26580 -10.26580 -10.26580
 Alpha  occ. eigenvalues --  -10.26579 -10.25764 -10.25764 -10.25763 -10.25763
 Alpha  occ. eigenvalues --  -10.25621 -10.25621 -10.25620 -10.25620 -10.25558
 Alpha  occ. eigenvalues --  -10.25558 -10.25557 -10.25557  -8.17982  -8.17982
 Alpha  occ. eigenvalues --   -8.17982  -8.17981  -6.14345  -6.14345  -6.14344
 Alpha  occ. eigenvalues --   -6.14344  -6.14267  -6.14267  -6.14266  -6.14266
 Alpha  occ. eigenvalues --   -6.14245  -6.14245  -6.14244  -6.14244  -1.21378
 Alpha  occ. eigenvalues --   -1.21375  -1.21184  -1.21184  -1.16852  -1.16851
 Alpha  occ. eigenvalues --   -1.14806  -1.14805  -1.10145  -1.10143  -1.10045
 Alpha  occ. eigenvalues --   -1.10045  -1.04509  -1.04274  -1.03517  -1.00974
 Alpha  occ. eigenvalues --   -0.97822  -0.96734  -0.96663  -0.96653  -0.96423
 Alpha  occ. eigenvalues --   -0.95828  -0.95195  -0.90651  -0.89841  -0.88863
 Alpha  occ. eigenvalues --   -0.88223  -0.87130  -0.86961  -0.86179  -0.85864
 Alpha  occ. eigenvalues --   -0.85130  -0.84618  -0.84583  -0.84537  -0.84531
 Alpha  occ. eigenvalues --   -0.82449  -0.81255  -0.80812  -0.78103  -0.77556
 Alpha  occ. eigenvalues --   -0.77000  -0.76732  -0.76259  -0.74750  -0.74155
 Alpha  occ. eigenvalues --   -0.73069  -0.72448  -0.72337  -0.70257  -0.70233
 Alpha  occ. eigenvalues --   -0.70094  -0.69767  -0.69682  -0.68690  -0.68320
 Alpha  occ. eigenvalues --   -0.67847  -0.66817  -0.66011  -0.64653  -0.64483
 Alpha  occ. eigenvalues --   -0.63342  -0.62772  -0.62437  -0.62389  -0.61681
 Alpha  occ. eigenvalues --   -0.61169  -0.60907  -0.58719  -0.58617  -0.58498
 Alpha  occ. eigenvalues --   -0.57704  -0.57546  -0.57370  -0.57082  -0.56963
 Alpha  occ. eigenvalues --   -0.56453  -0.56233  -0.56222  -0.55716  -0.55445
 Alpha  occ. eigenvalues --   -0.55300  -0.55272  -0.54453  -0.54402  -0.54364
 Alpha  occ. eigenvalues --   -0.53972  -0.53948  -0.53832  -0.53767  -0.53456
 Alpha  occ. eigenvalues --   -0.53351  -0.52777  -0.52403  -0.52385  -0.52316
 Alpha  occ. eigenvalues --   -0.52259  -0.52219  -0.51731  -0.51703  -0.51522
 Alpha  occ. eigenvalues --   -0.51310  -0.51085  -0.50605  -0.50379  -0.50361
 Alpha  occ. eigenvalues --   -0.50304  -0.49730  -0.49494  -0.49210  -0.48576
 Alpha  occ. eigenvalues --   -0.48480  -0.48239  -0.47530  -0.46805  -0.46486
 Alpha  occ. eigenvalues --   -0.46343  -0.45884  -0.45845  -0.45818  -0.45381
 Alpha  occ. eigenvalues --   -0.45350  -0.45040  -0.44981  -0.44925  -0.44605
 Alpha  occ. eigenvalues --   -0.44319  -0.43589  -0.42606  -0.42473  -0.42360
 Alpha  occ. eigenvalues --   -0.42324  -0.41844  -0.41779  -0.41680  -0.41589
 Alpha  occ. eigenvalues --   -0.41531  -0.41496  -0.41495  -0.41059  -0.40523
 Alpha  occ. eigenvalues --   -0.40507  -0.39246  -0.39026  -0.39005  -0.38124
 Alpha  occ. eigenvalues --   -0.37837  -0.37693  -0.36994  -0.36839  -0.36729
 Alpha  occ. eigenvalues --   -0.35459  -0.35108  -0.35050  -0.35002  -0.34164
 Alpha  occ. eigenvalues --   -0.33933  -0.33608  -0.33442  -0.33175  -0.33004
 Alpha  occ. eigenvalues --   -0.32908  -0.32874  -0.32009  -0.31969  -0.31926
 Alpha  occ. eigenvalues --   -0.31921  -0.28835
 Alpha virt. eigenvalues --   -0.10808  -0.04901  -0.03688  -0.02637  -0.01932
 Alpha virt. eigenvalues --   -0.00255  -0.00015   0.00380   0.00665   0.00954
 Alpha virt. eigenvalues --    0.02238   0.02317   0.02623   0.02691   0.02711
 Alpha virt. eigenvalues --    0.02955   0.07329   0.07938   0.08253   0.08273
 Alpha virt. eigenvalues --    0.08632   0.08837   0.09116   0.09821   0.10029
 Alpha virt. eigenvalues --    0.10353   0.10408   0.10638   0.10763   0.11005
 Alpha virt. eigenvalues --    0.11202   0.11256   0.11395   0.11540   0.11977
 Alpha virt. eigenvalues --    0.11999   0.12331   0.12362   0.12456   0.12543
 Alpha virt. eigenvalues --    0.13260   0.13468   0.13488   0.14153   0.14239
 Alpha virt. eigenvalues --    0.14417   0.14474   0.14506   0.14598   0.14664
 Alpha virt. eigenvalues --    0.14680   0.14852   0.15378   0.15653   0.15871
 Alpha virt. eigenvalues --    0.15958   0.16158   0.16562   0.16565   0.17140
 Alpha virt. eigenvalues --    0.17141   0.17586   0.17648   0.17921   0.18009
 Alpha virt. eigenvalues --    0.18079   0.18172   0.18292   0.18582   0.18676
 Alpha virt. eigenvalues --    0.19066   0.19267   0.19361   0.19565   0.19893
 Alpha virt. eigenvalues --    0.20008   0.20404   0.20675   0.20883   0.21046
 Alpha virt. eigenvalues --    0.21185   0.21739   0.21818   0.21998   0.22249
 Alpha virt. eigenvalues --    0.22298   0.22640   0.22773   0.22907   0.23449
 Alpha virt. eigenvalues --    0.23771   0.23788   0.23987   0.24301   0.24445
 Alpha virt. eigenvalues --    0.24591   0.24755   0.25404   0.25492   0.25719
 Alpha virt. eigenvalues --    0.25886   0.25949   0.26026   0.26217   0.26416
 Alpha virt. eigenvalues --    0.26518   0.26607   0.26793   0.26848   0.27513
 Alpha virt. eigenvalues --    0.27575   0.27750   0.27899   0.28027   0.28217
 Alpha virt. eigenvalues --    0.28384   0.28396   0.28596   0.28877   0.28918
 Alpha virt. eigenvalues --    0.29211   0.29225   0.29273   0.29833   0.29837
 Alpha virt. eigenvalues --    0.29968   0.30231   0.30474   0.30665   0.30785
 Alpha virt. eigenvalues --    0.31035   0.31116   0.31221   0.31339   0.31543
 Alpha virt. eigenvalues --    0.31751   0.32006   0.32183   0.32511   0.32641
 Alpha virt. eigenvalues --    0.32859   0.32908   0.32944   0.33230   0.33388
 Alpha virt. eigenvalues --    0.33738   0.34204   0.34281   0.34372   0.34440
 Alpha virt. eigenvalues --    0.34481   0.34757   0.34914   0.34965   0.35322
 Alpha virt. eigenvalues --    0.35617   0.36009   0.36395   0.36462   0.36594
 Alpha virt. eigenvalues --    0.36696   0.36815   0.37020   0.37305   0.37432
 Alpha virt. eigenvalues --    0.37465   0.37818   0.38027   0.38079   0.38319
 Alpha virt. eigenvalues --    0.38547   0.38824   0.38845   0.38911   0.38993
 Alpha virt. eigenvalues --    0.39300   0.39419   0.39769   0.40092   0.40349
 Alpha virt. eigenvalues --    0.40598   0.40748   0.40769   0.41132   0.41205
 Alpha virt. eigenvalues --    0.41266   0.41429   0.41570   0.41851   0.42077
 Alpha virt. eigenvalues --    0.42215   0.42253   0.42700   0.42902   0.43001
 Alpha virt. eigenvalues --    0.43052   0.43184   0.43532   0.43576   0.43584
 Alpha virt. eigenvalues --    0.43949   0.44157   0.44289   0.44435   0.44582
 Alpha virt. eigenvalues --    0.44843   0.44863   0.44972   0.45211   0.45362
 Alpha virt. eigenvalues --    0.45471   0.45576   0.45928   0.46005   0.46181
 Alpha virt. eigenvalues --    0.46253   0.46423   0.46444   0.46552   0.46732
 Alpha virt. eigenvalues --    0.47034   0.47120   0.47233   0.47312   0.47335
 Alpha virt. eigenvalues --    0.47483   0.47746   0.48225   0.48250   0.48374
 Alpha virt. eigenvalues --    0.48579   0.48797   0.49039   0.49131   0.49418
 Alpha virt. eigenvalues --    0.49547   0.49618   0.49711   0.49836   0.49891
 Alpha virt. eigenvalues --    0.50032   0.50307   0.50398   0.50485   0.50740
 Alpha virt. eigenvalues --    0.51005   0.51081   0.51243   0.51262   0.51391
 Alpha virt. eigenvalues --    0.51548   0.52034   0.52179   0.52594   0.52660
 Alpha virt. eigenvalues --    0.52816   0.52982   0.53056   0.53443   0.53524
 Alpha virt. eigenvalues --    0.53546   0.53576   0.53747   0.53893   0.54083
 Alpha virt. eigenvalues --    0.54118   0.54461   0.54624   0.54756   0.54793
 Alpha virt. eigenvalues --    0.55076   0.55171   0.55528   0.55657   0.55689
 Alpha virt. eigenvalues --    0.56433   0.56661   0.56921   0.57095   0.57135
 Alpha virt. eigenvalues --    0.57255   0.57465   0.57524   0.57744   0.57877
 Alpha virt. eigenvalues --    0.58172   0.58267   0.58342   0.58600   0.58655
 Alpha virt. eigenvalues --    0.58800   0.59455   0.59806   0.59890   0.60282
 Alpha virt. eigenvalues --    0.60314   0.60502   0.60795   0.60909   0.61237
 Alpha virt. eigenvalues --    0.61350   0.61434   0.61609   0.61661   0.62324
 Alpha virt. eigenvalues --    0.62375   0.62518   0.62641   0.62738   0.62910
 Alpha virt. eigenvalues --    0.63009   0.63107   0.63565   0.63730   0.63808
 Alpha virt. eigenvalues --    0.63889   0.64147   0.64271   0.64702   0.65185
 Alpha virt. eigenvalues --    0.65274   0.65536   0.65581   0.65869   0.65908
 Alpha virt. eigenvalues --    0.66395   0.66682   0.66692   0.67006   0.67170
 Alpha virt. eigenvalues --    0.67449   0.67567   0.67929   0.68181   0.68346
 Alpha virt. eigenvalues --    0.68983   0.68996   0.69223   0.69414   0.69643
 Alpha virt. eigenvalues --    0.69993   0.70225   0.70630   0.70704   0.70787
 Alpha virt. eigenvalues --    0.71261   0.71329   0.71340   0.71615   0.71729
 Alpha virt. eigenvalues --    0.72219   0.72319   0.72567   0.72680   0.72752
 Alpha virt. eigenvalues --    0.72874   0.72961   0.73083   0.73142   0.73756
 Alpha virt. eigenvalues --    0.74165   0.74243   0.74364   0.74635   0.74732
 Alpha virt. eigenvalues --    0.74979   0.75139   0.75204   0.75338   0.75340
 Alpha virt. eigenvalues --    0.76074   0.76460   0.76618   0.76684   0.76797
 Alpha virt. eigenvalues --    0.76827   0.77067   0.77099   0.77288   0.77736
 Alpha virt. eigenvalues --    0.78046   0.78407   0.78526   0.78666   0.78877
 Alpha virt. eigenvalues --    0.79345   0.79368   0.79533   0.79637   0.80184
 Alpha virt. eigenvalues --    0.80260   0.80589   0.80691   0.80906   0.81342
 Alpha virt. eigenvalues --    0.81424   0.81479   0.81672   0.82019   0.82349
 Alpha virt. eigenvalues --    0.82494   0.82551   0.82851   0.82951   0.83137
 Alpha virt. eigenvalues --    0.83219   0.83491   0.83703   0.83723   0.84250
 Alpha virt. eigenvalues --    0.84450   0.84539   0.84568   0.84697   0.84809
 Alpha virt. eigenvalues --    0.84936   0.85046   0.85534   0.85558   0.85900
 Alpha virt. eigenvalues --    0.86405   0.86537   0.86666   0.87058   0.87144
 Alpha virt. eigenvalues --    0.87515   0.87766   0.87803   0.88080   0.88170
 Alpha virt. eigenvalues --    0.88557   0.88826   0.89204   0.89365   0.89587
 Alpha virt. eigenvalues --    0.89958   0.90370   0.90539   0.90774   0.91166
 Alpha virt. eigenvalues --    0.91456   0.91915   0.91959   0.92025   0.92145
 Alpha virt. eigenvalues --    0.92303   0.92490   0.92625   0.93087   0.93088
 Alpha virt. eigenvalues --    0.93449   0.94019   0.94499   0.94552   0.94692
 Alpha virt. eigenvalues --    0.95034   0.95106   0.95123   0.95234   0.95859
 Alpha virt. eigenvalues --    0.95954   0.96109   0.96526   0.96565   0.96777
 Alpha virt. eigenvalues --    0.97037   0.97039   0.97608   0.97702   0.97788
 Alpha virt. eigenvalues --    0.98041   0.98203   0.98674   0.98745   0.99033
 Alpha virt. eigenvalues --    0.99279   0.99473   0.99520   0.99620   1.00119
 Alpha virt. eigenvalues --    1.00166   1.00559   1.00564   1.00944   1.02040
 Alpha virt. eigenvalues --    1.02055   1.02290   1.02849   1.02988   1.03191
 Alpha virt. eigenvalues --    1.03415   1.03654   1.03681   1.03956   1.04198
 Alpha virt. eigenvalues --    1.04841   1.05092   1.05527   1.05842   1.05870
 Alpha virt. eigenvalues --    1.06342   1.06459   1.06638   1.07091   1.07252
 Alpha virt. eigenvalues --    1.07633   1.07907   1.07910   1.08739   1.08815
 Alpha virt. eigenvalues --    1.09042   1.09275   1.09312   1.09630   1.09704
 Alpha virt. eigenvalues --    1.09993   1.10436   1.10511   1.11121   1.11153
 Alpha virt. eigenvalues --    1.11356   1.11408   1.11926   1.12300   1.12710
 Alpha virt. eigenvalues --    1.12950   1.13149   1.13415   1.13704   1.14035
 Alpha virt. eigenvalues --    1.14039   1.14357   1.14461   1.14584   1.14943
 Alpha virt. eigenvalues --    1.15367   1.15490   1.15515   1.15776   1.16072
 Alpha virt. eigenvalues --    1.16395   1.17201   1.17232   1.18197   1.18204
 Alpha virt. eigenvalues --    1.18747   1.19195   1.19453   1.19467   1.19652
 Alpha virt. eigenvalues --    1.19776   1.19947   1.20558   1.20870   1.21085
 Alpha virt. eigenvalues --    1.21125   1.21419   1.21657   1.22162   1.22409
 Alpha virt. eigenvalues --    1.22460   1.22658   1.23254   1.23523   1.23706
 Alpha virt. eigenvalues --    1.23844   1.23903   1.24775   1.25615   1.25832
 Alpha virt. eigenvalues --    1.26165   1.26462   1.26513   1.27121   1.27449
 Alpha virt. eigenvalues --    1.27924   1.27967   1.28360   1.28411   1.28846
 Alpha virt. eigenvalues --    1.29159   1.29319   1.29391   1.29571   1.29754
 Alpha virt. eigenvalues --    1.30017   1.30243   1.30574   1.31001   1.31010
 Alpha virt. eigenvalues --    1.31351   1.31430   1.32055   1.32720   1.32931
 Alpha virt. eigenvalues --    1.33197   1.33520   1.33565   1.33689   1.33814
 Alpha virt. eigenvalues --    1.34018   1.34174   1.34490   1.34539   1.34587
 Alpha virt. eigenvalues --    1.34993   1.35103   1.35585   1.35808   1.35849
 Alpha virt. eigenvalues --    1.35998   1.36446   1.36656   1.36993   1.37030
 Alpha virt. eigenvalues --    1.37315   1.37394   1.37598   1.37873   1.37994
 Alpha virt. eigenvalues --    1.38099   1.38819   1.39252   1.39497   1.39553
 Alpha virt. eigenvalues --    1.39673   1.39781   1.39815   1.40099   1.40337
 Alpha virt. eigenvalues --    1.40489   1.40630   1.41578   1.41834   1.41869
 Alpha virt. eigenvalues --    1.41944   1.42247   1.42734   1.42858   1.43459
 Alpha virt. eigenvalues --    1.43461   1.43859   1.43980   1.44306   1.45128
 Alpha virt. eigenvalues --    1.45565   1.46037   1.46536   1.46750   1.46884
 Alpha virt. eigenvalues --    1.47158   1.47242   1.47275   1.47826   1.47834
 Alpha virt. eigenvalues --    1.48065   1.48445   1.48877   1.48925   1.49143
 Alpha virt. eigenvalues --    1.49373   1.49765   1.50145   1.50353   1.50902
 Alpha virt. eigenvalues --    1.50964   1.51766   1.51779   1.51820   1.51896
 Alpha virt. eigenvalues --    1.52352   1.52544   1.52713   1.52947   1.53747
 Alpha virt. eigenvalues --    1.53755   1.54202   1.54424   1.54613   1.54899
 Alpha virt. eigenvalues --    1.55185   1.55576   1.56141   1.56181   1.56546
 Alpha virt. eigenvalues --    1.56688   1.56921   1.57367   1.57570   1.57659
 Alpha virt. eigenvalues --    1.57862   1.57938   1.57939   1.58316   1.58479
 Alpha virt. eigenvalues --    1.58826   1.58853   1.59773   1.59848   1.60243
 Alpha virt. eigenvalues --    1.60303   1.60326   1.60591   1.60631   1.60794
 Alpha virt. eigenvalues --    1.60860   1.61403   1.61748   1.61863   1.62149
 Alpha virt. eigenvalues --    1.62312   1.62379   1.62403   1.62717   1.62847
 Alpha virt. eigenvalues --    1.63467   1.63595   1.64365   1.64470   1.64528
 Alpha virt. eigenvalues --    1.64721   1.64901   1.65206   1.65227   1.65903
 Alpha virt. eigenvalues --    1.65905   1.66449   1.66981   1.67141   1.67374
 Alpha virt. eigenvalues --    1.67876   1.68176   1.68306   1.68433   1.68524
 Alpha virt. eigenvalues --    1.69006   1.69283   1.69767   1.69796   1.70147
 Alpha virt. eigenvalues --    1.70229   1.70565   1.70933   1.71171   1.71341
 Alpha virt. eigenvalues --    1.71482   1.71597   1.71803   1.71852   1.72082
 Alpha virt. eigenvalues --    1.72589   1.72764   1.72841   1.73089   1.73179
 Alpha virt. eigenvalues --    1.73362   1.73633   1.73780   1.74338   1.74451
 Alpha virt. eigenvalues --    1.74554   1.74779   1.75022   1.75407   1.75595
 Alpha virt. eigenvalues --    1.75786   1.75899   1.76388   1.76485   1.76664
 Alpha virt. eigenvalues --    1.76953   1.77313   1.77526   1.77706   1.78006
 Alpha virt. eigenvalues --    1.78413   1.78960   1.78976   1.79168   1.79208
 Alpha virt. eigenvalues --    1.79254   1.79896   1.80101   1.80347   1.80713
 Alpha virt. eigenvalues --    1.81002   1.81007   1.81142   1.81172   1.81221
 Alpha virt. eigenvalues --    1.81826   1.82266   1.82567   1.82870   1.82995
 Alpha virt. eigenvalues --    1.83019   1.83610   1.84043   1.84064   1.84080
 Alpha virt. eigenvalues --    1.84480   1.84944   1.85524   1.85756   1.85931
 Alpha virt. eigenvalues --    1.85978   1.86229   1.86450   1.86916   1.87560
 Alpha virt. eigenvalues --    1.88051   1.88350   1.88453   1.88792   1.89024
 Alpha virt. eigenvalues --    1.89152   1.89848   1.90464   1.90566   1.90668
 Alpha virt. eigenvalues --    1.91032   1.91080   1.91952   1.92226   1.92258
 Alpha virt. eigenvalues --    1.92435   1.93197   1.93207   1.93568   1.93625
 Alpha virt. eigenvalues --    1.93693   1.94047   1.94231   1.94907   1.95063
 Alpha virt. eigenvalues --    1.95399   1.95947   1.96021   1.96387   1.96966
 Alpha virt. eigenvalues --    1.97849   1.97993   1.98651   1.98948   1.99773
 Alpha virt. eigenvalues --    1.99849   2.00340   2.00504   2.00718   2.00769
 Alpha virt. eigenvalues --    2.01625   2.01632   2.02223   2.02504   2.02946
 Alpha virt. eigenvalues --    2.03022   2.03312   2.03487   2.04101   2.04210
 Alpha virt. eigenvalues --    2.04758   2.04887   2.05599   2.06032   2.06758
 Alpha virt. eigenvalues --    2.06900   2.07283   2.07319   2.07744   2.07849
 Alpha virt. eigenvalues --    2.08026   2.08550   2.08566   2.08983   2.09006
 Alpha virt. eigenvalues --    2.09117   2.09475   2.10136   2.10158   2.10803
 Alpha virt. eigenvalues --    2.11159   2.11201   2.11471   2.11849   2.12084
 Alpha virt. eigenvalues --    2.12380   2.12564   2.13233   2.13245   2.13554
 Alpha virt. eigenvalues --    2.13643   2.13852   2.14201   2.14723   2.14853
 Alpha virt. eigenvalues --    2.15284   2.15334   2.15800   2.16077   2.16096
 Alpha virt. eigenvalues --    2.16345   2.16524   2.17072   2.17140   2.17625
 Alpha virt. eigenvalues --    2.17795   2.17892   2.18307   2.18563   2.19118
 Alpha virt. eigenvalues --    2.19161   2.19557   2.19618   2.19889   2.20215
 Alpha virt. eigenvalues --    2.20625   2.20975   2.21196   2.21325   2.21724
 Alpha virt. eigenvalues --    2.22051   2.22279   2.22581   2.23001   2.23022
 Alpha virt. eigenvalues --    2.23286   2.24286   2.24333   2.24491   2.24914
 Alpha virt. eigenvalues --    2.25028   2.25244   2.25657   2.25947   2.26387
 Alpha virt. eigenvalues --    2.27011   2.27053   2.27100   2.27283   2.27323
 Alpha virt. eigenvalues --    2.27492   2.27868   2.28044   2.28186   2.28688
 Alpha virt. eigenvalues --    2.28902   2.29039   2.29213   2.29580   2.29714
 Alpha virt. eigenvalues --    2.30135   2.30477   2.30701   2.30787   2.31079
 Alpha virt. eigenvalues --    2.31577   2.31878   2.32024   2.32711   2.32798
 Alpha virt. eigenvalues --    2.32994   2.34017   2.34034   2.34691   2.34886
 Alpha virt. eigenvalues --    2.35058   2.35120   2.35362   2.35519   2.35703
 Alpha virt. eigenvalues --    2.35900   2.36792   2.37207   2.37406   2.37529
 Alpha virt. eigenvalues --    2.37838   2.37979   2.38077   2.38332   2.38773
 Alpha virt. eigenvalues --    2.38857   2.39270   2.39625   2.39799   2.39889
 Alpha virt. eigenvalues --    2.40302   2.40592   2.41220   2.41236   2.41423
 Alpha virt. eigenvalues --    2.41739   2.42071   2.42389   2.42705   2.43247
 Alpha virt. eigenvalues --    2.43351   2.44357   2.44675   2.44785   2.45328
 Alpha virt. eigenvalues --    2.45397   2.47812   2.47874   2.47984   2.48344
 Alpha virt. eigenvalues --    2.48710   2.49012   2.49188   2.49719   2.50224
 Alpha virt. eigenvalues --    2.50258   2.50387   2.50516   2.51041   2.51100
 Alpha virt. eigenvalues --    2.52097   2.52270   2.52405   2.52806   2.53006
 Alpha virt. eigenvalues --    2.53412   2.53542   2.53876   2.54100   2.54277
 Alpha virt. eigenvalues --    2.54468   2.54796   2.54947   2.55193   2.55384
 Alpha virt. eigenvalues --    2.55409   2.55796   2.55891   2.55923   2.56700
 Alpha virt. eigenvalues --    2.57396   2.57707   2.57862   2.58432   2.58584
 Alpha virt. eigenvalues --    2.58783   2.58962   2.59356   2.59403   2.59710
 Alpha virt. eigenvalues --    2.60233   2.60407   2.60845   2.61520   2.61729
 Alpha virt. eigenvalues --    2.61824   2.62358   2.62589   2.62634   2.63120
 Alpha virt. eigenvalues --    2.63144   2.63853   2.64032   2.64179   2.64270
 Alpha virt. eigenvalues --    2.64402   2.64522   2.65212   2.65680   2.66129
 Alpha virt. eigenvalues --    2.66146   2.66575   2.66933   2.67402   2.67487
 Alpha virt. eigenvalues --    2.68502   2.69229   2.69329   2.69528   2.69833
 Alpha virt. eigenvalues --    2.69864   2.70298   2.70873   2.71082   2.71315
 Alpha virt. eigenvalues --    2.71663   2.71669   2.71798   2.72146   2.72359
 Alpha virt. eigenvalues --    2.72573   2.72642   2.73049   2.73778   2.73934
 Alpha virt. eigenvalues --    2.74090   2.74162   2.74307   2.74918   2.75050
 Alpha virt. eigenvalues --    2.75268   2.75374   2.75860   2.76141   2.76167
 Alpha virt. eigenvalues --    2.76223   2.76349   2.76641   2.76671   2.76830
 Alpha virt. eigenvalues --    2.76939   2.77308   2.77917   2.78044   2.78261
 Alpha virt. eigenvalues --    2.78406   2.78665   2.79089   2.79191   2.79434
 Alpha virt. eigenvalues --    2.79487   2.79864   2.80414   2.80502   2.80826
 Alpha virt. eigenvalues --    2.80939   2.81056   2.81248   2.81713   2.81850
 Alpha virt. eigenvalues --    2.82182   2.82577   2.82697   2.82864   2.83112
 Alpha virt. eigenvalues --    2.83273   2.83554   2.83933   2.84092   2.84159
 Alpha virt. eigenvalues --    2.84235   2.84776   2.85507   2.85855   2.86089
 Alpha virt. eigenvalues --    2.86298   2.86644   2.86791   2.87180   2.87213
 Alpha virt. eigenvalues --    2.87295   2.87754   2.88045   2.88283   2.88328
 Alpha virt. eigenvalues --    2.88349   2.88937   2.89189   2.89518   2.89534
 Alpha virt. eigenvalues --    2.89905   2.90192   2.90407   2.90432   2.90865
 Alpha virt. eigenvalues --    2.91474   2.91712   2.92057   2.92178   2.92378
 Alpha virt. eigenvalues --    2.92432   2.92526   2.92630   2.92817   2.93111
 Alpha virt. eigenvalues --    2.93276   2.93385   2.93488   2.94038   2.94266
 Alpha virt. eigenvalues --    2.94281   2.94910   2.94914   2.95787   2.95792
 Alpha virt. eigenvalues --    2.95975   2.96077   2.96097   2.96487   2.97116
 Alpha virt. eigenvalues --    2.97158   2.97490   2.97965   2.98138   2.98195
 Alpha virt. eigenvalues --    2.98405   2.98681   2.98775   2.98969   2.99314
 Alpha virt. eigenvalues --    2.99629   2.99729   3.00606   3.00607   3.00974
 Alpha virt. eigenvalues --    3.01054   3.01146   3.01253   3.01923   3.02071
 Alpha virt. eigenvalues --    3.02601   3.03037   3.03214   3.03475   3.03761
 Alpha virt. eigenvalues --    3.04015   3.04361   3.04533   3.04962   3.05231
 Alpha virt. eigenvalues --    3.05436   3.05817   3.06001   3.06713   3.06715
 Alpha virt. eigenvalues --    3.06933   3.07121   3.07433   3.07452   3.07887
 Alpha virt. eigenvalues --    3.08229   3.08698   3.08770   3.09054   3.09340
 Alpha virt. eigenvalues --    3.09609   3.09934   3.10012   3.10215   3.10315
 Alpha virt. eigenvalues --    3.10428   3.11338   3.11610   3.11847   3.12153
 Alpha virt. eigenvalues --    3.12256   3.12713   3.12797   3.13178   3.13394
 Alpha virt. eigenvalues --    3.13687   3.13789   3.13873   3.13960   3.14417
 Alpha virt. eigenvalues --    3.14942   3.15243   3.15283   3.15367   3.15708
 Alpha virt. eigenvalues --    3.16035   3.16339   3.16574   3.16580   3.16780
 Alpha virt. eigenvalues --    3.17995   3.18084   3.18492   3.18607   3.18697
 Alpha virt. eigenvalues --    3.18774   3.19193   3.19519   3.19788   3.19894
 Alpha virt. eigenvalues --    3.20437   3.20758   3.20831   3.21230   3.21318
 Alpha virt. eigenvalues --    3.21546   3.21597   3.21923   3.21958   3.22230
 Alpha virt. eigenvalues --    3.22535   3.22598   3.23120   3.23158   3.23426
 Alpha virt. eigenvalues --    3.23594   3.23806   3.24076   3.24322   3.24513
 Alpha virt. eigenvalues --    3.24746   3.24754   3.25097   3.25304   3.25490
 Alpha virt. eigenvalues --    3.25660   3.25776   3.26110   3.26165   3.26319
 Alpha virt. eigenvalues --    3.26649   3.26773   3.26924   3.27121   3.27454
 Alpha virt. eigenvalues --    3.27484   3.28042   3.28161   3.28255   3.28612
 Alpha virt. eigenvalues --    3.28719   3.29075   3.29372   3.29546   3.29655
 Alpha virt. eigenvalues --    3.30096   3.30493   3.30787   3.30837   3.31185
 Alpha virt. eigenvalues --    3.31978   3.32046   3.32348   3.32421   3.32624
 Alpha virt. eigenvalues --    3.32741   3.32869   3.33204   3.33414   3.33635
 Alpha virt. eigenvalues --    3.33823   3.34026   3.34693   3.34888   3.35081
 Alpha virt. eigenvalues --    3.35108   3.35218   3.35296   3.35446   3.35545
 Alpha virt. eigenvalues --    3.35858   3.35944   3.36160   3.36260   3.36423
 Alpha virt. eigenvalues --    3.36665   3.36900   3.36982   3.37098   3.37670
 Alpha virt. eigenvalues --    3.37839   3.37888   3.38297   3.38442   3.38588
 Alpha virt. eigenvalues --    3.39129   3.39175   3.39412   3.39576   3.40043
 Alpha virt. eigenvalues --    3.40044   3.40836   3.40891   3.41230   3.41526
[...]
 Alpha virt. eigenvalues --    3.46358   3.46519   3.46534   3.46927   3.47105
 Alpha virt. eigenvalues --    3.47253   3.47267   3.47432   3.48027   3.48059
 Alpha virt. eigenvalues --    3.48301   3.48445   3.48747   3.48817   3.48960
 Alpha virt. eigenvalues --    3.49248   3.49549   3.49577   3.50366   3.50453
 Alpha virt. eigenvalues --    3.50610   3.50758   3.51321   3.51506   3.51997
 Alpha virt. eigenvalues --    3.52344   3.52488   3.52852   3.52892   3.52999
 Alpha virt. eigenvalues --    3.53175   3.53439   3.53449   3.53796   3.53930
 Alpha virt. eigenvalues --    3.54028   3.54636   3.54714   3.54995   3.55363
 Alpha virt. eigenvalues --    3.55581   3.55741   3.55926   3.56138   3.56547
 Alpha virt. eigenvalues --    3.56563   3.56924   3.56981   3.57439   3.57451
 Alpha virt. eigenvalues --    3.57718   3.57951   3.58123   3.58320   3.58395
 Alpha virt. eigenvalues --    3.58477   3.59032   3.59273   3.59771   3.59920
 Alpha virt. eigenvalues --    3.60484   3.60772   3.61073   3.61082   3.61428
 Alpha virt. eigenvalues --    3.61499   3.61912   3.61917   3.62655   3.62823
 Alpha virt. eigenvalues --    3.62906   3.63340   3.63673   3.63980   3.64122
 Alpha virt. eigenvalues --    3.64322   3.64627   3.64838   3.65080   3.65124
 Alpha virt. eigenvalues --    3.65240   3.65270   3.65931   3.66198   3.66494
 Alpha virt. eigenvalues --    3.66507   3.67545   3.67618   3.67744   3.67919
 Alpha virt. eigenvalues --    3.68126   3.68237   3.68872   3.69088   3.69569
 Alpha virt. eigenvalues --    3.70475   3.70576   3.70734   3.70832   3.71393
 Alpha virt. eigenvalues --    3.71815   3.71847   3.72361   3.72620   3.72845
 Alpha virt. eigenvalues --    3.73042   3.73561   3.73737   3.74058   3.74791
 Alpha virt. eigenvalues --    3.75599   3.75982   3.76080   3.76217   3.76417
 Alpha virt. eigenvalues --    3.76677   3.76945   3.77285   3.77612   3.77976
 Alpha virt. eigenvalues --    3.78199   3.78605   3.79351   3.79514   3.80924
 Alpha virt. eigenvalues --    3.81306   3.82067   3.82208   3.82711   3.83041
 Alpha virt. eigenvalues --    3.83475   3.83792   3.83850   3.84411   3.84755
 Alpha virt. eigenvalues --    3.85260   3.85540   3.85973   3.86086   3.86227
 Alpha virt. eigenvalues --    3.87182   3.87262   3.87473   3.87671   3.88005
 Alpha virt. eigenvalues --    3.88041   3.89253   3.90018   3.91257   3.92228
 Alpha virt. eigenvalues --    3.92348   3.92486   3.92766   3.92935   3.93727
 Alpha virt. eigenvalues --    3.94706   3.94840   3.95388   3.95578   3.96027
 Alpha virt. eigenvalues --    3.96440   3.97235   3.97250   3.98766   3.98776
 Alpha virt. eigenvalues --    4.00005   4.00916   4.01306   4.01999   4.03132
 Alpha virt. eigenvalues --    4.03239   4.03597   4.03934   4.04884   4.05010
 Alpha virt. eigenvalues --    4.05216   4.05235   4.06453   4.06816   4.06843
 Alpha virt. eigenvalues --    4.08264   4.09140   4.10270   4.10315   4.10393
 Alpha virt. eigenvalues --    4.10748   4.11196   4.12058   4.12228   4.12351
 Alpha virt. eigenvalues --    4.12370   4.12884   4.14406   4.14559   4.14800
 Alpha virt. eigenvalues --    4.14902   4.15274   4.16069   4.16419   4.16509
 Alpha virt. eigenvalues --    4.16517   4.16654   4.17087   4.17793   4.17973
 Alpha virt. eigenvalues --    4.18361   4.18622   4.18989   4.19960   4.20450
 Alpha virt. eigenvalues --    4.20592   4.20632   4.20809   4.21024   4.21714
 Alpha virt. eigenvalues --    4.22376   4.22902   4.23036   4.24559   4.24794
 Alpha virt. eigenvalues --    4.25032   4.25452   4.26157   4.26160   4.26608
 Alpha virt. eigenvalues --    4.26875   4.27283   4.27599   4.27773   4.27917
 Alpha virt. eigenvalues --    4.28373   4.28600   4.28738   4.28980   4.29236
 Alpha virt. eigenvalues --    4.29379   4.29444   4.30090   4.30518   4.30544
 Alpha virt. eigenvalues --    4.30613   4.30947   4.31160   4.31350   4.31921
 Alpha virt. eigenvalues --    4.31935   4.32861   4.32991   4.33081   4.33085
 Alpha virt. eigenvalues --    4.33118   4.33401   4.33607   4.33760   4.34583
 Alpha virt. eigenvalues --    4.35903   4.36155   4.36877   4.37096   4.37152
 Alpha virt. eigenvalues --    4.37300   4.37479   4.37809   4.38799   4.39523
 Alpha virt. eigenvalues --    4.39529   4.39620   4.40084   4.40284   4.40334
 Alpha virt. eigenvalues --    4.40599   4.40635   4.41050   4.41818   4.42628
 Alpha virt. eigenvalues --    4.42953   4.43555   4.43843   4.43980   4.44632
 Alpha virt. eigenvalues --    4.44783   4.45090   4.45157   4.45309   4.45846
 Alpha virt. eigenvalues --    4.46495   4.47031   4.47543   4.48476   4.48483
 Alpha virt. eigenvalues --    4.49224   4.50166   4.50253   4.51383   4.52464
 Alpha virt. eigenvalues --    4.52850   4.53022   4.53087   4.54658   4.54707
 Alpha virt. eigenvalues --    4.55980   4.57087   4.57596   4.58768   4.58908
 Alpha virt. eigenvalues --    4.59328   4.61026   4.61575   4.62087   4.63922
 Alpha virt. eigenvalues --    4.64203   4.65283   4.65590   4.66059   4.66871
 Alpha virt. eigenvalues --    4.68016   4.68492   4.69280   4.70230   4.71232
 Alpha virt. eigenvalues --    4.71397   4.71596   4.71695   4.72478   4.73112
 Alpha virt. eigenvalues --    4.73345   4.74274   4.74448   4.74803   4.75943
 Alpha virt. eigenvalues --    4.76515   4.77280   4.77379   4.77476   4.77872
 Alpha virt. eigenvalues --    4.78192   4.79268   4.79292   4.80401   4.80417
 Alpha virt. eigenvalues --    4.80671   4.80911   4.81475   4.81580   4.82208
 Alpha virt. eigenvalues --    4.84187   4.85070   4.85226   4.85364   4.86044
 Alpha virt. eigenvalues --    4.88890   4.91127   4.92060   4.94948   4.95190
 Alpha virt. eigenvalues --    4.96245   4.96376   4.96437   4.96818   4.97182
 Alpha virt. eigenvalues --    4.98038   4.98307   4.99236   4.99334   4.99385
 Alpha virt. eigenvalues --    4.99484   4.99546   4.99901   5.00878   5.00937
 Alpha virt. eigenvalues --    5.01152   5.01335   5.01405   5.01902   5.02552
 Alpha virt. eigenvalues --    5.06772   5.07183   5.08593   5.10279   5.10475
 Alpha virt. eigenvalues --    5.12684   5.15339   5.15456   5.16649   5.16731
 Alpha virt. eigenvalues --    5.17145   5.17805   5.18279   5.18789   5.19732
 Alpha virt. eigenvalues --    5.21288   5.21820   5.21910   5.22245   5.22605
 Alpha virt. eigenvalues --    5.22755   5.22892   5.22893   5.22935   5.23284
 Alpha virt. eigenvalues --    5.23640   5.23819   5.24001   5.24045   5.24081
 Alpha virt. eigenvalues --    5.24169   5.24664   5.25442   5.25464   5.25822
 Alpha virt. eigenvalues --    5.26085   5.26285   5.26418   5.26655   5.26816
 Alpha virt. eigenvalues --    5.26960   5.27420   5.27668   5.27945   5.28200
 Alpha virt. eigenvalues --    5.28325   5.28406   5.28735   5.29760   5.29836
 Alpha virt. eigenvalues --    5.30028   5.30422   5.30800   5.31359   5.32027
 Alpha virt. eigenvalues --    5.32333   5.33326   5.33719   5.34081   5.34397
 Alpha virt. eigenvalues --    5.35762   5.36391   5.37442   5.37651   5.38069
 Alpha virt. eigenvalues --    5.39245   5.39368   5.39680   5.39796   5.39959
 Alpha virt. eigenvalues --    5.39992   5.40683   5.40765   5.41088   5.41265
 Alpha virt. eigenvalues --    5.42205   5.42812   5.44146   5.44768   5.45596
 Alpha virt. eigenvalues --    5.45986   5.46695   5.46921   5.47093   5.47704
 Alpha virt. eigenvalues --    5.48016   5.48542   5.49197   5.50135   5.50359
 Alpha virt. eigenvalues --    5.50578   5.51407   5.52010   5.52616   5.54841
 Alpha virt. eigenvalues --    5.58255   5.59627   5.59954   5.62929   5.63560
 Alpha virt. eigenvalues --    5.63635   5.63895   5.64202   5.64347   5.64868
 Alpha virt. eigenvalues --    5.64951   5.64977   5.65503   5.65863   5.66320
 Alpha virt. eigenvalues --    5.66939   5.67396   5.68403   5.68495   5.68998
 Alpha virt. eigenvalues --    5.69600   5.69635   5.70463   5.70502   5.71494
 Alpha virt. eigenvalues --    5.71684   5.72218   5.72631   5.72792   5.74284
 Alpha virt. eigenvalues --    5.74481   5.75454   5.76055   5.77890   5.77911
 Alpha virt. eigenvalues --    5.78034   5.79094   5.81221   5.84336   5.84440
 Alpha virt. eigenvalues --    5.84726   5.85336   5.86286   5.87132   5.90137
 Alpha virt. eigenvalues --    5.92173   5.92667   5.95685   5.98308   6.05739
 Alpha virt. eigenvalues --    6.17215   6.17235   6.25266   6.25317   6.27275
 Alpha virt. eigenvalues --    6.30963   6.31303   6.44828   6.44900   6.45774
 Alpha virt. eigenvalues --    6.45823   6.45958   6.46161   6.47019   6.47324
 Alpha virt. eigenvalues --    6.47506   6.47773   6.47889   6.48570   6.48817
 Alpha virt. eigenvalues --    6.49622   6.53079   6.54743   6.54898   6.55319
 Alpha virt. eigenvalues --    6.58330   6.58347   6.61801   6.62695   6.63046
 Alpha virt. eigenvalues --    6.63387   6.72452   6.72889   6.73380   6.73738
 Alpha virt. eigenvalues --    6.82030   6.83182   6.83540   6.83621   6.83648
 Alpha virt. eigenvalues --    6.83928   6.85110   6.85147   6.85198   6.85366
 Alpha virt. eigenvalues --    6.88467   6.88526   6.89088   6.89135   6.93177
 Alpha virt. eigenvalues --    6.93248   6.93894   6.94059   6.94340   6.94647
 Alpha virt. eigenvalues --    6.95079   6.95101   7.01058   7.01401   7.02461
 Alpha virt. eigenvalues --    7.02575   7.09093   7.09288   7.09484   7.10353
 Alpha virt. eigenvalues --    7.12608   7.13597   7.16939   7.17269   7.18387
 Alpha virt. eigenvalues --    7.18550   7.26390   7.28048   7.32621   7.33382
 Alpha virt. eigenvalues --    9.62994   9.62998   9.64425   9.64585   9.66534
 Alpha virt. eigenvalues --    9.67827   9.71617   9.72139   9.83616   9.84416
 Alpha virt. eigenvalues --    9.87707   9.87735  22.09753  22.09907  22.37553
 Alpha virt. eigenvalues --   22.38140  22.38148  22.47656  22.48961  22.49705
 Alpha virt. eigenvalues --   22.50323  22.54521  22.54953  22.69534  22.69695
 Alpha virt. eigenvalues --   22.70271  22.70647  22.71050  22.71806  22.71849
 Alpha virt. eigenvalues --   22.75161  22.76573  22.82967  22.83049  22.85219
 Alpha virt. eigenvalues --   22.85260  22.91315  22.91545  22.92214  22.96738
 Alpha virt. eigenvalues --   22.97707  22.98920  23.02851  23.06494  23.07399
 Alpha virt. eigenvalues --   23.09944  23.13538  23.14610  23.16851  23.17451
 Alpha virt. eigenvalues --   23.20457  23.21569  23.26600  23.26747  23.29437
 Alpha virt. eigenvalues --   23.30256  23.32716  23.38152  23.43133  23.51658
 Alpha virt. eigenvalues --   23.56697  23.57171  23.58954  23.73854  24.02597
 Alpha virt. eigenvalues --   24.19921  33.01401  33.02879  43.91546  43.92525
 Alpha virt. eigenvalues --   43.92616  43.94750  44.02702  44.03755  44.05652
 Alpha virt. eigenvalues --   44.06055  44.07973  44.09360  44.10531  44.12314
          Condensed to atoms (all electrons):
 Mulliken charges:
               1
     1  C   -0.068163
     2  C    0.155933
     3  C   -0.036748
     4  C    0.086287
     5  C    0.068109
     6  C   -0.293838
     7  C    0.154510
     8  C    0.068120
     9  H    0.208932
    10  C   -0.292057
    11  C   -0.067984
    12  H    0.209575
    13  C    0.154418
    14  C   -0.036698
    15  C   -0.067919
    16  C    0.155955
    17  C    0.086270
    18  C   -0.292030
    19  C   -0.068194
    20  C    0.068099
    21  C    0.068127
    22  H    0.209545
    23  C   -0.293785
    24  H    0.208882
    25  C    0.229773
    26  O   -0.341970
    27  C    0.223984
    28  O   -0.348231
    29  N   -0.076988
    30  C    0.229784
    31  O   -0.341970
    32  C    0.223989
    33  O   -0.348230
    34  N   -0.076987
    35  C   -0.317167
    36  H    0.160182
    37  H    0.170143
    38  H    0.160601
    39  C   -0.317166
    40  H    0.160182
    41  H    0.170142
    42  H    0.160602
    43  S    0.821983
    44  S    0.821886
    45  S    0.821990
    46  S    0.821900
    47  O   -0.500298
    48  O   -0.475996
    49  O   -0.476029
    50  O   -0.500228
    51  O   -0.500237
    52  O   -0.476022
    53  O   -0.500278
    54  O   -0.475999
    55  C    0.071888
    56  C   -0.226783
    57  C   -0.109969
    58  C   -0.156202
    59  H    0.168223
    60  C   -0.190800
    61  H    0.203286
    62  C   -0.131315
    63  H    0.166491
    64  H    0.166054
    65  H    0.166884
    66  C    0.071454
    67  C   -0.226701
    68  C   -0.109668
    69  C   -0.156225
    70  H    0.168224
    71  C   -0.190827
    72  H    0.203468
    73  C   -0.131236
    74  H    0.166477
    75  H    0.166048
    76  H    0.166877
    77  C    0.071840
    78  C   -0.226750
    79  C   -0.109995
    80  C   -0.156175
    81  H    0.168228
    82  C   -0.190785
    83  H    0.203311
    84  C   -0.131326
    85  H    0.166491
    86  H    0.166054
    87  H    0.166883
    88  C    0.071502
    89  C   -0.226732
    90  C   -0.109714
    91  C   -0.156215
    92  H    0.168218
    93  C   -0.190780
    94  H    0.203446
    95  C   -0.131257
    96  H    0.166483
    97  H    0.166051
    98  H    0.166879
 Sum of Mulliken charges =  -0.00000
 Mulliken charges with hydrogens summed into heavy atoms:
               1
     1  C   -0.068163
     2  C    0.155933
     3  C   -0.036748
     4  C    0.086287
     5  C    0.068109
     6  C   -0.084906
     7  C    0.154510
     8  C    0.068120
    10  C   -0.082482
    11  C   -0.067984
    13  C    0.154418
    14  C   -0.036698
    15  C   -0.067919
    16  C    0.155955
    17  C    0.086270
    18  C   -0.082484
    19  C   -0.068194
    20  C    0.068099
    21  C    0.068127
    23  C   -0.084903
    25  C    0.229773
    26  O   -0.341970
    27  C    0.223984
    28  O   -0.348231
    29  N   -0.076988
    30  C    0.229784
    31  O   -0.341970
    32  C    0.223989
    33  O   -0.348230
    34  N   -0.076987
    35  C    0.173759
    39  C    0.173761
    43  S    0.821983
    44  S    0.821886
    45  S    0.821990
    46  S    0.821900
    47  O   -0.500298
    48  O   -0.475996
    49  O   -0.476029
    50  O   -0.500228
    51  O   -0.500237
    52  O   -0.476022
    53  O   -0.500278
    54  O   -0.475999
    55  C    0.071888
    56  C   -0.058560
    57  C    0.093316
    58  C    0.010290
    60  C   -0.024746
    62  C    0.035569
    66  C    0.071454
    67  C   -0.058478
    68  C    0.093801
    69  C    0.010252
    71  C   -0.024778
    73  C    0.035641
    77  C    0.071840
    78  C   -0.058521
    79  C    0.093316
    80  C    0.010315
    82  C   -0.024730
    84  C    0.035558
    88  C    0.071502
    89  C   -0.058514
    90  C    0.093731
    91  C    0.010268
    93  C   -0.024730
    95  C    0.035621
 Electronic spatial extent (au):  <R**2>=          51652.1712
 Charge=             -0.0000 electrons
 Dipole moment (field-independent basis, Debye):
    X=             -0.0013    Y=             -0.0013    Z=              0.0140  Tot=              0.0141
 Quadrupole moment (field-independent basis, Debye-Ang):
   XX=           -279.5585   YY=           -412.0247   ZZ=           -472.4118
   XY=              0.1779   XZ=              0.0033   YZ=             -0.0065
 Traceless Quadrupole moment (field-independent basis, Debye-Ang):
   XX=            108.4398   YY=            -24.0264   ZZ=            -84.4135
   XY=              0.1779   XZ=              0.0033   YZ=             -0.0065
 Octapole moment (field-independent basis, Debye-Ang**2):
  XXX=             -0.0821  YYY=              0.0155  ZZZ=              1.6075  XYY=              0.0403
  XXY=             -0.0671  XXZ=             -0.9819  XZZ=             -0.0440  YZZ=             -0.0184
  YYZ=             -0.4964  XYZ=            181.5276
 Hexadecapole moment (field-independent basis, Debye-Ang**3):
 XXXX=         -31712.2363 YYYY=         -20702.7009 ZZZZ=          -5477.3978 XXXY=              5.1430
 XXXZ=              0.5585 YYYX=             16.7092 YYYZ=              0.7534 ZZZX=              0.4331
 ZZZY=              0.8764 XXYY=         -10928.5295 XXZZ=          -8568.6537 YYZZ=          -4594.5323
 XXYZ=              0.2877 YYXZ=              0.0708 ZZXY=             -2.1803
 N-N= 1.251369432546D+04 E-N=-3.565754162725D+04  KE= 4.513782097321D+03
 Leave Link  601 at Thu Apr  1 21:33:30 2021, MaxMem=  5242880000 cpu:        27.1
 (Enter /opt/nce/packages/global/g09/l9999.exe)
 1\1\GINC-CN083\SP\RCAM-B3LYP TD-FC\Gen\C50H30N2O12S4\PNG4RJV\01-Apr-20
 21\0\\#p cam-b3lyp chkbasis geom=allcheck Guess=Read int=ultrafine scr
 f=(SMD,solvent=dichloromethane) td=(NStates=30) EmpiricalDispersion=GD
 3BJ\\Title\\0,1\C,-2.220606,1.406148,0.880068\C,-1.218971,0.701439,0.2
 3337\C,-0.000361,1.398838,-0.000774\C,-0.000857,2.801945,-0.001451\C,-
 1.095457,3.498123,0.529528\C,-2.133323,2.79511,1.064109\C,1.218548,0.7
 019,-0.233928\C,1.092998,3.499735,-0.532551\H,-2.90921,3.325099,1.5969
 67\C,2.13119,2.795851,-1.065918\C,2.219603,1.407153,-0.880899\H,2.9069
 71,3.325714,-1.598925\C,-1.218575,-0.701896,-0.233651\C,0.00035,-1.398
 772,-0.000411\C,-2.219659,-1.407294,-0.880419\C,1.218984,-0.701316,0.2
 33449\C,0.000848,-2.801875,-0.000749\C,-2.131221,-2.796027,-1.065169\C
 ,2.220687,-1.405866,0.880222\C,1.095469,-3.49792,0.530354\C,-1.093022,
 -3.499789,-0.531652\H,-2.907013,-3.326012,-1.598036\C,2.133374,-2.7947
 73,1.064686\H,2.909291,-3.324637,1.597626\C,-1.087257,4.974306,0.56613
 8\O,-1.990949,5.613354,1.058151\C,1.090956,4.977818,-0.574367\O,2.0021
 53,5.60093,-1.071868\N,-0.000442,5.618502,-0.003397\C,1.08727,-4.97409
 4,0.567321\O,1.990977,-5.613022,1.059463\C,-1.09098,-4.977883,-0.57311
 3\O,-2.00215,-5.601112,-1.070517\N,0.000451,-5.618428,-0.002051\C,-0.0
 32212,7.076685,0.012865\H,-0.91201,7.432129,-0.519158\H,0.865165,7.441
 643,-0.470676\H,-0.073322,7.433477,1.039728\C,0.032249,-7.076608,0.014
 51\H,0.912043,-7.432145,-0.517458\H,-0.865131,-7.441682,-0.468937\H,0.
 073384,-7.433189,1.041445\S,-3.529527,-0.639525,-1.811996\S,-3.529462,
 0.637434,1.812244\S,3.529489,0.639201,-1.812302\S,3.529681,-0.636897,1
 .811999\O,3.456442,-0.786049,-1.646267\O,3.375926,1.162848,-3.145059\O
 ,3.375787,-1.16033,3.144804\O,3.455895,0.788271,1.645662\O,-3.455565,-
 0.787791,1.64642\O,-3.375477,1.161406,3.144827\O,-3.456503,0.785749,-1
 .646185\O,-3.375873,-1.163338,-3.144678\C,5.089445,-1.217557,1.209302\
 C,6.196216,-0.623229,1.802227\C,5.231699,-2.23432,0.282935\C,7.459882,
 -1.064247,1.463358\H,6.072047,0.176355,2.51984\C,6.50506,-2.668443,-0.
 046252\H,4.377174,-2.677126,-0.201298\C,7.61482,-2.089646,0.542879\H,8
 .326067,-0.602033,1.916883\H,6.623594,-3.460962,-0.772683\H,8.606708,-
 2.432278,0.279248\C,5.088615,1.220582,-1.208692\C,6.196045,0.626199,-1
 .800318\C,5.22978,2.23797,-0.282852\C,7.459299,1.067763,-1.460623\H,6.
 072702,-0.173877,-2.517521\C,6.502737,2.672621,0.047195\H,4.374694,2.6
 80852,0.200347\C,7.613162,2.093744,-0.540612\H,8.326,0.605502,-1.91311
 2\H,6.620431,3.465613,0.773248\H,8.604731,2.436777,-0.276301\C,-5.0893
 1,1.21775,1.209456\C,-6.195988,0.623138,1.80226\C,-5.23171,2.234553,0.
 283155\C,-7.459728,1.063899,1.463322\H,-6.071693,-0.176477,2.519814\C,
 -6.50514,2.66841,-0.046109\H,-4.377236,2.677592,-0.200965\C,-7.61482,2
 .089321,0.542893\H,-8.325845,0.601468,1.916754\H,-6.623795,3.460952,-0
 .772496\H,-8.606763,2.431748,0.279204\C,-5.088712,-1.220827,-1.208432\
 C,-6.19607,-0.626734,-1.800492\C,-5.230008,-2.237818,-0.282173\C,-7.45
 9369,-1.068198,-1.460836\H,-6.072637,0.173038,-2.51802\C,-6.503009,-2.
 672381,0.047826\H,-4.375001,-2.68045,0.201388\C,-7.613354,-2.0938,-0.5
 40419\H,-8.326008,-0.606162,-1.913675\H,-6.620802,-3.465062,0.774203\H
 ,-8.604955,-2.436758,-0.276135\\Version=ES64L-G09RevE.01\State=1-A\HF=
 -4528.3608121\RMSD=7.825e-09\PG=C01 [X(C50H30N2O12S4)]\\@


      LET US REMEMBER, PLEASE, THAT THE SEARCH FOR THE CONSTITUTION
      OF THE WORLD IS ONE OF THE GREATEST AND NOBLEST PROBLEMS PRESENTED 
      BY NATURE.

                                                  -- GALILEO
 Job cpu time:      18 days  5 hours 44 minutes 53.8 seconds.
 File lengths (MBytes):  RWF=  23533 Int=      0 D2E=      0 Chk=   4698 Scr=      1
 Normal termination of Gaussian 09 at Thu Apr  1 21:33:38 2021.
