 Entering Gaussian System, Link 0=g09
 Input=/Lustre01/home/png4rjv/fotokatalizis/benchmark/OPCs/RESTART_PDI_3_solvent_TD/PDI_3_M06_def2TZVP_TD.gjf
 Output=/Lustre01/home/png4rjv/fotokatalizis/benchmark/OPCs/RESTART_PDI_3_solvent_TD/PDI_3_M06_def2TZVP_TD.log
 Initial command:
 /opt/nce/packages/global/g09/l1.exe "/Lustre01/home/png4rjv/fotokatalizis/benchmark/OPCs/RESTART_PDI_3_solvent_TD/PDI_3_M06_def2TZVP_TD/Gau-59487.inp" -scrdir="/Lustre01/home/png4rjv/fotokatalizis/benchmark/OPCs/RESTART_PDI_3_solvent_TD/PDI_3_M06_def2TZVP_TD/"
 Default is to use a total of  12 processors:
                               12 via shared-memory
                                1 via Linda
 Entering Link 1 = /opt/nce/packages/global/g09/l1.exe PID=     59488.
  
 Copyright (c) 1988,1990,1992,1993,1995,1998,2003,2009,2015,
            Gaussian, Inc.  All Rights Reserved.
  
 This is part of the Gaussian(R) 09 program.  It is based on
 the Gaussian(R) 03 system (copyright 2003, Gaussian, Inc.),
 the Gaussian(R) 98 system (copyright 1998, Gaussian, Inc.),
 the Gaussian(R) 94 system (copyright 1995, Gaussian, Inc.),
 the Gaussian 92(TM) system (copyright 1992, Gaussian, Inc.),
 the Gaussian 90(TM) system (copyright 1990, Gaussian, Inc.),
 the Gaussian 88(TM) system (copyright 1988, Gaussian, Inc.),
 the Gaussian 86(TM) system (copyright 1986, Carnegie Mellon
 University), and the Gaussian 82(TM) system (copyright 1983,
 Carnegie Mellon University). Gaussian is a federally registered
 trademark of Gaussian, Inc.
  
 This software contains proprietary and confidential information,
 including trade secrets, belonging to Gaussian, Inc.
  
 This software is provided under written license and may be
 used, copied, transmitted, or stored only in accord with that
 written license.
  
 The following legend is applicable only to US Government
 contracts under FAR:
  
                    RESTRICTED RIGHTS LEGEND
  
 Use, reproduction and disclosure by the US Government is
 subject to restrictions as set forth in subparagraphs (a)
 and (c) of the Commercial Computer Software - Restricted
 Rights clause in FAR 52.227-19.
  
 Gaussian, Inc.
 340 Quinnipiac St., Bldg. 40, Wallingford CT 06492
  
  
 ---------------------------------------------------------------
 Warning -- This program may not be used in any manner that
 competes with the business of Gaussian, Inc. or will provide
 assistance to any competitor of Gaussian, Inc.  The licensee
 of this program is prohibited from giving any competitor of
 Gaussian, Inc. access to this program.  By using this program,
 the user acknowledges that Gaussian, Inc. is engaged in the
 business of creating and licensing software in the field of
 computational chemistry and represents and warrants to the
 licensee that it is not a competitor of Gaussian, Inc. and that
 it will not use this program in any manner prohibited above.
 ---------------------------------------------------------------
  

 Cite this work as:
 Gaussian 09, Revision E.01,
 M. J. Frisch, G. W. Trucks, H. B. Schlegel, G. E. Scuseria, 
 M. A. Robb, J. R. Cheeseman, G. Scalmani, V. Barone, B. Mennucci, 
 G. A. Petersson, H. Nakatsuji, M. Caricato, X. Li, H. P. Hratchian, 
 A. F. Izmaylov, J. Bloino, G. Zheng, J. L. Sonnenberg, M. Hada, 
 M. Ehara, K. Toyota, R. Fukuda, J. Hasegawa, M. Ishida, T. Nakajima, 
 Y. Honda, O. Kitao, H. Nakai, T. Vreven, J. A. Montgomery, Jr., 
 J. E. Peralta, F. Ogliaro, M. Bearpark, J. J. Heyd, E. Brothers, 
 K. N. Kudin, V. N. Staroverov, T. Keith, R. Kobayashi, J. Normand, 
 K. Raghavachari, A. Rendell, J. C. Burant, S. S. Iyengar, J. Tomasi, 
 M. Cossi, N. Rega, J. M. Millam, M. Klene, J. E. Knox, J. B. Cross, 
 V. Bakken, C. Adamo, J. Jaramillo, R. Gomperts, R. E. Stratmann, 
 O. Yazyev, A. J. Austin, R. Cammi, C. Pomelli, J. W. Ochterski, 
 R. L. Martin, K. Morokuma, V. G. Zakrzewski, G. A. Voth, 
 P. Salvador, J. J. Dannenberg, S. Dapprich, A. D. Daniels, 
 O. Farkas, J. B. Foresman, J. V. Ortiz, J. Cioslowski, 
 and D. J. Fox, Gaussian, Inc., Wallingford CT, 2013.
 
 ******************************************
 Gaussian 09:  ES64L-G09RevE.01 30-Nov-2015
                 2-Jul-2022 
 ******************************************
 %chk=cp.chk
 Default route:  MaxDisk=500GB
 ----------------------------------------------------------------------
 #p m06/def2TZVP int=ultrafine scrf=(SMD,solvent=dichloromethane) td=(N
 States=30)
 ----------------------------------------------------------------------
 1/38=1/1;
 2/12=2,17=6,18=5,40=1/2;
 3/5=44,7=101,11=9,16=1,25=1,30=1,70=32201,72=9,74=-54,75=-5/1,2,8,3;
 4//1;
 5/5=2,38=5,53=9/2;
 8/6=1,10=1,108=30/1;
 9/41=30,42=1,70=2/14;
 6/7=2,8=2,9=2,10=2/1;
 99/5=1,9=1/99;
 Leave Link    1 at Sat Jul  2 02:19:53 2022, MaxMem=           0 cpu:         1.9
 (Enter /opt/nce/packages/global/g09/l101.exe)
 -----
 Title
 -----
 Symbolic Z-matrix:
 Charge =  0 Multiplicity = 1
 C                    -2.22705   1.40613   0.87491 
 C                    -1.21858   0.69838   0.23028 
 C                    -0.00042   1.39624  -0.00034 
 C                    -0.00099   2.80345  -0.00048 
 C                    -1.09854   3.49991   0.52252 
 C                    -2.14005   2.79243   1.05493 
 C                     1.2181    0.69915  -0.23049 
 C                     1.09566   3.50212  -0.52309 
 H                    -2.91734   3.32545   1.59056 
 C                     2.13749   2.79424  -1.05496 
 C                     2.22584   1.40809  -0.87493 
 H                     2.91457   3.32759  -1.59045 
 C                    -1.21805  -0.69908  -0.23081 
 C                     0.00045  -1.39627  -0.00086 
 C                    -2.22576  -1.40775  -0.87558 
 C                     1.21862  -0.69851   0.23002 
 C                     0.00095  -2.80348  -0.00146 
 C                    -2.13749  -2.79386  -1.056 
 C                     2.22709  -1.40653   0.87434 
 C                     1.09846  -3.50015   0.52134 
 C                    -1.09573  -3.50194  -0.5243 
 H                    -2.91459  -3.32701  -1.59167 
 C                     2.14002  -2.79288   1.05395 
 H                     2.91727  -3.3261    1.58943 
 C                    -1.09614   4.97336   0.56404 
 O                    -2.0007    5.61067   1.0516 
 C                     1.09937   4.97743  -0.5683 
 O                     2.0108    5.59986  -1.06082 
 N                    -0.00061   5.61587  -0.00086 
 C                     1.09598  -4.97361   0.56245 
 O                     2.00051  -5.61111   1.04983 
 C                    -1.0995   -4.97724  -0.56993 
 O                    -2.01095  -5.59948  -1.06265 
 N                     0.00042  -5.6159   -0.00263 
 C                    -0.03279   7.07108   0.01665 
 H                    -0.90856   7.43241  -0.52211 
 H                     0.86937   7.4406   -0.45959 
 H                    -0.08268   7.43197   1.04382 
 C                     0.03251  -7.07112   0.01448 
 H                     0.90829  -7.43236  -0.52433 
 H                    -0.86964  -7.44046  -0.46189 
 H                     0.08234  -7.4323    1.04156 
 S                    -3.52765  -0.63959  -1.82552 
 S                    -3.52815   0.63683   1.82496 
 S                     3.52791   0.6403   -1.82492 
 S                     3.52834  -0.63764   1.8245 
 O                     3.44397  -0.78522  -1.67935 
 O                     3.37953   1.18867  -3.14557 
 O                     3.37987  -1.18584   3.14522 
 O                     3.44362   0.7878    1.67863 
 O                    -3.44328  -0.78856   1.67877 
 O                    -3.3797    1.18476   3.1458 
 O                    -3.44351   0.7859   -1.67973 
 O                    -3.37931  -1.18779  -3.14625 
 C                     5.09734  -1.19614   1.21686 
 C                     6.19199  -0.59864   1.83122 
 C                     5.26173  -2.20432   0.28301 
 C                     7.46495  -1.02246   1.50142 
 H                     6.04831   0.18925   2.56303 
 C                     6.54378  -2.62372  -0.03388 
 H                     4.41231  -2.65683  -0.2102 
 C                     7.64073  -2.03784   0.57324 
 H                     8.32279  -0.55809   1.97344 
 H                     6.67988  -3.41349  -0.76304 
 H                     8.64067  -2.37097   0.32039 
 C                     5.09648   1.19944  -1.21673 
 C                     6.19158   0.60207  -1.83039 
 C                     5.26016   2.20792  -0.28308 
 C                     7.46428   1.02627  -1.50008 
 H                     6.04846  -0.18607  -2.56206 
 C                     6.54195   2.62768   0.03438 
 H                     4.41038   2.66042   0.20952 
 C                     7.63934   2.04189  -0.57202 
 H                     8.32247   0.56198  -1.97154 
 H                     6.6775    3.41767   0.7634 
 H                     8.63909   2.37528  -0.31871 
 C                    -5.09725   1.19528   1.21755 
 C                    -6.19178   0.59731   1.83166 
 C                    -5.26183   2.20382   0.28412 
 C                    -7.46484   1.02091   1.50194 
 H                    -6.04793  -0.19087   2.56314 
 C                    -6.54397   2.62301  -0.03269 
 H                    -4.41249   2.65673  -0.20886 
 C                    -7.6408    2.03658   0.57412 
 H                    -8.32258   0.55615   1.97374 
 H                    -6.68024   3.41301  -0.76157 
 H                    -8.64082   2.36955   0.32132 
 C                    -5.09633  -1.19857  -1.21749 
 C                    -6.1913   -0.6008   -1.831 
 C                    -5.26022  -2.20727  -0.28411 
 C                    -7.4641   -1.02471  -1.50072 
 H                    -6.048     0.1875   -2.56246 
 C                    -6.54211  -2.62672   0.03334 
 H                    -4.41053  -2.66012   0.20832 
 C                    -7.63938  -2.04045  -0.57284 
 H                    -8.32218  -0.5601   -1.97204 
 H                    -6.67785  -3.4168    0.76223 
 H                    -8.6392   -2.3736   -0.31951 
 
 NAtoms=     98 NQM=       98 NQMF=       0 NMMI=      0 NMMIF=      0
                NMic=       0 NMicF=      0.
                    Isotopes and Nuclear Properties:
 (Nuclear quadrupole moments (NQMom) in fm**2, nuclear magnetic moments (NMagM)
  in nuclear magnetons)

  Atom         1           2           3           4           5           6           7           8           9          10
 IAtWgt=          12          12          12          12          12          12          12          12           1          12
 AtmWgt=  12.0000000  12.0000000  12.0000000  12.0000000  12.0000000  12.0000000  12.0000000  12.0000000   1.0078250  12.0000000
 NucSpn=           0           0           0           0           0           0           0           0           1           0
 AtZEff=   0.0000000   0.0000000   0.0000000   0.0000000   0.0000000   0.0000000   0.0000000   0.0000000   0.0000000   0.0000000
 NQMom=    0.0000000   0.0000000   0.0000000   0.0000000   0.0000000   0.0000000   0.0000000   0.0000000   0.0000000   0.0000000
 NMagM=    0.0000000   0.0000000   0.0000000   0.0000000   0.0000000   0.0000000   0.0000000   0.0000000   2.7928460   0.0000000
 AtZNuc=   6.0000000   6.0000000   6.0000000   6.0000000   6.0000000   6.0000000   6.0000000   6.0000000   1.0000000   6.0000000

  Atom        11          12          13          14          15          16          17          18          19          20
 IAtWgt=          12           1          12          12          12          12          12          12          12          12
 AtmWgt=  12.0000000   1.0078250  12.0000000  12.0000000  12.0000000  12.0000000  12.0000000  12.0000000  12.0000000  12.0000000
 NucSpn=           0           1           0           0           0           0           0           0           0           0
 AtZEff=   0.0000000   0.0000000   0.0000000   0.0000000   0.0000000   0.0000000   0.0000000   0.0000000   0.0000000   0.0000000
 NQMom=    0.0000000   0.0000000   0.0000000   0.0000000   0.0000000   0.0000000   0.0000000   0.0000000   0.0000000   0.0000000
 NMagM=    0.0000000   2.7928460   0.0000000   0.0000000   0.0000000   0.0000000   0.0000000   0.0000000   0.0000000   0.0000000
 AtZNuc=   6.0000000   1.0000000   6.0000000   6.0000000   6.0000000   6.0000000   6.0000000   6.0000000   6.0000000   6.0000000

  Atom        21          22          23          24          25          26          27          28          29          30
 IAtWgt=          12           1          12           1          12          16          12          16          14          12
 AtmWgt=  12.0000000   1.0078250  12.0000000   1.0078250  12.0000000  15.9949146  12.0000000  15.9949146  14.0030740  12.0000000
 NucSpn=           0           1           0           1           0           0           0           0           2           0
 AtZEff=   0.0000000   0.0000000   0.0000000   0.0000000   0.0000000   0.0000000   0.0000000   0.0000000   0.0000000   0.0000000
 NQMom=    0.0000000   0.0000000   0.0000000   0.0000000   0.0000000   0.0000000   0.0000000   0.0000000   2.0440000   0.0000000
 NMagM=    0.0000000   2.7928460   0.0000000   2.7928460   0.0000000   0.0000000   0.0000000   0.0000000   0.4037610   0.0000000
 AtZNuc=   6.0000000   1.0000000   6.0000000   1.0000000   6.0000000   8.0000000   6.0000000   8.0000000   7.0000000   6.0000000

  Atom        31          32          33          34          35          36          37          38          39          40
 IAtWgt=          16          12          16          14          12           1           1           1          12           1
 AtmWgt=  15.9949146  12.0000000  15.9949146  14.0030740  12.0000000   1.0078250   1.0078250   1.0078250  12.0000000   1.0078250
 NucSpn=           0           0           0           2           0           1           1           1           0           1
 AtZEff=   0.0000000   0.0000000   0.0000000   0.0000000   0.0000000   0.0000000   0.0000000   0.0000000   0.0000000   0.0000000
 NQMom=    0.0000000   0.0000000   0.0000000   2.0440000   0.0000000   0.0000000   0.0000000   0.0000000   0.0000000   0.0000000
 NMagM=    0.0000000   0.0000000   0.0000000   0.4037610   0.0000000   2.7928460   2.7928460   2.7928460   0.0000000   2.7928460
 AtZNuc=   8.0000000   6.0000000   8.0000000   7.0000000   6.0000000   1.0000000   1.0000000   1.0000000   6.0000000   1.0000000

  Atom        41          42          43          44          45          46          47          48          49          50
 IAtWgt=           1           1          32          32          32          32          16          16          16          16
 AtmWgt=   1.0078250   1.0078250  31.9720718  31.9720718  31.9720718  31.9720718  15.9949146  15.9949146  15.9949146  15.9949146
 NucSpn=           1           1           0           0           0           0           0           0           0           0
 AtZEff=   0.0000000   0.0000000   0.0000000   0.0000000   0.0000000   0.0000000   0.0000000   0.0000000   0.0000000   0.0000000
 NQMom=    0.0000000   0.0000000   0.0000000   0.0000000   0.0000000   0.0000000   0.0000000   0.0000000   0.0000000   0.0000000
 NMagM=    2.7928460   2.7928460   0.0000000   0.0000000   0.0000000   0.0000000   0.0000000   0.0000000   0.0000000   0.0000000
 AtZNuc=   1.0000000   1.0000000  16.0000000  16.0000000  16.0000000  16.0000000   8.0000000   8.0000000   8.0000000   8.0000000

  Atom        51          52          53          54          55          56          57          58          59          60
 IAtWgt=          16          16          16          16          12          12          12          12           1          12
 AtmWgt=  15.9949146  15.9949146  15.9949146  15.9949146  12.0000000  12.0000000  12.0000000  12.0000000   1.0078250  12.0000000
 NucSpn=           0           0           0           0           0           0           0           0           1           0
 AtZEff=   0.0000000   0.0000000   0.0000000   0.0000000   0.0000000   0.0000000   0.0000000   0.0000000   0.0000000   0.0000000
 NQMom=    0.0000000   0.0000000   0.0000000   0.0000000   0.0000000   0.0000000   0.0000000   0.0000000   0.0000000   0.0000000
 NMagM=    0.0000000   0.0000000   0.0000000   0.0000000   0.0000000   0.0000000   0.0000000   0.0000000   2.7928460   0.0000000
 AtZNuc=   8.0000000   8.0000000   8.0000000   8.0000000   6.0000000   6.0000000   6.0000000   6.0000000   1.0000000   6.0000000

  Atom        61          62          63          64          65          66          67          68          69          70
 IAtWgt=           1          12           1           1           1          12          12          12          12           1
 AtmWgt=   1.0078250  12.0000000   1.0078250   1.0078250   1.0078250  12.0000000  12.0000000  12.0000000  12.0000000   1.0078250
 NucSpn=           1           0           1           1           1           0           0           0           0           1
 AtZEff=   0.0000000   0.0000000   0.0000000   0.0000000   0.0000000   0.0000000   0.0000000   0.0000000   0.0000000   0.0000000
 NQMom=    0.0000000   0.0000000   0.0000000   0.0000000   0.0000000   0.0000000   0.0000000   0.0000000   0.0000000   0.0000000
 NMagM=    2.7928460   0.0000000   2.7928460   2.7928460   2.7928460   0.0000000   0.0000000   0.0000000   0.0000000   2.7928460
 AtZNuc=   1.0000000   6.0000000   1.0000000   1.0000000   1.0000000   6.0000000   6.0000000   6.0000000   6.0000000   1.0000000

  Atom        71          72          73          74          75          76          77          78          79          80
 IAtWgt=          12           1          12           1           1           1          12          12          12          12
 AtmWgt=  12.0000000   1.0078250  12.0000000   1.0078250   1.0078250   1.0078250  12.0000000  12.0000000  12.0000000  12.0000000
 NucSpn=           0           1           0           1           1           1           0           0           0           0
 AtZEff=   0.0000000   0.0000000   0.0000000   0.0000000   0.0000000   0.0000000   0.0000000   0.0000000   0.0000000   0.0000000
 NQMom=    0.0000000   0.0000000   0.0000000   0.0000000   0.0000000   0.0000000   0.0000000   0.0000000   0.0000000   0.0000000
 NMagM=    0.0000000   2.7928460   0.0000000   2.7928460   2.7928460   2.7928460   0.0000000   0.0000000   0.0000000   0.0000000
 AtZNuc=   6.0000000   1.0000000   6.0000000   1.0000000   1.0000000   1.0000000   6.0000000   6.0000000   6.0000000   6.0000000

  Atom        81          82          83          84          85          86          87          88          89          90
 IAtWgt=           1          12           1          12           1           1           1          12          12          12
 AtmWgt=   1.0078250  12.0000000   1.0078250  12.0000000   1.0078250   1.0078250   1.0078250  12.0000000  12.0000000  12.0000000
 NucSpn=           1           0           1           0           1           1           1           0           0           0
 AtZEff=   0.0000000   0.0000000   0.0000000   0.0000000   0.0000000   0.0000000   0.0000000   0.0000000   0.0000000   0.0000000
 NQMom=    0.0000000   0.0000000   0.0000000   0.0000000   0.0000000   0.0000000   0.0000000   0.0000000   0.0000000   0.0000000
 NMagM=    2.7928460   0.0000000   2.7928460   0.0000000   2.7928460   2.7928460   2.7928460   0.0000000   0.0000000   0.0000000
 AtZNuc=   1.0000000   6.0000000   1.0000000   6.0000000   1.0000000   1.0000000   1.0000000   6.0000000   6.0000000   6.0000000

  Atom        91          92          93          94          95          96          97          98
 IAtWgt=          12           1          12           1          12           1           1           1
 AtmWgt=  12.0000000   1.0078250  12.0000000   1.0078250  12.0000000   1.0078250   1.0078250   1.0078250
 NucSpn=           0           1           0           1           0           1           1           1
 AtZEff=   0.0000000   0.0000000   0.0000000   0.0000000   0.0000000   0.0000000   0.0000000   0.0000000
 NQMom=    0.0000000   0.0000000   0.0000000   0.0000000   0.0000000   0.0000000   0.0000000   0.0000000
 NMagM=    0.0000000   2.7928460   0.0000000   2.7928460   0.0000000   2.7928460   2.7928460   2.7928460
 AtZNuc=   6.0000000   1.0000000   6.0000000   1.0000000   6.0000000   1.0000000   1.0000000   1.0000000
 Leave Link  101 at Sat Jul  2 02:19:53 2022, MaxMem=  5242880000 cpu:         1.3
 (Enter /opt/nce/packages/global/g09/l202.exe)
 Stoichiometry    C50H30N2O12S4
 Framework group  C1[X(C50H30N2O12S4)]
 Deg. of freedom   288
 Full point group                 C1      NOp   1
 Largest Abelian subgroup         C1      NOp   1
 Largest concise Abelian subgroup C1      NOp   1
                         Standard orientation:                         
 ---------------------------------------------------------------------
 Center     Atomic      Atomic             Coordinates (Angstroms)
 Number     Number       Type             X           Y           Z
 ---------------------------------------------------------------------
      1          6           0        2.227554   -1.405369    0.874941
      2          6           0        1.218845   -0.697964    0.230311
      3          6           0        0.000927   -1.396243   -0.000305
      4          6           0        0.001978   -2.803456   -0.000451
      5          6           0        1.099771   -3.499534    0.522545
      6          6           0        2.141039   -2.791694    1.054956
      7          6           0       -1.217841   -0.699577   -0.230459
      8          6           0       -1.094432   -3.502501   -0.523062
      9          1           0        2.918511   -3.324445    1.590590
     10          6           0       -2.136503   -2.794984   -1.054927
     11          6           0       -2.225328   -1.408861   -0.874899
     12          1           0       -2.913400   -3.328603   -1.590415
     13          6           0        1.217834    0.699495   -0.230780
     14          6           0       -0.000912    1.396262   -0.000830
     15          6           0        2.225298    1.408515   -0.875554
     16          6           0       -1.218843    0.698081    0.230046
     17          6           0       -0.001900    2.803475   -0.001430
     18          6           0        2.136552    2.794590   -1.055969
     19          6           0       -2.227553    1.405758    0.874372
     20          6           0       -1.099651    3.499764    0.521374
     21          6           0        1.094537    3.502312   -0.524265
     22          1           0        2.913461    3.328007   -1.591642
     23          6           0       -2.140959    2.792132    1.053979
     24          1           0       -2.918399    3.325087    1.589456
     25          6           0        1.097875   -4.972984    0.564068
     26          8           0        2.002655   -5.609985    1.051629
     27          6           0       -1.097628   -4.977812   -0.568271
     28          8           0       -2.008845   -5.600557   -1.060788
     29          7           0        0.002570   -5.615872   -0.000834
     30          6           0       -1.097675    4.973225    0.562483
     31          8           0       -2.002423    5.610414    1.049860
     32          6           0        1.097807    4.977609   -0.569896
     33          8           0        2.009038    5.600167   -1.062623
     34          7           0       -0.002338    5.615891   -0.002603
     35          6           0        0.035247   -7.071077    0.016679
     36          1           0        0.911146   -7.432107   -0.522079
     37          1           0       -0.866779   -7.440905   -0.459555
     38          1           0        0.085265   -7.431951    1.043847
     39          6           0       -0.034932    7.071103    0.014512
     40          1           0       -0.910833    7.432037   -0.524304
     41          1           0        0.867097    7.440749   -0.461860
     42          1           0       -0.084884    7.432260    1.041585
     43         16           0        3.527454    0.640800   -1.825485
     44         16           0        3.528389   -0.635622    1.824990
     45         16           0       -3.527666   -0.641526   -1.824885
     46         16           0       -3.528535    0.636412    1.824533
     47          8           0       -3.444219    0.784021   -1.679322
     48          8           0       -3.379096   -1.189847   -3.145541
     49          8           0       -3.380261    1.184670    3.145250
     50          8           0       -3.443327   -0.788993    1.678658
     51          8           0        3.443024    0.789744    1.678798
     52          8           0        3.380130   -1.183598    3.145826
     53          8           0        3.443797   -0.784714   -1.679704
     54          8           0        3.378918    1.188947   -3.146217
     55          6           0       -5.097736    1.194370    1.216889
     56          6           0       -6.192173    0.596495    1.831245
     57          6           0       -5.262467    2.202499    0.283042
     58          6           0       -7.465286    1.019874    1.501451
     59          1           0       -6.048219   -0.191348    2.563062
     60          6           0       -6.544663    2.621453   -0.033854
     61          1           0       -4.413204    2.655295   -0.210168
     62          6           0       -7.641407    2.035194    0.573272
     63          1           0       -8.322963    0.555213    1.973466
     64          1           0       -6.681038    3.411181   -0.763005
     65          1           0       -8.641471    2.367980    0.320424
     66          6           0       -5.096048   -1.201203   -1.216698
     67          6           0       -6.191353   -0.604210   -1.830364
     68          6           0       -5.259371   -2.209740   -0.283045
     69          6           0       -7.463907   -1.028853   -1.500046
     70          1           0       -6.048500    0.183970   -2.562034
     71          6           0       -6.541019   -2.629942    0.034412
     72          1           0       -4.409435   -2.661950    0.209545
     73          6           0       -7.638614   -2.044529   -0.571993
     74          1           0       -8.322251   -0.564861   -1.971508
     75          1           0       -6.676300   -3.419983    0.763430
     76          1           0       -8.638244   -2.378267   -0.318680
     77          6           0        5.097689   -1.193532    1.217581
     78          6           0        6.192007   -0.595184    1.831692
     79          6           0        5.262609   -2.202013    0.284148
     80          6           0        7.465209   -1.018338    1.501974
     81          1           0        6.047889    0.192947    2.563170
     82          6           0        6.544896   -2.620758   -0.032655
     83          1           0        4.413426   -2.655211   -0.208832
     84          6           0        7.641526   -2.033954    0.574148
     85          1           0        8.322792   -0.553287    1.973773
     86          1           0        6.681438   -3.410706   -0.761538
     87          1           0        8.641659   -2.366570    0.321350
     88          6           0        5.095942    1.200325   -1.217459
     89          6           0        6.191116    0.602926   -1.830971
     90          6           0        5.259477    2.209074   -0.284079
     91          6           0        7.463769    1.027281   -1.500688
     92          1           0        6.048081   -0.185422   -2.562426
     93          6           0        6.541229    2.628968    0.033372
     94          1           0        4.409635    2.661635    0.208353
     95          6           0        7.638697    2.043083   -0.572808
     96          1           0        8.322009    0.562960   -1.972013
     97          1           0        6.676694    3.419093    0.762263
     98          1           0        8.638404    2.376577   -0.319479
 ---------------------------------------------------------------------
 Rotational constants (GHZ):      0.0504897      0.0268766      0.0201246
 Leave Link  202 at Sat Jul  2 02:19:53 2022, MaxMem=  5242880000 cpu:         0.1
 (Enter /opt/nce/packages/global/g09/l301.exe)
 Standard basis: def2TZVP (5D, 7F)
 Ernie: Thresh=  0.10000D-02 Tol=  0.10000D-05 Strict=F.
 There are  2652 symmetry adapted cartesian basis functions of A   symmetry.
 There are  2312 symmetry adapted basis functions of A   symmetry.
  2312 basis functions,  3780 primitive gaussians,  2652 cartesian basis functions
   252 alpha electrons      252 beta electrons
       nuclear repulsion energy     12502.8570725372 Hartrees.
 IExCor= 4235 DFT=T Ex+Corr=M06 ExCW=0 ScaHFX=  0.270000
 ScaDFX=  1.000000  1.000000  1.000000  1.000000 ScalE2=  1.000000  1.000000
 IRadAn=      5 IRanWt=     -1 IRanGd=            0 ICorTp=0 IEmpDi=  4
 NAtoms=   98 NActive=   98 NUniq=   98 SFac= 1.00D+00 NAtFMM=   60 NAOKFM=T Big=T
 Integral buffers will be    131072 words long.
 Regular integral format.
 Two-electron integral symmetry is turned on.
 ------------------------------------------------------------------------------
 Polarizable Continuum Model (PCM)
 =================================
 Model                : PCM (using non-symmetric T matrix).
 Atomic radii         : SMD-Coulomb.
 Polarization charges : Total charges.
 Charge compensation  : None.
 Solution method      : On-the-fly selection.
 Cavity type          : VdW (van der Waals Surface) (Alpha=1.000).
 Cavity algorithm     : GePol (No added spheres)
                        Default sphere list used, NSphG=   98.
                        Lebedev-Laikov grids with approx.  5.0 points / Ang**2.
                        Smoothing algorithm: York/Karplus (Gamma=1.0000).
                        Polarization charges: spherical gaussians, with
                                              point-specific exponents (IZeta= 3).
                        Self-potential: point-specific (ISelfS= 7).
                        Self-field    : sphere-specific E.n sum rule (ISelfD= 2).
 Solvent              : Dichloromethane, Eps=   8.930000 Eps(inf)=   2.028346
 ------------------------------------------------------------------------------
 GePol: Number of generator spheres                  =      98
 GePol: Total number of spheres                      =      98
 GePol: Number of exposed spheres                    =      98 (100.00%)
 GePol: Number of points                             =    6975
 GePol: Average weight of points                     =       0.12
 GePol: Minimum weight of points                     =   0.11D-11
 GePol: Maximum weight of points                     =    0.20498
 GePol: Number of points with low weight             =     422
 GePol: Fraction of low-weight points (<1% of avg)   =       6.05%
 GePol: Cavity surface area                          =    826.726 Ang**2
 GePol: Cavity volume                                =    969.004 Ang**3
 ------------------------------------------------------------------------------
 Atomic radii for non-electrostatic terms: SMD-CDS.
 ------------------------------------------------------------------------------
 PCM non-electrostatic energy =        -0.0234393772 Hartrees.
 Nuclear repulsion after PCM non-electrostatic terms =    12502.8336331600 Hartrees.
 Leave Link  301 at Sat Jul  2 02:19:54 2022, MaxMem=  5242880000 cpu:         3.4
 (Enter /opt/nce/packages/global/g09/l302.exe)
 NPDir=0 NMtPBC=     1 NCelOv=     1 NCel=       1 NClECP=     1 NCelD=      1
         NCelK=      1 NCelE2=     1 NClLst=     1 CellRange=     0.0.
 One-electron integrals computed using PRISM.
   1 Symmetry operations used in ECPInt.
 ECPInt:  NShTT=  384126 NPrTT= 1231738 LenC2=  252117 LenP2D=  507154.
 LDataN:  DoStor=T MaxTD1= 6 Len=  172
 NBasis=  2312 RedAO= T EigKep=  1.68D-06  NBF=  2312
 NBsUse=  2312 1.00D-06 EigRej= -1.00D+00 NBFU=  2312
 Precomputing XC quadrature grid using
 IXCGrd= 4 IRadAn=           5 IRanWt=          -1 IRanGd=           0 AccXCQ= 0.00D+00.
 Generated NRdTot=       0 NPtTot=           0 NUsed=           0 NTot=          32
 NSgBfM=  2439  2460  2460  2469  2481 MxSgAt=    98 MxSgA2=    98.
 Leave Link  302 at Sat Jul  2 02:20:09 2022, MaxMem=  5242880000 cpu:       184.5
 (Enter /opt/nce/packages/global/g09/l308.exe)
 Leave Link  308 at Sat Jul  2 02:20:11 2022, MaxMem=  5242880000 cpu:        21.9
 (Enter /opt/nce/packages/global/g09/l303.exe)
 DipDrv:  MaxL=1.
 Leave Link  303 at Sat Jul  2 02:20:12 2022, MaxMem=  5242880000 cpu:        11.5
 (Enter /opt/nce/packages/global/g09/l401.exe)
 ExpMin= 9.52D-02 ExpMax= 6.07D+04 ExpMxC= 2.07D+03 IAcc=3 IRadAn=         5 AccDes= 0.00D+00
 Harris functional with IExCor= 1009 and IRadAn=       5 diagonalized for initial guess.
 HarFok:  IExCor= 1009 AccDes= 0.00D+00 IRadAn=         5 IDoV= 1 UseB2=F ITyADJ=14
 ICtDFT=  3500011 ScaDFX=  1.000000  1.000000  1.000000  1.000000
 FoFCou: FMM=F IPFlag=           0 FMFlag=      100000 FMFlg1=        2001
         NFxFlg=           0 DoJE=T BraDBF=F KetDBF=T FulRan=T
         wScrn=  0.000000 ICntrl=     500 IOpCl=  0 I1Cent=   200000004 NGrid=           0
         NMat0=    1 NMatS0=      1 NMatT0=    0 NMatD0=    1 NMtDS0=    0 NMtDT0=    0
 Petite list used in FoFCou.
 Harris En= -4526.32850402607    
 JPrj=0 DoOrth=F DoCkMO=F.
 Leave Link  401 at Sat Jul  2 02:20:51 2022, MaxMem=  5242880000 cpu:       461.8
 (Enter /opt/nce/packages/global/g09/l502.exe)
 Closed shell SCF:
 Using DIIS extrapolation, IDIIS=  1040.
 Integral symmetry usage will be decided dynamically.
 IVT=    21168982 IEndB=    21168982 NGot=  5242880000 MDV=  5228763415
 LenX=  5228763415 LenY=  5221727659
 Requested convergence on RMS density matrix=1.00D-08 within 128 cycles.
 Requested convergence on MAX density matrix=1.00D-06.
 Requested convergence on             energy=1.00D-06.
 No special actions if energy rises.
 Fock matrices will be formed incrementally for  20 cycles.

 Cycle   1  Pass 1  IDiag  1:
 FoFJK:  IHMeth= 1 ICntrl=       0 DoSepK=F KAlg= 0 I1Cent=   0 FoldK=F
 IRaf= 580000000 NMat=   1 IRICut=       1 DoRegI=T DoRafI=F ISym2E= 0.
 FoFCou: FMM=T IPFlag=           0 FMFlag=      100000 FMFlg1=        2001
         NFxFlg=           0 DoJE=F BraDBF=F KetDBF=F FulRan=T
         wScrn=  0.000000 ICntrl=       0 IOpCl=  0 I1Cent=           0 NGrid=           0
         NMat0=    1 NMatS0=      1 NMatT0=    0 NMatD0=    1 NMtDS0=    0 NMtDT0=    0
 Symmetry not used in FoFCou.
 FMM levels:  10  Number of levels for PrismC:   9
 Inv3:  Mode=1 IEnd=   145951875.
 Iteration    1 A*A^-1 deviation from unit magnitude is 8.99D-15 for   6950.
 Iteration    1 A*A^-1 deviation from orthogonality  is 4.24D-15 for   6948   5381.
 Iteration    1 A^-1*A deviation from unit magnitude is 9.77D-15 for   6950.
 Iteration    1 A^-1*A deviation from orthogonality  is 1.57D-08 for   4872   4856.
 Iteration    2 A*A^-1 deviation from unit magnitude is 2.66D-15 for   4949.
 Iteration    2 A*A^-1 deviation from orthogonality  is 4.44D-15 for   6973   1779.
 Iteration    2 A^-1*A deviation from unit magnitude is 8.88D-16 for   1983.
 Iteration    2 A^-1*A deviation from orthogonality  is 4.02D-16 for   6970   5405.
 E= -4525.80593221313    
 DIIS: error= 2.30D-02 at cycle   1 NSaved=   1.
 NSaved= 1 IEnMin= 1 EnMin= -4525.80593221313     IErMin= 1 ErrMin= 2.30D-02
 ErrMax= 2.30D-02  0.00D+00 EMaxC= 1.00D-01 BMatC= 2.35D+00 BMatP= 2.35D+00
 IDIUse=3 WtCom= 7.70D-01 WtEn= 2.30D-01
 Coeff-Com:  0.100D+01
 Coeff-En:   0.100D+01
 Coeff:      0.100D+01
 Gap=     0.112 Goal=   None    Shift=    0.000
 GapD=    0.112 DampG=1.000 DampE=0.500 DampFc=0.5000 IDamp=-1.
 Damping current iteration by 5.00D-01
 RMSDP=5.35D-03 MaxDP=1.23D+00              OVMax= 2.76D-01

 Cycle   2  Pass 1  IDiag  1:
 RMSU=  2.57D-03    CP:  1.16D+00
 E= -4526.13048238956     Delta-E=       -0.324550176432 Rises=F Damp=T
 DIIS: error= 9.72D-03 at cycle   2 NSaved=   2.
 NSaved= 2 IEnMin= 2 EnMin= -4526.13048238956     IErMin= 2 ErrMin= 9.72D-03
 ErrMax= 9.72D-03  0.00D+00 EMaxC= 1.00D-01 BMatC= 4.10D-01 BMatP= 2.35D+00
 IDIUse=3 WtCom= 9.03D-01 WtEn= 9.72D-02
 Coeff-Com:  0.246D+00 0.754D+00
 Coeff-En:   0.409D+00 0.591D+00
 Coeff:      0.262D+00 0.738D+00
 Gap=     0.200 Goal=   None    Shift=    0.000
 RMSDP=1.99D-03 MaxDP=4.40D-01 DE=-3.25D-01 OVMax= 1.99D-01

 Cycle   3  Pass 1  IDiag  1:
 RMSU=  1.28D-03    CP:  1.02D+00  4.64D-01
 E= -4527.39140201595     Delta-E=       -1.260919626391 Rises=F Damp=F
 DIIS: error= 5.49D-03 at cycle   3 NSaved=   3.
 NSaved= 3 IEnMin= 3 EnMin= -4527.39140201595     IErMin= 3 ErrMin= 5.49D-03
 ErrMax= 5.49D-03  0.00D+00 EMaxC= 1.00D-01 BMatC= 1.70D-01 BMatP= 4.10D-01
 IDIUse=3 WtCom= 9.45D-01 WtEn= 5.49D-02
 Coeff-Com:  0.612D-01 0.398D+00 0.541D+00
 Coeff-En:   0.000D+00 0.000D+00 0.100D+01
 Coeff:      0.579D-01 0.376D+00 0.566D+00
 Gap=     0.115 Goal=   None    Shift=    0.000
 RMSDP=7.16D-04 MaxDP=1.05D-01 DE=-1.26D+00 OVMax= 8.32D-02

 Cycle   4  Pass 1  IDiag  1:
 RMSU=  4.97D-04    CP:  1.05D+00  5.86D-01  7.00D-01
 E= -4527.52535957192     Delta-E=       -0.133957555972 Rises=F Damp=F
 DIIS: error= 2.34D-03 at cycle   4 NSaved=   4.
 NSaved= 4 IEnMin= 4 EnMin= -4527.52535957192     IErMin= 4 ErrMin= 2.34D-03
 ErrMax= 2.34D-03  0.00D+00 EMaxC= 1.00D-01 BMatC= 2.68D-02 BMatP= 1.70D-01
 IDIUse=3 WtCom= 9.77D-01 WtEn= 2.34D-02
 Coeff-Com:  0.386D-02 0.114D+00 0.318D+00 0.564D+00
 Coeff-En:   0.000D+00 0.000D+00 0.123D+00 0.877D+00
 Coeff:      0.377D-02 0.111D+00 0.313D+00 0.572D+00
 Gap=     0.112 Goal=   None    Shift=    0.000
 RMSDP=2.17D-04 MaxDP=2.86D-02 DE=-1.34D-01 OVMax= 2.98D-02

 Cycle   5  Pass 1  IDiag  1:
 RMSU=  1.34D-04    CP:  1.04D+00  5.46D-01  7.74D-01  8.14D-01
 E= -4527.54813856079     Delta-E=       -0.022778988867 Rises=F Damp=F
 DIIS: error= 6.87D-04 at cycle   5 NSaved=   5.
 NSaved= 5 IEnMin= 5 EnMin= -4527.54813856079     IErMin= 5 ErrMin= 6.87D-04
 ErrMax= 6.87D-04  0.00D+00 EMaxC= 1.00D-01 BMatC= 2.44D-03 BMatP= 2.68D-02
 IDIUse=3 WtCom= 9.93D-01 WtEn= 6.87D-03
 Coeff-Com: -0.350D-02 0.227D-01 0.110D+00 0.300D+00 0.571D+00
 Coeff-En:   0.000D+00 0.000D+00 0.000D+00 0.000D+00 0.100D+01
 Coeff:     -0.348D-02 0.226D-01 0.110D+00 0.298D+00 0.574D+00
 Gap=     0.112 Goal=   None    Shift=    0.000
 RMSDP=6.80D-05 MaxDP=1.06D-02 DE=-2.28D-02 OVMax= 1.03D-02

 Cycle   6  Pass 1  IDiag  1:
 RMSU=  4.53D-05    CP:  1.05D+00  5.60D-01  7.77D-01  8.15D-01  7.52D-01
 E= -4527.54994175450     Delta-E=       -0.001803193711 Rises=F Damp=F
 DIIS: error= 2.84D-04 at cycle   6 NSaved=   6.
 NSaved= 6 IEnMin= 6 EnMin= -4527.54994175450     IErMin= 6 ErrMin= 2.84D-04
 ErrMax= 2.84D-04  0.00D+00 EMaxC= 1.00D-01 BMatC= 4.51D-04 BMatP= 2.44D-03
 IDIUse=3 WtCom= 9.97D-01 WtEn= 2.84D-03
 Coeff-Com: -0.222D-02 0.324D-02 0.339D-01 0.118D+00 0.347D+00 0.501D+00
 Coeff-En:   0.000D+00 0.000D+00 0.000D+00 0.000D+00 0.121D+00 0.879D+00
 Coeff:     -0.221D-02 0.323D-02 0.338D-01 0.117D+00 0.346D+00 0.502D+00
 Gap=     0.112 Goal=   None    Shift=    0.000
 RMSDP=2.45D-05 MaxDP=2.15D-03 DE=-1.80D-03 OVMax= 4.95D-03

 Cycle   7  Pass 1  IDiag  1:
 RMSU=  1.95D-05    CP:  1.05D+00  5.61D-01  7.83D-01  8.02D-01  8.17D-01
                    CP:  8.57D-01
 E= -4527.55029350558     Delta-E=       -0.000351751078 Rises=F Damp=F
 DIIS: error= 9.15D-05 at cycle   7 NSaved=   7.
 NSaved= 7 IEnMin= 7 EnMin= -4527.55029350558     IErMin= 7 ErrMin= 9.15D-05
 ErrMax= 9.15D-05  0.00D+00 EMaxC= 1.00D-01 BMatC= 3.84D-05 BMatP= 4.51D-04
 IDIUse=1 WtCom= 1.00D+00 WtEn= 0.00D+00
 Coeff-Com: -0.696D-03-0.144D-02 0.301D-02 0.225D-01 0.112D+00 0.270D+00
 Coeff-Com:  0.595D+00
 Coeff:     -0.696D-03-0.144D-02 0.301D-02 0.225D-01 0.112D+00 0.270D+00
 Coeff:      0.595D+00
 Gap=     0.113 Goal=   None    Shift=    0.000
 RMSDP=1.07D-05 MaxDP=2.24D-03 DE=-3.52D-04 OVMax= 1.46D-03

 Cycle   8  Pass 1  IDiag  1:
 RMSU=  6.78D-06    CP:  1.05D+00  5.63D-01  7.81D-01  8.10D-01  8.35D-01
                    CP:  9.39D-01  9.20D-01
 E= -4527.55031936022     Delta-E=       -0.000025854646 Rises=F Damp=F
 DIIS: error= 4.09D-05 at cycle   8 NSaved=   8.
 NSaved= 8 IEnMin= 8 EnMin= -4527.55031936022     IErMin= 8 ErrMin= 4.09D-05
 ErrMax= 4.09D-05  0.00D+00 EMaxC= 1.00D-01 BMatC= 8.30D-06 BMatP= 3.84D-05
 IDIUse=1 WtCom= 1.00D+00 WtEn= 0.00D+00
 Coeff-Com:  0.994D-05-0.136D-02-0.443D-02-0.760D-02 0.769D-02 0.788D-01
 Coeff-Com:  0.364D+00 0.563D+00
 Coeff:      0.994D-05-0.136D-02-0.443D-02-0.760D-02 0.769D-02 0.788D-01
 Coeff:      0.364D+00 0.563D+00
 Gap=     0.113 Goal=   None    Shift=    0.000
 RMSDP=3.15D-06 MaxDP=3.02D-04 DE=-2.59D-05 OVMax= 9.04D-04

 Cycle   9  Pass 1  IDiag  1:
 RMSU=  2.44D-06    CP:  1.05D+00  5.63D-01  7.81D-01  8.10D-01  8.42D-01
                    CP:  9.60D-01  9.43D-01  8.06D-01
 E= -4527.55032654991     Delta-E=       -0.000007189690 Rises=F Damp=F
 DIIS: error= 1.32D-05 at cycle   9 NSaved=   9.
 NSaved= 9 IEnMin= 9 EnMin= -4527.55032654991     IErMin= 9 ErrMin= 1.32D-05
 ErrMax= 1.32D-05  0.00D+00 EMaxC= 1.00D-01 BMatC= 6.91D-07 BMatP= 8.30D-06
 IDIUse=1 WtCom= 1.00D+00 WtEn= 0.00D+00
 Coeff-Com:  0.975D-04-0.378D-03-0.237D-02-0.657D-02-0.111D-01 0.180D-02
 Coeff-Com:  0.900D-01 0.276D+00 0.653D+00
 Coeff:      0.975D-04-0.378D-03-0.237D-02-0.657D-02-0.111D-01 0.180D-02
 Coeff:      0.900D-01 0.276D+00 0.653D+00
 Gap=     0.113 Goal=   None    Shift=    0.000
 RMSDP=1.62D-06 MaxDP=2.42D-04 DE=-7.19D-06 OVMax= 2.59D-04

 Cycle  10  Pass 1  IDiag  1:
 RMSU=  8.68D-07    CP:  1.05D+00  5.63D-01  7.82D-01  8.10D-01  8.48D-01
                    CP:  9.68D-01  9.73D-01  9.18D-01  9.20D-01
 E= -4527.55032709700     Delta-E=       -0.000000547087 Rises=F Damp=F
 DIIS: error= 4.41D-06 at cycle  10 NSaved=  10.
 NSaved=10 IEnMin=10 EnMin= -4527.55032709700     IErMin=10 ErrMin= 4.41D-06
 ErrMax= 4.41D-06  0.00D+00 EMaxC= 1.00D-01 BMatC= 1.16D-07 BMatP= 6.91D-07
 IDIUse=1 WtCom= 1.00D+00 WtEn= 0.00D+00
 Coeff-Com:  0.486D-04-0.757D-04-0.808D-03-0.266D-02-0.661D-02-0.676D-02
 Coeff-Com:  0.108D-01 0.914D-01 0.352D+00 0.562D+00
 Coeff:      0.486D-04-0.757D-04-0.808D-03-0.266D-02-0.661D-02-0.676D-02
 Coeff:      0.108D-01 0.914D-01 0.352D+00 0.562D+00
 Gap=     0.113 Goal=   None    Shift=    0.000
 RMSDP=4.60D-07 MaxDP=4.80D-05 DE=-5.47D-07 OVMax= 1.75D-04

 Cycle  11  Pass 1  IDiag  1:
 RMSU=  3.32D-07    CP:  1.05D+00  5.63D-01  7.82D-01  8.10D-01  8.48D-01
                    CP:  9.73D-01  9.79D-01  9.22D-01  9.79D-01  9.63D-01
 E= -4527.55032719416     Delta-E=       -0.000000097160 Rises=F Damp=F
 DIIS: error= 2.38D-06 at cycle  11 NSaved=  11.
 NSaved=11 IEnMin=11 EnMin= -4527.55032719416     IErMin=11 ErrMin= 2.38D-06
 ErrMax= 2.38D-06  0.00D+00 EMaxC= 1.00D-01 BMatC= 2.10D-08 BMatP= 1.16D-07
 IDIUse=1 WtCom= 1.00D+00 WtEn= 0.00D+00
 Coeff-Com:  0.848D-05 0.256D-04 0.118D-05-0.184D-03-0.163D-02-0.389D-02
 Coeff-Com: -0.108D-01-0.208D-02 0.607D-01 0.324D+00 0.634D+00
 Coeff:      0.848D-05 0.256D-04 0.118D-05-0.184D-03-0.163D-02-0.389D-02
 Coeff:     -0.108D-01-0.208D-02 0.607D-01 0.324D+00 0.634D+00
 Gap=     0.113 Goal=   None    Shift=    0.000
 RMSDP=2.10D-07 MaxDP=2.67D-05 DE=-9.72D-08 OVMax= 3.87D-05

 Cycle  12  Pass 1  IDiag  1:
 RMSU=  1.29D-07    CP:  1.05D+00  5.63D-01  7.82D-01  8.10D-01  8.48D-01
                    CP:  9.73D-01  9.79D-01  9.32D-01  1.00D+00  1.04D+00
                    CP:  8.05D-01
 E= -4527.55032721337     Delta-E=       -0.000000019209 Rises=F Damp=F
 DIIS: error= 4.64D-07 at cycle  12 NSaved=  12.
 NSaved=12 IEnMin=12 EnMin= -4527.55032721337     IErMin=12 ErrMin= 4.64D-07
 ErrMax= 4.64D-07  0.00D+00 EMaxC= 1.00D-01 BMatC= 1.68D-09 BMatP= 2.10D-08
 IDIUse=1 WtCom= 1.00D+00 WtEn= 0.00D+00
 Coeff-Com: -0.283D-06 0.200D-04 0.909D-04 0.202D-03-0.154D-03-0.124D-02
 Coeff-Com: -0.640D-02-0.114D-01-0.111D-01 0.108D+00 0.302D+00 0.619D+00
 Coeff:     -0.283D-06 0.200D-04 0.909D-04 0.202D-03-0.154D-03-0.124D-02
 Coeff:     -0.640D-02-0.114D-01-0.111D-01 0.108D+00 0.302D+00 0.619D+00
 Gap=     0.113 Goal=   None    Shift=    0.000
 RMSDP=7.19D-08 MaxDP=8.45D-06 DE=-1.92D-08 OVMax= 1.74D-05

 Cycle  13  Pass 1  IDiag  1:
 RMSU=  5.65D-08    CP:  1.05D+00  5.63D-01  7.82D-01  8.10D-01  8.48D-01
                    CP:  9.73D-01  9.80D-01  9.34D-01  1.01D+00  1.06D+00
                    CP:  8.57D-01  9.34D-01
 E= -4527.55032721484     Delta-E=       -0.000000001470 Rises=F Damp=F
 DIIS: error= 2.82D-07 at cycle  13 NSaved=  13.
 NSaved=13 IEnMin=13 EnMin= -4527.55032721484     IErMin=13 ErrMin= 2.82D-07
 ErrMax= 2.82D-07  0.00D+00 EMaxC= 1.00D-01 BMatC= 2.12D-10 BMatP= 1.68D-09
 IDIUse=1 WtCom= 1.00D+00 WtEn= 0.00D+00
 Coeff-Com: -0.673D-06 0.391D-05 0.381D-04 0.108D-03 0.139D-03 0.777D-04
 Coeff-Com: -0.983D-03-0.445D-02-0.145D-01 0.329D-02 0.287D-01 0.270D+00
 Coeff-Com:  0.718D+00
 Coeff:     -0.673D-06 0.391D-05 0.381D-04 0.108D-03 0.139D-03 0.777D-04
 Coeff:     -0.983D-03-0.445D-02-0.145D-01 0.329D-02 0.287D-01 0.270D+00
 Coeff:      0.718D+00
 Gap=     0.113 Goal=   None    Shift=    0.000
 RMSDP=4.11D-08 MaxDP=4.71D-06 DE=-1.47D-09 OVMax= 4.34D-06

 Cycle  14  Pass 1  IDiag  1:
 RMSU=  3.16D-08    CP:  1.05D+00  5.63D-01  7.82D-01  8.10D-01  8.48D-01
                    CP:  9.73D-01  9.80D-01  9.36D-01  1.00D+00  1.06D+00
                    CP:  8.57D-01  1.09D+00  1.17D+00
 E= -4527.55032721520     Delta-E=       -0.000000000357 Rises=F Damp=F
 DIIS: error= 1.28D-07 at cycle  14 NSaved=  14.
 NSaved=14 IEnMin=14 EnMin= -4527.55032721520     IErMin=14 ErrMin= 1.28D-07
 ErrMax= 1.28D-07  0.00D+00 EMaxC= 1.00D-01 BMatC= 5.67D-11 BMatP= 2.12D-10
 IDIUse=1 WtCom= 1.00D+00 WtEn= 0.00D+00
 Coeff-Com: -0.283D-06-0.569D-06 0.108D-04 0.357D-04 0.879D-04 0.183D-03
 Coeff-Com:  0.148D-03-0.109D-02-0.629D-02-0.840D-02-0.209D-01 0.720D-01
 Coeff-Com:  0.416D+00 0.548D+00
 Coeff:     -0.283D-06-0.569D-06 0.108D-04 0.357D-04 0.879D-04 0.183D-03
 Coeff:      0.148D-03-0.109D-02-0.629D-02-0.840D-02-0.209D-01 0.720D-01
 Coeff:      0.416D+00 0.548D+00
 Gap=     0.113 Goal=   None    Shift=    0.000
 RMSDP=2.87D-08 MaxDP=2.50D-06 DE=-3.57D-10 OVMax= 2.61D-06

 Cycle  15  Pass 1  IDiag  1:
 RMSU=  2.26D-08    CP:  1.05D+00  5.63D-01  7.82D-01  8.10D-01  8.48D-01
                    CP:  9.73D-01  9.80D-01  9.35D-01  1.00D+00  1.06D+00
                    CP:  8.61D-01  1.12D+00  1.35D+00  1.39D+00
 E= -4527.55032721525     Delta-E=       -0.000000000058 Rises=F Damp=F
 DIIS: error= 4.08D-08 at cycle  15 NSaved=  15.
 NSaved=15 IEnMin=15 EnMin= -4527.55032721525     IErMin=15 ErrMin= 4.08D-08
 ErrMax= 4.08D-08  0.00D+00 EMaxC= 1.00D-01 BMatC= 8.26D-12 BMatP= 5.67D-11
 IDIUse=1 WtCom= 1.00D+00 WtEn= 0.00D+00
 Coeff-Com: -0.734D-07-0.969D-06 0.845D-06 0.470D-05 0.335D-04 0.111D-03
 Coeff-Com:  0.272D-03 0.494D-04-0.166D-02-0.611D-02-0.199D-01-0.279D-02
 Coeff-Com:  0.133D+00 0.318D+00 0.580D+00
 Coeff:     -0.734D-07-0.969D-06 0.845D-06 0.470D-05 0.335D-04 0.111D-03
 Coeff:      0.272D-03 0.494D-04-0.166D-02-0.611D-02-0.199D-01-0.279D-02
 Coeff:      0.133D+00 0.318D+00 0.580D+00
 Gap=     0.113 Goal=   None    Shift=    0.000
 RMSDP=3.96D-08 MaxDP=3.59D-06 DE=-5.82D-11 OVMax= 5.92D-07

 Cycle  16  Pass 1  IDiag  1:
 RMSU=  2.32D-08    CP:  1.05D+00  5.63D-01  7.82D-01  8.10D-01  8.48D-01
                    CP:  9.73D-01  9.80D-01  9.35D-01  1.00D+00  1.06D+00
                    CP:  8.67D-01  1.17D+00  1.53D+00  1.95D+00  2.01D+00
 E= -4527.55032721548     Delta-E=       -0.000000000222 Rises=F Damp=F
 DIIS: error= 5.07D-08 at cycle  16 NSaved=  16.
 NSaved=16 IEnMin=16 EnMin= -4527.55032721548     IErMin=15 ErrMin= 4.08D-08
 ErrMax= 5.07D-08  0.00D+00 EMaxC= 1.00D-01 BMatC= 1.79D-12 BMatP= 8.26D-12
 IDIUse=1 WtCom= 1.00D+00 WtEn= 0.00D+00
 Coeff-Com:  0.948D-08-0.535D-06-0.125D-05-0.297D-05 0.593D-05 0.407D-04
 Coeff-Com:  0.143D-03 0.204D-03-0.393D-04-0.214D-02-0.924D-02-0.123D-01
 Coeff-Com:  0.237D-01 0.123D+00 0.350D+00 0.526D+00
 Coeff:      0.948D-08-0.535D-06-0.125D-05-0.297D-05 0.593D-05 0.407D-04
 Coeff:      0.143D-03 0.204D-03-0.393D-04-0.214D-02-0.924D-02-0.123D-01
 Coeff:      0.237D-01 0.123D+00 0.350D+00 0.526D+00
 Gap=     0.113 Goal=   None    Shift=    0.000
 RMSDP=5.10D-08 MaxDP=4.29D-06 DE=-2.22D-10 OVMax= 2.38D-07

 Cycle  17  Pass 1  IDiag  1:
 RMSU=  1.81D-08    CP:  1.05D+00  5.63D-01  7.82D-01  8.10D-01  8.48D-01
                    CP:  9.73D-01  9.80D-01  9.35D-01  1.00D+00  1.06D+00
                    CP:  8.73D-01  1.22D+00  1.68D+00  2.50D+00  3.00D+00
                    CP:  2.43D+00
 E= -4527.55032721548     Delta-E=       -0.000000000007 Rises=F Damp=F
 DIIS: error= 8.64D-08 at cycle  17 NSaved=  17.
 NSaved=17 IEnMin=17 EnMin= -4527.55032721548     IErMin=15 ErrMin= 4.08D-08
 ErrMax= 8.64D-08  0.00D+00 EMaxC= 1.00D-01 BMatC= 1.79D-12 BMatP= 1.79D-12
 IDIUse=1 WtCom= 1.00D+00 WtEn= 0.00D+00
 Coeff-Com:  0.234D-07-0.675D-06-0.194D-05-0.497D-05 0.496D-05 0.470D-04
 Coeff-Com:  0.180D-03 0.297D-03 0.148D-03-0.251D-02-0.113D-01-0.180D-01
 Coeff-Com:  0.189D-01 0.144D+00 0.460D+00 0.776D+00-0.368D+00
 Coeff:      0.234D-07-0.675D-06-0.194D-05-0.497D-05 0.496D-05 0.470D-04
 Coeff:      0.180D-03 0.297D-03 0.148D-03-0.251D-02-0.113D-01-0.180D-01
 Coeff:      0.189D-01 0.144D+00 0.460D+00 0.776D+00-0.368D+00
 Gap=     0.113 Goal=   None    Shift=    0.000
 RMSDP=4.38D-08 MaxDP=4.01D-06 DE=-7.28D-12 OVMax= 3.54D-08

 Cycle  18  Pass 1  IDiag  1:
 RMSU=  1.27D-08    CP:  1.05D+00  5.63D-01  7.82D-01  8.10D-01  8.48D-01
                    CP:  9.73D-01  9.80D-01  9.35D-01  1.00D+00  1.06D+00
                    CP:  8.66D-01  1.18D+00  1.60D+00  2.21D+00  2.37D+00
                    CP:  1.21D+00 -1.98D-01
 E= -4527.55032721534     Delta-E=        0.000000000146 Rises=F Damp=F
 DIIS: error= 4.35D-08 at cycle  18 NSaved=  18.
 NSaved=18 IEnMin=17 EnMin= -4527.55032721548     IErMin=15 ErrMin= 4.08D-08
 ErrMax= 4.35D-08  0.00D+00 EMaxC= 1.00D-01 BMatC= 9.83D-13 BMatP= 1.79D-12
 IDIUse=1 WtCom= 1.00D+00 WtEn= 0.00D+00
 Coeff-Com:  0.224D-07-0.495D-06-0.168D-05-0.439D-05 0.185D-05 0.317D-04
 Coeff-Com:  0.131D-03 0.242D-03 0.217D-03-0.163D-02-0.802D-02-0.146D-01
 Coeff-Com:  0.707D-02 0.979D-01 0.333D+00 0.653D+00-0.737D+00 0.670D+00
 Coeff:      0.224D-07-0.495D-06-0.168D-05-0.439D-05 0.185D-05 0.317D-04
 Coeff:      0.131D-03 0.242D-03 0.217D-03-0.163D-02-0.802D-02-0.146D-01
 Coeff:      0.707D-02 0.979D-01 0.333D+00 0.653D+00-0.737D+00 0.670D+00
 Gap=     0.113 Goal=   None    Shift=    0.000
 RMSDP=3.57D-08 MaxDP=3.17D-06 DE= 1.46D-10 OVMax= 5.01D-08

 Cycle  19  Pass 1  IDiag  1:
 RMSU=  1.98D-08    CP:  1.05D+00  5.63D-01  7.82D-01  8.10D-01  8.48D-01
                    CP:  9.73D-01  9.80D-01  9.34D-01  1.00D+00  1.06D+00
                    CP:  8.62D-01  1.18D+00  1.64D+00  2.40D+00  2.39D+00
                    CP:  7.59D-01 -1.17D+00  2.59D+00
 E= -4527.55032721539     Delta-E=       -0.000000000055 Rises=F Damp=F
 DIIS: error= 4.16D-08 at cycle  19 NSaved=  19.
 NSaved=19 IEnMin=17 EnMin= -4527.55032721548     IErMin=15 ErrMin= 4.08D-08
 ErrMax= 4.16D-08  0.00D+00 EMaxC= 1.00D-01 BMatC= 9.64D-13 BMatP= 9.83D-13
 IDIUse=1 WtCom= 1.00D+00 WtEn= 0.00D+00
 Coeff-Com:  0.297D-07-0.536D-06-0.199D-05-0.532D-05 0.835D-06 0.328D-04
 Coeff-Com:  0.143D-03 0.282D-03 0.319D-03-0.166D-02-0.857D-02-0.168D-01
 Coeff-Com:  0.320D-02 0.102D+00 0.367D+00 0.761D+00-0.989D+00 0.112D+01
 Coeff-Com: -0.335D+00
 Coeff:      0.297D-07-0.536D-06-0.199D-05-0.532D-05 0.835D-06 0.328D-04
 Coeff:      0.143D-03 0.282D-03 0.319D-03-0.166D-02-0.857D-02-0.168D-01
 Coeff:      0.320D-02 0.102D+00 0.367D+00 0.761D+00-0.989D+00 0.112D+01
 Coeff:     -0.335D+00
 Gap=     0.113 Goal=   None    Shift=    0.000
 RMSDP=2.33D-08 MaxDP=2.24D-06 DE=-5.46D-11 OVMax= 2.15D-08

 Cycle  20  Pass 1  IDiag  1:
 RMSU=  1.02D-08    CP:  1.05D+00  5.63D-01  7.82D-01  8.10D-01  8.48D-01
                    CP:  9.73D-01  9.80D-01  9.35D-01  1.00D+00  1.06D+00
                    CP:  8.62D-01  1.17D+00  1.58D+00  2.16D+00  1.96D+00
                    CP:  4.06D-01 -1.11D+00  2.01D+00  4.01D-01
 E= -4527.55032721497     Delta-E=        0.000000000426 Rises=F Damp=F
 DIIS: error= 3.82D-08 at cycle  20 NSaved=  20.
 NSaved=20 IEnMin=17 EnMin= -4527.55032721548     IErMin=20 ErrMin= 3.82D-08
 ErrMax= 3.82D-08  0.00D+00 EMaxC= 1.00D-01 BMatC= 7.93D-13 BMatP= 9.64D-13
 IDIUse=1 WtCom= 1.00D+00 WtEn= 0.00D+00
 Coeff-Com:  0.258D-07-0.489D-06-0.184D-05-0.489D-05 0.571D-06 0.293D-04
 Coeff-Com:  0.129D-03 0.258D-03 0.299D-03-0.147D-02-0.774D-02-0.155D-01
 Coeff-Com:  0.186D-02 0.911D-01 0.331D+00 0.704D+00-0.995D+00 0.115D+01
 Coeff-Com: -0.662D+00 0.400D+00
 Coeff:      0.258D-07-0.489D-06-0.184D-05-0.489D-05 0.571D-06 0.293D-04
 Coeff:      0.129D-03 0.258D-03 0.299D-03-0.147D-02-0.774D-02-0.155D-01
 Coeff:      0.186D-02 0.911D-01 0.331D+00 0.704D+00-0.995D+00 0.115D+01
 Coeff:     -0.662D+00 0.400D+00
 Gap=     0.113 Goal=   None    Shift=    0.000
 RMSDP=1.57D-08 MaxDP=1.23D-06 DE= 4.26D-10 OVMax= 1.06D-08

 Cycle  21  Pass 1  IDiag  1:
 Restarting incremental Fock formation.
 E= -4527.55032720998     Delta-E=        0.000000004988 Rises=F Damp=F
 DIIS: error= 1.69D-07 at cycle  21 NSaved=  20.
 NSaved=20 IEnMin=16 EnMin= -4527.55032721548     IErMin=19 ErrMin= 3.82D-08
 ErrMax= 1.69D-07  0.00D+00 EMaxC= 1.00D-01 BMatC= 3.19D-11 BMatP= 7.93D-13
 IDIUse=1 WtCom= 1.00D+00 WtEn= 0.00D+00
 Coeff-Com: -0.494D-06-0.166D-05-0.428D-05 0.175D-05 0.299D-04 0.125D-03
 Coeff-Com:  0.241D-03 0.257D-03-0.146D-02-0.753D-02-0.150D-01 0.202D-02
 Coeff-Com:  0.887D-01 0.321D+00 0.686D+00-0.972D+00 0.114D+01-0.656D+00
 Coeff-Com:  0.396D+00 0.226D-01
 Coeff:     -0.494D-06-0.166D-05-0.428D-05 0.175D-05 0.299D-04 0.125D-03
 Coeff:      0.241D-03 0.257D-03-0.146D-02-0.753D-02-0.150D-01 0.202D-02
 Coeff:      0.887D-01 0.321D+00 0.686D+00-0.972D+00 0.114D+01-0.656D+00
 Coeff:      0.396D+00 0.226D-01
 Gap=     0.113 Goal=   None    Shift=    0.000
 RMSDP=1.59D-08 MaxDP=1.23D-06 DE= 4.99D-09 OVMax= 1.48D-08

 Cycle  22  Pass 1  IDiag  1:
 RMSU=  1.58D-08    CP:  1.00D+00
 E= -4527.55032721064     Delta-E=       -0.000000000658 Rises=F Damp=F
 DIIS: error= 1.61D-07 at cycle  22 NSaved=  20.
 NSaved=20 IEnMin=15 EnMin= -4527.55032721548     IErMin=18 ErrMin= 3.82D-08
 ErrMax= 1.61D-07  0.00D+00 EMaxC= 1.00D-01 BMatC= 3.08D-11 BMatP= 7.93D-13
 IDIUse=1 WtCom= 1.00D+00 WtEn= 0.00D+00
 Coeff-Com: -0.287D-06-0.149D-05 0.338D-05 0.221D-04 0.757D-04 0.148D-03
 Coeff-Com:  0.150D-03-0.108D-02-0.612D-02-0.126D-01 0.114D-02 0.791D-01
 Coeff-Com:  0.295D+00 0.654D+00-0.949D+00 0.114D+01-0.665D+00 0.438D+00
 Coeff-Com: -0.165D+00 0.192D+00
 Coeff:     -0.287D-06-0.149D-05 0.338D-05 0.221D-04 0.757D-04 0.148D-03
 Coeff:      0.150D-03-0.108D-02-0.612D-02-0.126D-01 0.114D-02 0.791D-01
 Coeff:      0.295D+00 0.654D+00-0.949D+00 0.114D+01-0.665D+00 0.438D+00
 Coeff:     -0.165D+00 0.192D+00
 Gap=     0.113 Goal=   None    Shift=    0.000
 RMSDP=6.61D-09 MaxDP=5.91D-07 DE=-6.58D-10 OVMax= 5.67D-09

 Error on total polarization charges =  0.04881
 SCF Done:  E(RM06) =  -4527.55032721     A.U. after   22 cycles
            NFock= 22  Conv=0.66D-08     -V/T= 2.0035
 KE= 4.511552505927D+03 PE=-3.563529432459D+04 EE= 1.409335785829D+04
 SMD-CDS (non-electrostatic) energy       (kcal/mol) =     -14.71
 (included in total energy above)
 Leave Link  502 at Sat Jul  2 06:24:54 2022, MaxMem=  5242880000 cpu:    175404.2
 (Enter /opt/nce/packages/global/g09/l801.exe)
 DoSCS=F DFT=T ScalE2(SS,OS)=  1.000000  1.000000
 ExpMin= 9.52D-02 ExpMax= 6.07D+04 ExpMxC= 2.07D+03 IAcc=3 IRadAn=         5 AccDes= 0.00D+00
 HarFok:  IExCor=  205 AccDes= 0.00D+00 IRadAn=         5 IDoV=-2 UseB2=F ITyADJ=14
 ICtDFT= 12500011 ScaDFX=  1.000000  1.000000  1.000000  1.000000
 Largest valence mixing into a core orbital is  1.15D-04
 Largest core mixing into a valence orbital is  2.49D-05
 Range of M.O.s used for correlation:    85  2312
 NBasis=  2312 NAE=   252 NBE=   252 NFC=    84 NFV=     0
 NROrb=   2228 NOA=   168 NOB=   168 NVA=  2060 NVB=  2060

 **** Warning!!: The largest alpha MO coefficient is  0.45767009D+02

 Leave Link  801 at Sat Jul  2 06:24:55 2022, MaxMem=  5242880000 cpu:        10.0
 (Enter /opt/nce/packages/global/g09/l914.exe)
 RHF ground state
 MDV=  5242880000 DFT=T DoStab=F Mixed=T DoRPA=T DoScal=F NonHer=T
 Would need an additional      10762741100000 words for in-memory AO integral storage.
 NEqPCM:  Using non-equilibrium solvation (IEInf=1, Eps=   8.9300, EpsInf=   2.0283)
 Inv3:  Mode=1 IEnd=   145951875.
 Iteration    1 A*A^-1 deviation from unit magnitude is 5.66D-15 for   6933.
 Iteration    1 A*A^-1 deviation from orthogonality  is 4.51D-15 for   6948   5381.
 Iteration    1 A^-1*A deviation from unit magnitude is 5.88D-15 for   6933.
 Iteration    1 A^-1*A deviation from orthogonality  is 3.88D-15 for   6965   5299.
 Making orbital integer symmetry assigments:
 Orbital symmetries:
       Occupied  (A) (A) (A) (A) (A) (A) (A) (A) (A) (A) (A) (A)
                 (A) (A) (A) (A) (A) (A) (A) (A) (A) (A) (A) (A)
                 (A) (A) (A) (A) (A) (A) (A) (A) (A) (A) (A) (A)
                 (A) (A) (A) (A) (A) (A) (A) (A) (A) (A) (A) (A)
                 (A) (A) (A) (A) (A) (A) (A) (A) (A) (A) (A) (A)
                 (A) (A) (A) (A) (A) (A) (A) (A) (A) (A) (A) (A)
                 (A) (A) (A) (A) (A) (A) (A) (A) (A) (A) (A) (A)
                 (A) (A) (A) (A) (A) (A) (A) (A) (A) (A) (A) (A)
                 (A) (A) (A) (A) (A) (A) (A) (A) (A) (A) (A) (A)
                 (A) (A) (A) (A) (A) (A) (A) (A) (A) (A) (A) (A)
                 (A) (A) (A) (A) (A) (A) (A) (A) (A) (A) (A) (A)
                 (A) (A) (A) (A) (A) (A) (A) (A) (A) (A) (A) (A)
                 (A) (A) (A) (A) (A) (A) (A) (A) (A) (A) (A) (A)
                 (A) (A) (A) (A) (A) (A) (A) (A) (A) (A) (A) (A)
                 (A) (A) (A) (A) (A) (A) (A) (A) (A) (A) (A) (A)
                 (A) (A) (A) (A) (A) (A) (A) (A) (A) (A) (A) (A)
                 (A) (A) (A) (A) (A) (A) (A) (A) (A) (A) (A) (A)
                 (A) (A) (A) (A) (A) (A) (A) (A) (A) (A) (A) (A)
                 (A) (A) (A) (A) (A) (A) (A) (A) (A) (A) (A) (A)
                 (A) (A) (A) (A) (A) (A) (A) (A) (A) (A) (A) (A)
                 (A) (A) (A) (A) (A) (A) (A) (A) (A) (A) (A) (A)
       Virtual   (A) (A) (A) (A) (A) (A) (A) (A) (A) (A) (A) (A)
                 (A) (A) (A) (A) (A) (A) (A) (A) (A) (A) (A) (A)
                 (A) (A) (A) (A) (A) (A) (A) (A) (A) (A) (A) (A)
                 (A) (A) (A) (A) (A) (A) (A) (A) (A) (A) (A) (A)
                 (A) (A) (A) (A) (A) (A) (A) (A) (A) (A) (A) (A)
                 (A) (A) (A) (A) (A) (A) (A) (A) (A) (A) (A) (A)
                 (A) (A) (A) (A) (A) (A) (A) (A) (A) (A) (A) (A)
                 (A) (A) (A) (A) (A) (A) (A) (A) (A) (A) (A) (A)
                 (A) (A) (A) (A) (A) (A) (A) (A) (A) (A) (A) (A)
                 (A) (A) (A) (A) (A) (A) (A) (A) (A) (A) (A) (A)
                 (A) (A) (A) (A) (A) (A) (A) (A) (A) (A) (A) (A)
                 (A) (A) (A) (A) (A) (A) (A) (A) (A) (A) (A) (A)
                 (A) (A) (A) (A) (A) (A) (A) (A) (A) (A) (A) (A)
                 (A) (A) (A) (A) (A) (A) (A) (A) (A) (A) (A) (A)
                 (A) (A) (A) (A) (A) (A) (A) (A) (A) (A) (A) (A)
                 (A) (A) (A) (A) (A) (A) (A) (A) (A) (A) (A) (A)
                 (A) (A) (A) (A) (A) (A) (A) (A) (A) (A) (A) (A)
                 (A) (A) (A) (A) (A) (A) (A) (A) (A) (A) (A) (A)
                 (A) (A) (A) (A) (A) (A) (A) (A) (A) (A) (A) (A)
                 (A) (A) (A) (A) (A) (A) (A) (A) (A) (A) (A) (A)
                 (A) (A) (A) (A) (A) (A) (A) (A) (A) (A) (A) (A)
                 (A) (A) (A) (A) (A) (A) (A) (A) (A) (A) (A) (A)
                 (A) (A) (A) (A) (A) (A) (A) (A) (A) (A) (A) (A)
                 (A) (A) (A) (A) (A) (A) (A) (A) (A) (A) (A) (A)
                 (A) (A) (A) (A) (A) (A) (A) (A) (A) (A) (A) (A)
                 (A) (A) (A) (A) (A) (A) (A) (A) (A) (A) (A) (A)
                 (A) (A) (A) (A) (A) (A) (A) (A) (A) (A) (A) (A)
                 (A) (A) (A) (A) (A) (A) (A) (A) (A) (A) (A) (A)
                 (A) (A) (A) (A) (A) (A) (A) (A) (A) (A) (A) (A)
                 (A) (A) (A) (A) (A) (A) (A) (A) (A) (A) (A) (A)
                 (A) (A) (A) (A) (A) (A) (A) (A) (A) (A) (A) (A)
                 (A) (A) (A) (A) (A) (A) (A) (A) (A) (A) (A) (A)
                 (A) (A) (A) (A) (A) (A) (A) (A) (A) (A) (A) (A)
                 (A) (A) (A) (A) (A) (A) (A) (A) (A) (A) (A) (A)
                 (A) (A) (A) (A) (A) (A) (A) (A) (A) (A) (A) (A)
                 (A) (A) (A) (A) (A) (A) (A) (A) (A) (A) (A) (A)
                 (A) (A) (A) (A) (A) (A) (A) (A) (A) (A) (A) (A)
                 (A) (A) (A) (A) (A) (A) (A) (A) (A) (A) (A) (A)
                 (A) (A) (A) (A) (A) (A) (A) (A) (A) (A) (A) (A)
                 (A) (A) (A) (A) (A) (A) (A) (A) (A) (A) (A) (A)
                 (A) (A) (A) (A) (A) (A) (A) (A) (A) (A) (A) (A)
                 (A) (A) (A) (A) (A) (A) (A) (A) (A) (A) (A) (A)
                 (A) (A) (A) (A) (A) (A) (A) (A) (A) (A) (A) (A)
                 (A) (A) (A) (A) (A) (A) (A) (A) (A) (A) (A) (A)
                 (A) (A) (A) (A) (A) (A) (A) (A) (A) (A) (A) (A)
                 (A) (A) (A) (A) (A) (A) (A) (A) (A) (A) (A) (A)
                 (A) (A) (A) (A) (A) (A) (A) (A) (A) (A) (A) (A)
                 (A) (A) (A) (A) (A) (A) (A) (A) (A) (A) (A) (A)
                 (A) (A) (A) (A) (A) (A) (A) (A) (A) (A) (A) (A)
                 (A) (A) (A) (A) (A) (A) (A) (A) (A) (A) (A) (A)
                 (A) (A) (A) (A) (A) (A) (A) (A) (A) (A) (A) (A)
                 (A) (A) (A) (A) (A) (A) (A) (A) (A) (A) (A) (A)
                 (A) (A) (A) (A) (A) (A) (A) (A) (A) (A) (A) (A)
                 (A) (A) (A) (A) (A) (A) (A) (A) (A) (A) (A) (A)
                 (A) (A) (A) (A) (A) (A) (A) (A) (A) (A) (A) (A)
                 (A) (A) (A) (A) (A) (A) (A) (A) (A) (A) (A) (A)
                 (A) (A) (A) (A) (A) (A) (A) (A) (A) (A) (A) (A)
                 (A) (A) (A) (A) (A) (A) (A) (A) (A) (A) (A) (A)
                 (A) (A) (A) (A) (A) (A) (A) (A) (A) (A) (A) (A)
                 (A) (A) (A) (A) (A) (A) (A) (A) (A) (A) (A) (A)
                 (A) (A) (A) (A) (A) (A) (A) (A) (A) (A) (A) (A)
                 (A) (A) (A) (A) (A) (A) (A) (A) (A) (A) (A) (A)
                 (A) (A) (A) (A) (A) (A) (A) (A) (A) (A) (A) (A)
                 (A) (A) (A) (A) (A) (A) (A) (A) (A) (A) (A) (A)
                 (A) (A) (A) (A) (A) (A) (A) (A) (A) (A) (A) (A)
                 (A) (A) (A) (A) (A) (A) (A) (A) (A) (A) (A) (A)
                 (A) (A) (A) (A) (A) (A) (A) (A) (A) (A) (A) (A)
                 (A) (A) (A) (A) (A) (A) (A) (A) (A) (A) (A) (A)
                 (A) (A) (A) (A) (A) (A) (A) (A) (A) (A) (A) (A)
                 (A) (A) (A) (A) (A) (A) (A) (A) (A) (A) (A) (A)
                 (A) (A) (A) (A) (A) (A) (A) (A) (A) (A) (A) (A)
                 (A) (A) (A) (A) (A) (A) (A) (A) (A) (A) (A) (A)
                 (A) (A) (A) (A) (A) (A) (A) (A) (A) (A) (A) (A)
                 (A) (A) (A) (A) (A) (A) (A) (A) (A) (A) (A) (A)
                 (A) (A) (A) (A) (A) (A) (A) (A) (A) (A) (A) (A)
                 (A) (A) (A) (A) (A) (A) (A) (A) (A) (A) (A) (A)
                 (A) (A) (A) (A) (A) (A) (A) (A) (A) (A) (A) (A)
                 (A) (A) (A) (A) (A) (A) (A) (A) (A) (A) (A) (A)
                 (A) (A) (A) (A) (A) (A) (A) (A) (A) (A) (A) (A)
                 (A) (A) (A) (A) (A) (A) (A) (A) (A) (A) (A) (A)
                 (A) (A) (A) (A) (A) (A) (A) (A) (A) (A) (A) (A)
                 (A) (A) (A) (A) (A) (A) (A) (A) (A) (A) (A) (A)
                 (A) (A) (A) (A) (A) (A) (A) (A) (A) (A) (A) (A)
                 (A) (A) (A) (A) (A) (A) (A) (A) (A) (A) (A) (A)
                 (A) (A) (A) (A) (A) (A) (A) (A) (A) (A) (A) (A)
                 (A) (A) (A) (A) (A) (A) (A) (A) (A) (A) (A) (A)
                 (A) (A) (A) (A) (A) (A) (A) (A) (A) (A) (A) (A)
                 (A) (A) (A) (A) (A) (A) (A) (A) (A) (A) (A) (A)
                 (A) (A) (A) (A) (A) (A) (A) (A) (A) (A) (A) (A)
                 (A) (A) (A) (A) (A) (A) (A) (A) (A) (A) (A) (A)
                 (A) (A) (A) (A) (A) (A) (A) (A) (A) (A) (A) (A)
                 (A) (A) (A) (A) (A) (A) (A) (A) (A) (A) (A) (A)
                 (A) (A) (A) (A) (A) (A) (A) (A) (A) (A) (A) (A)
                 (A) (A) (A) (A) (A) (A) (A) (A) (A) (A) (A) (A)
                 (A) (A) (A) (A) (A) (A) (A) (A) (A) (A) (A) (A)
                 (A) (A) (A) (A) (A) (A) (A) (A) (A) (A) (A) (A)
                 (A) (A) (A) (A) (A) (A) (A) (A) (A) (A) (A) (A)
                 (A) (A) (A) (A) (A) (A) (A) (A) (A) (A) (A) (A)
                 (A) (A) (A) (A) (A) (A) (A) (A) (A) (A) (A) (A)
                 (A) (A) (A) (A) (A) (A) (A) (A) (A) (A) (A) (A)
                 (A) (A) (A) (A) (A) (A) (A) (A) (A) (A) (A) (A)
                 (A) (A) (A) (A) (A) (A) (A) (A) (A) (A) (A) (A)
                 (A) (A) (A) (A) (A) (A) (A) (A) (A) (A) (A) (A)
                 (A) (A) (A) (A) (A) (A) (A) (A) (A) (A) (A) (A)
                 (A) (A) (A) (A) (A) (A) (A) (A) (A) (A) (A) (A)
                 (A) (A) (A) (A) (A) (A) (A) (A) (A) (A) (A) (A)
                 (A) (A) (A) (A) (A) (A) (A) (A) (A) (A) (A) (A)
                 (A) (A) (A) (A) (A) (A) (A) (A) (A) (A) (A) (A)
                 (A) (A) (A) (A) (A) (A) (A) (A) (A) (A) (A) (A)
                 (A) (A) (A) (A) (A) (A) (A) (A) (A) (A) (A) (A)
                 (A) (A) (A) (A) (A) (A) (A) (A) (A) (A) (A) (A)
                 (A) (A) (A) (A) (A) (A) (A) (A) (A) (A) (A) (A)
                 (A) (A) (A) (A) (A) (A) (A) (A) (A) (A) (A) (A)
                 (A) (A) (A) (A) (A) (A) (A) (A) (A) (A) (A) (A)
                 (A) (A) (A) (A) (A) (A) (A) (A) (A) (A) (A) (A)
                 (A) (A) (A) (A) (A) (A) (A) (A) (A) (A) (A) (A)
                 (A) (A) (A) (A) (A) (A) (A) (A) (A) (A) (A) (A)
                 (A) (A) (A) (A) (A) (A) (A) (A) (A) (A) (A) (A)
                 (A) (A) (A) (A) (A) (A) (A) (A) (A) (A) (A) (A)
                 (A) (A) (A) (A) (A) (A) (A) (A) (A) (A) (A) (A)
                 (A) (A) (A) (A) (A) (A) (A) (A) (A) (A) (A) (A)
                 (A) (A) (A) (A) (A) (A) (A) (A) (A) (A) (A) (A)
                 (A) (A) (A) (A) (A) (A) (A) (A) (A) (A) (A) (A)
                 (A) (A) (A) (A) (A) (A) (A) (A) (A) (A) (A) (A)
                 (A) (A) (A) (A) (A) (A) (A) (A) (A) (A) (A) (A)
                 (A) (A) (A) (A) (A) (A) (A) (A) (A) (A) (A) (A)
                 (A) (A) (A) (A) (A) (A) (A) (A) (A) (A) (A) (A)
                 (A) (A) (A) (A) (A) (A) (A) (A) (A) (A) (A) (A)
                 (A) (A) (A) (A) (A) (A) (A) (A) (A) (A) (A) (A)
                 (A) (A) (A) (A) (A) (A) (A) (A) (A) (A) (A) (A)
                 (A) (A) (A) (A) (A) (A) (A) (A) (A) (A) (A) (A)
                 (A) (A) (A) (A) (A) (A) (A) (A) (A) (A) (A) (A)
                 (A) (A) (A) (A) (A) (A) (A) (A) (A) (A) (A) (A)
                 (A) (A) (A) (A) (A) (A) (A) (A) (A) (A) (A) (A)
                 (A) (A) (A) (A) (A) (A) (A) (A) (A) (A) (A) (A)
                 (A) (A) (A) (A) (A) (A) (A) (A) (A) (A) (A) (A)
                 (A) (A) (A) (A) (A) (A) (A) (A) (A) (A) (A) (A)
                 (A) (A) (A) (A) (A) (A) (A) (A) (A) (A) (A) (A)
                 (A) (A) (A) (A) (A) (A) (A) (A) (A) (A) (A) (A)
                 (A) (A) (A) (A) (A) (A) (A) (A) (A) (A) (A) (A)
                 (A) (A) (A) (A) (A) (A) (A) (A) (A) (A) (A) (A)
                 (A) (A) (A) (A) (A) (A) (A) (A) (A) (A) (A) (A)
                 (A) (A) (A) (A) (A) (A) (A) (A) (A) (A) (A) (A)
                 (A) (A) (A) (A) (A) (A) (A) (A) (A) (A) (A) (A)
                 (A) (A) (A) (A) (A) (A) (A) (A) (A) (A) (A) (A)
                 (A) (A) (A) (A) (A) (A) (A) (A) (A) (A) (A) (A)
                 (A) (A) (A) (A) (A) (A) (A) (A) (A) (A) (A) (A)
                 (A) (A) (A) (A) (A) (A) (A) (A) (A) (A) (A) (A)
                 (A) (A) (A) (A) (A) (A) (A) (A) (A) (A) (A) (A)
                 (A) (A) (A) (A) (A) (A) (A) (A) (A) (A) (A) (A)
                 (A) (A) (A) (A) (A) (A) (A) (A) (A) (A) (A) (A)
                 (A) (A) (A) (A) (A) (A) (A) (A) (A) (A) (A) (A)
                 (A) (A) (A) (A) (A) (A) (A) (A) (A) (A) (A) (A)
                 (A) (A) (A) (A) (A) (A) (A) (A) (A) (A) (A) (A)
                 (A) (A) (A) (A) (A) (A) (A) (A) (A) (A) (A) (A)
                 (A) (A) (A) (A) (A) (A) (A) (A) (A) (A) (A) (A)
                 (A) (A) (A) (A) (A) (A) (A) (A) (A) (A) (A) (A)
                 (A) (A) (A) (A) (A) (A) (A) (A) (A) (A) (A) (A)
                 (A) (A) (A) (A) (A) (A) (A) (A) (A) (A) (A) (A)
                 (A) (A) (A) (A) (A) (A) (A) (A) (A) (A) (A) (A)
                 (A) (A) (A) (A) (A) (A) (A) (A) (A) (A) (A) (A)
                 (A) (A) (A) (A) (A) (A) (A) (A) (A) (A) (A) (A)
                 (A) (A) (A) (A) (A) (A) (A) (A) (A) (A) (A) (A)
                 (A) (A) (A) (A) (A) (A) (A) (A) (A) (A) (A) (A)
                 (A) (A) (A) (A) (A) (A) (A) (A) (A) (A) (A) (A)
                 (A) (A) (A) (A) (A) (A) (A) (A) (A) (A) (A) (A)
                 (A) (A) (A) (A) (A) (A) (A) (A) (A) (A) (A) (A)
                 (A) (A) (A) (A) (A) (A) (A) (A) (A) (A) (A) (A)
                 (A) (A) (A) (A) (A) (A) (A) (A) (A) (A) (A) (A)
                 (A) (A) (A) (A) (A) (A) (A) (A) (A) (A) (A) (A)
                 (A) (A) (A) (A) (A) (A) (A) (A) (A) (A) (A) (A)
                 (A) (A) (A) (A) (A) (A) (A) (A)
   120 initial guesses have been made.
 Convergence on wavefunction:    0.001000000000000
 Davidson Disk Diagonalization:  ConvIn= 1.00D-03 SkipCon=T Conv= 1.00D-03.
 Max sub-space:   480 roots to seek:   120 dimension of matrix:       692160
 Iteration     1 Dimension   120 NMult     0 NNew    120
 CISAX will form    48 AO SS matrices at one time.
 NMat=    48 NSing=    48 JSym2X= 0.
 FoFJK:  IHMeth= 1 ICntrl=       0 DoSepK=F KAlg= 0 I1Cent=   0 FoldK=F
 IRaf=         0 NMat=  96 IRICut=       1 DoRegI=T DoRafI=F ISym2E= 0.
 NMat=    48 NSing=    48 JSym2X= 0.
 NMat=    24 NSing=    24 JSym2X= 0.
 New state      2 was old state      4
 New state      3 was old state      5
 New state      4 was old state      2
 New state      5 was old state      3
 New state      6 was old state      8
 New state      7 was old state      6
 New state      8 was old state      7
 New state     11 was old state     14
 New state     12 was old state     15
 New state     14 was old state     11
 New state     15 was old state     12
 New state     16 was old state     19
 New state     18 was old state     20
 New state     19 was old state     18
 New state     20 was old state     22
 New state     21 was old state     24
 New state     22 was old state     16
 New state     23 was old state     25
 New state     24 was old state     31
 New state     25 was old state     30
 New state     26 was old state     23
 New state     27 was old state     47
 New state     28 was old state     29
 New state     29 was old state     28
 New state     30 was old state     26
 Excitation Energies [eV] at current iteration:
 Root      1 :     2.669752504673083
 Root      2 :     3.121787284855432
 Root      3 :     3.129358644268465
 Root      4 :     3.130748002324731
 Root      5 :     3.145896903330878
 Root      6 :     3.253295331748154
 Root      7 :     3.403096581344800
 Root      8 :     3.414921509969112
 Root      9 :     3.434779550611316
 Root     10 :     3.444615620932918
 Root     11 :     3.471186705826941
 Root     12 :     3.472932936669401
 Root     13 :     3.527462731815439
 Root     14 :     3.546425189473926
 Root     15 :     3.548671214333373
 Root     16 :     3.924177542749383
 Root     17 :     3.943271550521025
 Root     18 :     3.947476258225007
 Root     19 :     3.971446248801821
 Root     20 :     4.089249177929471
 Root     21 :     4.232183934315930
 Root     22 :     4.286607178702720
 Root     23 :     4.378367909891107
 Root     24 :     4.413966918187924
 Root     25 :     4.427169819435550
 Root     26 :     4.470483753984657
 Root     27 :     4.484937031559633
 Root     28 :     4.616465723214040
 Root     29 :     4.618948623830849
 Root     30 :     4.629078581663636
 Root     31 :     4.631625676483719
 Root     32 :     4.699005016089735
 Root     33 :     4.754270021916843
 Root     34 :     4.770045474362383
 Root     35 :     4.844755719362778
 Root     36 :     4.895103485290263
 Root     37 :     4.902570458761601
 Root     38 :     4.904004778828959
 Root     39 :     4.913676320673968
 Root     40 :     4.923686231682349
 Root     41 :     4.928938087472500
 Root     42 :     4.933219937602744
 Root     43 :     4.944836505020302
 Root     44 :     4.988228194050926
 Root     45 :     4.993875538029435
 Root     46 :     5.005333268025698
 Root     47 :     5.042666904463398
 Root     48 :     5.060438092131834
 Root     49 :     5.062691102300375
 Root     50 :     5.105173863295561
 Root     51 :     5.106189888520815
 Root     52 :     5.116176487518726
 Root     53 :     5.140272169332019
 Root     54 :     5.147127698185054
 Root     55 :     5.161392370413910
 Root     56 :     5.165728281678639
 Root     57 :     5.202220043238841
 Root     58 :     5.208119751076073
 Root     59 :     5.219281262196581
 Root     60 :     5.229246905324458
 Root     61 :     5.243678503944198
 Root     62 :     5.269845867007677
 Root     63 :     5.296942422459963
 Root     64 :     5.297933058322292
 Root     65 :     5.303815501752066
 Root     66 :     5.308445873732884
 Root     67 :     5.315577112695829
 Root     68 :     5.323762164379420
 Root     69 :     5.332700484908114
 Root     70 :     5.333612641840515
 Root     71 :     5.336367705103871
 Root     72 :     5.338131441917580
 Root     73 :     5.360871579005702
 Root     74 :     5.365321067978091
 Root     75 :     5.368366266258576
 Root     76 :     5.386686997549827
 Root     77 :     5.402892455452872
 Root     78 :     5.410148177951069
 Root     79 :     5.424374642496670
 Root     80 :     5.446975013291481
 Root     81 :     5.448044551115146
 Root     82 :     5.457737225131932
 Root     83 :     5.480234928354244
 Root     84 :     5.486124864146541
 Root     85 :     5.491259199948014
 Root     86 :     5.495847677697243
 Root     87 :     5.499867120785595
 Root     88 :     5.506320244287090
 Root     89 :     5.524001248261029
 Root     90 :     5.597814801875467
 Root     91 :     5.605740660638584
 Root     92 :     5.616360473738562
 Root     93 :     5.646427283116784
 Root     94 :     5.646843044302999
 Root     95 :     5.647504256638064
 Root     96 :     5.691326067726624
 Root     97 :     5.694976030496129
 Root     98 :     5.698929506913502
 Root     99 :     5.704378626461571
 Root    100 :     5.717921675836621
 Root    101 :     5.721080586727147
 Root    102 :     5.758031588308409
 Root    103 :     5.773842354013244
 Root    104 :     5.799581393591159
 Root    105 :     5.800001648068612
 Root    106 :     5.834649786288479
 Root    107 :     5.838951309515024
 Root    108 :     5.847323554791741
 Root    109 :     5.865919944164058
 Root    110 :     5.971069560559359
 Root    111 :     5.991772674499301
 Root    112 :     6.033347741929358
 Root    113 :     6.045303208939051
 Root    114 :     6.047506913776282
 Root    115 :     6.052953715614999
 Root    116 :     6.072708705065052
 Root    117 :     6.085023912838562
 Root    118 :     6.122639683340196
 Root    119 :     6.149660142064313
 Root    120 :     6.387740736088593
 Iteration     2 Dimension   180 NMult   120 NNew     60
 CISAX will form    36 AO SS matrices at one time.
 NMat=    36 NSing=    36 JSym2X= 0.
 NMat=    24 NSing=    24 JSym2X= 0.
 Root      1 not converged, maximum delta is    0.037272595895710
 New state      2 was old state      4
 Root      2 not converged, maximum delta is    0.325070117578993
 New state      3 was old state      2
 Root      3 not converged, maximum delta is    0.035787958054094
 New state      4 was old state      3
 Root      4 not converged, maximum delta is    0.100908871091355
 Root      5 not converged, maximum delta is    0.019723583087335
 Root      6 not converged, maximum delta is    0.421988154703838
 Root      7 not converged, maximum delta is    0.344148971639713
 Root      8 not converged, maximum delta is    0.357287705265452
 New state      9 was old state     13
 Root      9 not converged, maximum delta is    0.297754643853189
 New state     10 was old state     11
 Root     10 not converged, maximum delta is    0.180750399281663
 New state     11 was old state     12
 Root     11 not converged, maximum delta is    0.214478671107572
 New state     12 was old state      9
 Root     12 not converged, maximum delta is    0.012620974930786
 New state     13 was old state     10
 Root     13 not converged, maximum delta is    0.366601533338303
 Root     14 not converged, maximum delta is    0.329138399617154
 Root     15 not converged, maximum delta is    0.275054836810910
 New state     16 was old state     22
 Root     16 not converged, maximum delta is    0.184965310780228
 Root     17 not converged, maximum delta is    0.246750877089595
 New state     18 was old state     16
 Root     18 not converged, maximum delta is    0.229181395432593
 New state     19 was old state     18
 Root     19 not converged, maximum delta is    0.143479091949929
 New state     20 was old state     19
 Root     20 not converged, maximum delta is    0.125904773300761
 Root     21 not converged, maximum delta is    0.345148359014616
 New state     22 was old state     20
 Root     22 not converged, maximum delta is    0.045659963039190
 New state     23 was old state     24
 Root     23 not converged, maximum delta is    0.257413554057698
 New state     24 was old state     26
 Root     24 not converged, maximum delta is    0.106638035012825
 New state     25 was old state     27
 Root     25 not converged, maximum delta is    0.330545371107993
 New state     26 was old state     23
 Root     26 not converged, maximum delta is    0.071994493346399
 New state     27 was old state     25
 Root     27 not converged, maximum delta is    0.053843377806813
 Root     28 not converged, maximum delta is    0.052993238375562
 Root     29 not converged, maximum delta is    0.077296341940957
 Root     30 not converged, maximum delta is    0.107076100767302
 Excitation Energies [eV] at current iteration:
 Root      1 :     2.375053092826448   Change is   -0.294699411846635
 Root      2 :     3.069030130621502   Change is   -0.061717871703229
 Root      3 :     3.111751539478612   Change is   -0.010035745376820
 Root      4 :     3.117489761429019   Change is   -0.011868882839445
 Root      5 :     3.141753821771817   Change is   -0.004143081559061
 Root      6 :     3.160087892667185   Change is   -0.093207439080969
 Root      7 :     3.363528906941335   Change is   -0.039567674403465
 Root      8 :     3.381034640834401   Change is   -0.033886869134712
 Root      9 :     3.391930273962080   Change is   -0.135532457853360
 Root     10 :     3.395653350524774   Change is   -0.075533355302167
 Root     11 :     3.397283555316592   Change is   -0.075649381352809
 Root     12 :     3.426191293573814   Change is   -0.008588257037502
 Root     13 :     3.439997424665924   Change is   -0.004618196266994
 Root     14 :     3.453741178231589   Change is   -0.092684011242338
 Root     15 :     3.460877868536907   Change is   -0.087793345796466
 Root     16 :     3.729925965524053   Change is   -0.556681213178667
 Root     17 :     3.819158391460263   Change is   -0.124113159060762
 Root     18 :     3.839080169381888   Change is   -0.085097373367496
 Root     19 :     3.870600669843823   Change is   -0.076875588381184
 Root     20 :     3.874715530827995   Change is   -0.096730717973825
 Root     21 :     4.007105619045216   Change is   -0.225078315270715
[...]
 Alpha virt. eigenvalues --    3.35874   3.36380   3.36511   3.36724   3.37341
 Alpha virt. eigenvalues --    3.37469   3.37541   3.37651   3.38053   3.38147
 Alpha virt. eigenvalues --    3.38303   3.38554   3.38741   3.39162   3.39185
 Alpha virt. eigenvalues --    3.39542   3.40126   3.40159   3.40425   3.40952
 Alpha virt. eigenvalues --    3.41252   3.41439   3.41718   3.41856   3.42093
 Alpha virt. eigenvalues --    3.42101   3.42619   3.42736   3.42924   3.42957
 Alpha virt. eigenvalues --    3.43328   3.43503   3.43599   3.43867   3.44217
 Alpha virt. eigenvalues --    3.44525   3.44691   3.44761   3.44991   3.45403
 Alpha virt. eigenvalues --    3.45717   3.45877   3.45959   3.46220   3.46297
 Alpha virt. eigenvalues --    3.46414   3.46622   3.46845   3.47201   3.47373
 Alpha virt. eigenvalues --    3.47860   3.48034   3.48096   3.48796   3.49081
 Alpha virt. eigenvalues --    3.49368   3.49379   3.49936   3.49938   3.50100
 Alpha virt. eigenvalues --    3.50632   3.50703   3.50817   3.51357   3.51838
 Alpha virt. eigenvalues --    3.51931   3.52045   3.52943   3.53088   3.53170
 Alpha virt. eigenvalues --    3.53225   3.53519   3.53576   3.53860   3.54126
 Alpha virt. eigenvalues --    3.54390   3.54660   3.54734   3.55250   3.55482
 Alpha virt. eigenvalues --    3.55648   3.56245   3.56630   3.56792   3.57072
 Alpha virt. eigenvalues --    3.57359   3.57362   3.57742   3.58100   3.58525
 Alpha virt. eigenvalues --    3.58910   3.59720   3.59839   3.59895   3.60505
 Alpha virt. eigenvalues --    3.60994   3.61139   3.61724   3.62061   3.62363
 Alpha virt. eigenvalues --    3.62580   3.62591   3.62728   3.62831   3.62929
 Alpha virt. eigenvalues --    3.63457   3.63903   3.64108   3.64188   3.64518
 Alpha virt. eigenvalues --    3.64569   3.64962   3.65355   3.65692   3.65927
 Alpha virt. eigenvalues --    3.65976   3.66513   3.67811   3.67954   3.68874
 Alpha virt. eigenvalues --    3.69253   3.69574   3.70149   3.70907   3.71190
 Alpha virt. eigenvalues --    3.72009   3.72188   3.72492   3.72550   3.72755
 Alpha virt. eigenvalues --    3.73208   3.73865   3.74138   3.74477   3.74494
 Alpha virt. eigenvalues --    3.74617   3.75064   3.75202   3.75352   3.76242
 Alpha virt. eigenvalues --    3.76414   3.76990   3.77418   3.77695   3.78062
 Alpha virt. eigenvalues --    3.78290   3.79933   3.80492   3.80951   3.80977
 Alpha virt. eigenvalues --    3.81004   3.82197   3.82412   3.82462   3.83095
 Alpha virt. eigenvalues --    3.83721   3.84186   3.84380   3.85374   3.85518
 Alpha virt. eigenvalues --    3.85551   3.85923   3.86282   3.86544   3.86744
 Alpha virt. eigenvalues --    3.87328   3.87328   3.87913   3.88230   3.89736
 Alpha virt. eigenvalues --    3.89859   3.90535   3.90888   3.92040   3.92538
 Alpha virt. eigenvalues --    3.93056   3.93305   3.94527   3.94569   3.95816
 Alpha virt. eigenvalues --    3.97357   3.97888   3.97918   3.98712   3.98962
 Alpha virt. eigenvalues --    3.98971   4.00009   4.00566   4.01169   4.01295
 Alpha virt. eigenvalues --    4.01469   4.01689   4.01959   4.02174   4.02338
 Alpha virt. eigenvalues --    4.02742   4.02749   4.03139   4.03372   4.03653
 Alpha virt. eigenvalues --    4.03971   4.04207   4.04610   4.04729   4.04814
 Alpha virt. eigenvalues --    4.05650   4.06099   4.06129   4.06782   4.07700
 Alpha virt. eigenvalues --    4.08474   4.08655   4.09027   4.09265   4.09653
 Alpha virt. eigenvalues --    4.11198   4.11320   4.12080   4.12593   4.13727
 Alpha virt. eigenvalues --    4.14089   4.14721   4.14900   4.15043   4.15195
 Alpha virt. eigenvalues --    4.15496   4.15730   4.16001   4.16292   4.16391
 Alpha virt. eigenvalues --    4.16592   4.16595   4.16881   4.17095   4.17300
 Alpha virt. eigenvalues --    4.17579   4.17916   4.17967   4.18137   4.18366
 Alpha virt. eigenvalues --    4.18504   4.19459   4.19607   4.20002   4.20062
 Alpha virt. eigenvalues --    4.20269   4.20432   4.20455   4.20741   4.21165
 Alpha virt. eigenvalues --    4.21864   4.22586   4.23286   4.23585   4.23753
 Alpha virt. eigenvalues --    4.23898   4.24976   4.25053   4.25390   4.25689
 Alpha virt. eigenvalues --    4.26286   4.26420   4.26590   4.26829   4.27173
 Alpha virt. eigenvalues --    4.27463   4.27646   4.27908   4.28326   4.28852
 Alpha virt. eigenvalues --    4.29116   4.30043   4.30117   4.30259   4.30453
 Alpha virt. eigenvalues --    4.30778   4.32080   4.32100   4.33005   4.33334
 Alpha virt. eigenvalues --    4.33468   4.33893   4.34167   4.34464   4.35326
 Alpha virt. eigenvalues --    4.35709   4.36195   4.36379   4.37356   4.37472
 Alpha virt. eigenvalues --    4.37929   4.39303   4.40496   4.40636   4.40666
 Alpha virt. eigenvalues --    4.40765   4.41759   4.41818   4.45623   4.45955
 Alpha virt. eigenvalues --    4.47331   4.48075   4.48387   4.49391   4.50920
 Alpha virt. eigenvalues --    4.51708   4.51877   4.52493   4.53105   4.54742
 Alpha virt. eigenvalues --    4.55409   4.55777   4.56128   4.56132   4.56450
 Alpha virt. eigenvalues --    4.57015   4.57267   4.57421   4.57548   4.58235
 Alpha virt. eigenvalues --    4.58255   4.58257   4.59240   4.59756   4.60506
 Alpha virt. eigenvalues --    4.60508   4.61039   4.61373   4.64025   4.65228
 Alpha virt. eigenvalues --    4.66957   4.67916   4.68214   4.68590   4.69009
 Alpha virt. eigenvalues --    4.69071   4.69423   4.70129   4.70562   4.70932
 Alpha virt. eigenvalues --    4.71417   4.71615   4.72102   4.72908   4.73099
 Alpha virt. eigenvalues --    4.73305   4.73421   4.73818   4.75382   4.75885
 Alpha virt. eigenvalues --    4.78880   4.79853   4.83433   4.83572   4.86500
 Alpha virt. eigenvalues --    4.86531   4.87333   4.87960   4.88380   4.88550
 Alpha virt. eigenvalues --    4.88742   4.89266   4.89763   4.89764   4.90486
 Alpha virt. eigenvalues --    4.90786   4.91430   4.91902   4.92037   4.92058
 Alpha virt. eigenvalues --    4.96237   4.96733   4.97596   4.99482   5.01374
 Alpha virt. eigenvalues --    5.01438   5.05268   5.05987   5.06214   5.06440
 Alpha virt. eigenvalues --    5.06501   5.06603   5.06771   5.06958   5.07124
 Alpha virt. eigenvalues --    5.07781   5.08098   5.08184   5.08476   5.08660
 Alpha virt. eigenvalues --    5.10174   5.10258   5.11122   5.13074   5.13564
 Alpha virt. eigenvalues --    5.14645   5.14717   5.14870   5.15598   5.15750
 Alpha virt. eigenvalues --    5.15800   5.16486   5.16841   5.16901   5.17491
 Alpha virt. eigenvalues --    5.17797   5.18063   5.18249   5.18392   5.18673
 Alpha virt. eigenvalues --    5.18677   5.18717   5.18755   5.19032   5.19134
 Alpha virt. eigenvalues --    5.19485   5.20217   5.20366   5.20542   5.20657
 Alpha virt. eigenvalues --    5.22441   5.22505   5.23180   5.23398   5.23908
 Alpha virt. eigenvalues --    5.24215   5.24502   5.25059   5.25187   5.25336
 Alpha virt. eigenvalues --    5.26088   5.26554   5.26907   5.27520   5.28802
 Alpha virt. eigenvalues --    5.29709   5.29745   5.30730   5.30942   5.31009
 Alpha virt. eigenvalues --    5.31486   5.31850   5.31890   5.32285   5.32559
 Alpha virt. eigenvalues --    5.32786   5.33297   5.35000   5.35196   5.36971
 Alpha virt. eigenvalues --    5.37024   5.37303   5.37426   5.37901   5.38659
 Alpha virt. eigenvalues --    5.39038   5.39221   5.39741   5.39989   5.40174
 Alpha virt. eigenvalues --    5.41063   5.41725   5.41817   5.42197   5.44371
 Alpha virt. eigenvalues --    5.48623   5.48938   5.49350   5.49471   5.49679
 Alpha virt. eigenvalues --    5.50527   5.51622   5.54136   5.54949   5.56346
 Alpha virt. eigenvalues --    5.56639   5.56729   5.57356   5.57751   5.57931
 Alpha virt. eigenvalues --    5.59117   5.59137   5.60369   5.60813   5.61962
 Alpha virt. eigenvalues --    5.62029   5.62425   5.62779   5.63156   5.63597
 Alpha virt. eigenvalues --    5.63946   5.66717   5.67315   5.67637   5.68123
 Alpha virt. eigenvalues --    5.68274   5.69381   5.69841   5.70129   5.70304
 Alpha virt. eigenvalues --    5.70368   5.70969   5.73012   5.75784   5.75984
 Alpha virt. eigenvalues --    5.78777   5.79174   5.79625   5.79839   5.81819
 Alpha virt. eigenvalues --    5.82757   5.83246   5.84232   5.86212   5.93543
 Alpha virt. eigenvalues --    6.10385   6.10402   6.14522   6.18432   6.18468
 Alpha virt. eigenvalues --    6.22001   6.22297   6.39923   6.40759   6.42983
 Alpha virt. eigenvalues --    6.44169   6.44442   6.44492   6.45935   6.45942
 Alpha virt. eigenvalues --    6.46505   6.46854   6.46948   6.46952   6.47576
 Alpha virt. eigenvalues --    6.48190   6.48490   6.48960   6.54916   6.55061
 Alpha virt. eigenvalues --    6.58427   6.58482   6.62000   6.62840   6.63481
 Alpha virt. eigenvalues --    6.63787   6.70109   6.70431   6.71829   6.72254
 Alpha virt. eigenvalues --    6.77393   6.78469   6.82375   6.82398   6.82443
 Alpha virt. eigenvalues --    6.82596   6.83466   6.83511   6.83672   6.83763
 Alpha virt. eigenvalues --    6.85565   6.85621   6.86125   6.86138   6.91450
 Alpha virt. eigenvalues --    6.91544   6.92146   6.92234   6.93101   6.93445
 Alpha virt. eigenvalues --    6.93782   6.93821   6.99219   6.99567   7.00748
 Alpha virt. eigenvalues --    7.00779   7.04475   7.05380   7.06463   7.06847
 Alpha virt. eigenvalues --    7.06958   7.07538   7.12241   7.12591   7.13605
 Alpha virt. eigenvalues --    7.13780   7.21867   7.23506   7.26158   7.26658
 Alpha virt. eigenvalues --    9.64798   9.64820   9.66343   9.66446   9.67984
 Alpha virt. eigenvalues --    9.69277   9.73021   9.73615   9.85291   9.86132
 Alpha virt. eigenvalues --    9.89357   9.89421  22.02255  22.02418  22.30226
 Alpha virt. eigenvalues --   22.31113  22.31236  22.44295  22.46946  22.47065
 Alpha virt. eigenvalues --   22.47238  22.47740  22.48147  22.62400  22.62602
 Alpha virt. eigenvalues --   22.62777  22.62932  22.64499  22.64555  22.64967
 Alpha virt. eigenvalues --   22.67867  22.69900  22.74923  22.74980  22.77298
 Alpha virt. eigenvalues --   22.77319  22.84555  22.85258  22.85601  22.90076
 Alpha virt. eigenvalues --   22.90369  22.91547  22.96654  22.99469  23.01952
 Alpha virt. eigenvalues --   23.04626  23.06505  23.08013  23.09262  23.09543
 Alpha virt. eigenvalues --   23.13091  23.14123  23.20061  23.20222  23.21762
 Alpha virt. eigenvalues --   23.24710  23.28272  23.31290  23.36710  23.44788
 Alpha virt. eigenvalues --   23.49594  23.50070  23.52711  23.67935  23.96786
 Alpha virt. eigenvalues --   24.13895  32.95253  32.96704  43.86818  43.87001
 Alpha virt. eigenvalues --   43.87059  43.90138  43.98143  43.99281  44.01054
 Alpha virt. eigenvalues --   44.01453  44.04039  44.04250  44.05625  44.05740
          Condensed to atoms (all electrons):
 Mulliken charges:
               1
     1  C   -0.126218
     2  C    0.137461
     3  C    0.030356
     4  C   -0.149091
     5  C    0.053123
     6  C   -0.265675
     7  C    0.135868
     8  C    0.061004
     9  H    0.208641
    10  C   -0.263909
    11  C   -0.126587
    12  H    0.209506
    13  C    0.135800
    14  C    0.030360
    15  C   -0.126631
    16  C    0.137561
    17  C   -0.149087
    18  C   -0.263803
    19  C   -0.126201
    20  C    0.053131
    21  C    0.060979
    22  H    0.209500
    23  C   -0.265719
    24  H    0.208620
    25  C    0.521186
    26  O   -0.459148
    27  C    0.515916
    28  O   -0.466695
    29  N   -0.246707
    30  C    0.521200
    31  O   -0.459149
    32  C    0.515912
    33  O   -0.466697
    34  N   -0.246707
    35  C   -0.204315
    36  H    0.132902
    37  H    0.139466
    38  H    0.133347
    39  C   -0.204316
    40  H    0.132901
    41  H    0.139466
    42  H    0.133348
    43  S    0.867560
    44  S    0.867472
    45  S    0.867567
    46  S    0.867485
    47  O   -0.473767
    48  O   -0.472148
    49  O   -0.472158
    50  O   -0.473723
    51  O   -0.473716
    52  O   -0.472158
    53  O   -0.473764
    54  O   -0.472151
    55  C    0.088830
    56  C   -0.225648
    57  C   -0.126465
    58  C   -0.164611
    59  H    0.164681
    60  C   -0.161206
    61  H    0.203602
    62  C   -0.092072
    63  H    0.142903
    64  H    0.129975
    65  H    0.133170
    66  C    0.088191
    67  C   -0.225775
    68  C   -0.125939
    69  C   -0.164706
    70  H    0.164693
    71  C   -0.161139
    72  H    0.203767
    73  C   -0.091977
    74  H    0.142908
    75  H    0.129956
    76  H    0.133179
    77  C    0.088920
    78  C   -0.225664
    79  C   -0.126546
    80  C   -0.164613
    81  H    0.164695
    82  C   -0.161213
    83  H    0.203625
    84  C   -0.092127
    85  H    0.142917
    86  H    0.129973
    87  H    0.133183
    88  C    0.088228
    89  C   -0.225772
    90  C   -0.125922
    91  C   -0.164675
    92  H    0.164693
    93  C   -0.161194
    94  H    0.203775
    95  C   -0.092061
    96  H    0.142917
    97  H    0.129953
    98  H    0.133195
 Sum of Mulliken charges =  -0.00000
 Mulliken charges with hydrogens summed into heavy atoms:
               1
     1  C   -0.126218
     2  C    0.137461
     3  C    0.030356
     4  C   -0.149091
     5  C    0.053123
     6  C   -0.057034
     7  C    0.135868
     8  C    0.061004
    10  C   -0.054403
    11  C   -0.126587
    13  C    0.135800
    14  C    0.030360
    15  C   -0.126631
    16  C    0.137561
    17  C   -0.149087
    18  C   -0.054303
    19  C   -0.126201
    20  C    0.053131
    21  C    0.060979
    23  C   -0.057099
    25  C    0.521186
    26  O   -0.459148
    27  C    0.515916
    28  O   -0.466695
    29  N   -0.246707
    30  C    0.521200
    31  O   -0.459149
    32  C    0.515912
    33  O   -0.466697
    34  N   -0.246707
    35  C    0.201399
    39  C    0.201399
    43  S    0.867560
    44  S    0.867472
    45  S    0.867567
    46  S    0.867485
    47  O   -0.473767
    48  O   -0.472148
    49  O   -0.472158
    50  O   -0.473723
    51  O   -0.473716
    52  O   -0.472158
    53  O   -0.473764
    54  O   -0.472151
    55  C    0.088830
    56  C   -0.060967
    57  C    0.077137
    58  C   -0.021707
    60  C   -0.031231
    62  C    0.041098
    66  C    0.088191
    67  C   -0.061082
    68  C    0.077828
    69  C   -0.021798
    71  C   -0.031183
    73  C    0.041202
    77  C    0.088920
    78  C   -0.060969
    79  C    0.077079
    80  C   -0.021696
    82  C   -0.031241
    84  C    0.041056
    88  C    0.088228
    89  C   -0.061079
    90  C    0.077854
    91  C   -0.021758
    93  C   -0.031241
    95  C    0.041134
 Electronic spatial extent (au):  <R**2>=          51748.8895
 Charge=             -0.0000 electrons
 Dipole moment (field-independent basis, Debye):
    X=              0.0009    Y=             -0.0005    Z=              0.0063  Tot=              0.0064
 Quadrupole moment (field-independent basis, Debye-Ang):
   XX=           -278.4076   YY=           -410.1504   ZZ=           -464.8959
   XY=              0.3045   XZ=              0.0016   YZ=             -0.0080
 Traceless Quadrupole moment (field-independent basis, Debye-Ang):
   XX=            106.0771   YY=            -25.6658   ZZ=            -80.4113
   XY=              0.3045   XZ=              0.0016   YZ=             -0.0080
 Octapole moment (field-independent basis, Debye-Ang**2):
  XXX=              0.0597  YYY=             -0.0142  ZZZ=              1.5049  XYY=             -0.0081
  XXY=             -0.0164  XXZ=             -1.0763  XZZ=             -0.0695  YZZ=             -0.0008
  YYZ=             -0.7858  XYZ=            168.4679
 Hexadecapole moment (field-independent basis, Debye-Ang**3):
 XXXX=         -31823.8754 YYYY=         -20447.6572 ZZZZ=          -5415.3942 XXXY=              6.0561
 XXXZ=              0.0827 YYYX=             22.5495 YYYZ=              0.9876 ZZZX=              0.0243
 ZZZY=              1.2789 XXYY=         -10839.9671 XXZZ=          -8475.2430 YYZZ=          -4525.1392
 XXYZ=              0.5385 YYXZ=              0.0299 ZZXY=             -2.1314
 N-N= 1.250283363316D+04 E-N=-3.563529432422D+04  KE= 4.511552505927D+03
 Leave Link  601 at Sun Jul  3 16:16:21 2022, MaxMem=  5242880000 cpu:        25.6
 (Enter /opt/nce/packages/global/g09/l9999.exe)
 1\1\GINC-CN016\SP\RM06 TD-FC\def2TZVP\C50H30N2O12S4\PNG4RJV\03-Jul-202
 2\0\\#p m06/def2TZVP int=ultrafine scrf=(SMD,solvent=dichloromethane) 
 td=(NStates=30)\\Title\\0,1\C,0,-2.227047,1.40613,0.874911\C,0,-1.2185
 83,0.698377,0.230281\C,0,-0.000424,1.396236,-0.000335\C,0,-0.000989,2.
 803449,-0.000481\C,0,-1.098542,3.499906,0.522515\C,0,-2.140054,2.79242
 5,1.054926\C,0,1.218104,0.699149,-0.230489\C,0,1.095662,3.502116,-0.52
 3092\H,0,-2.917342,3.325445,1.59056\C,0,2.137489,2.794239,-1.054957\C,
 0,2.225835,1.408085,-0.874929\H,0,2.91457,3.32759,-1.590445\C,0,-1.218
 054,-0.699082,-0.23081\C,0,0.000451,-1.39627,-0.00086\C,0,-2.225763,-1
 .407754,-0.875584\C,0,1.218623,-0.698509,0.230016\C,0,0.000954,-2.8034
 83,-0.00146\C,0,-2.137495,-2.79386,-1.055999\C,0,2.227089,-1.406534,0.
 874342\C,0,1.098464,-3.500151,0.521344\C,0,-1.095725,-3.501941,-0.5242
 95\H,0,-2.914588,-3.327009,-1.591672\C,0,2.140016,-2.792878,1.053949\H
 ,0,2.917272,-3.326102,1.589426\C,0,-1.096137,4.973355,0.564038\O,0,-2.
 000697,5.610669,1.051599\C,0,1.099368,4.977425,-0.568301\O,0,2.010799,
 5.599856,-1.060818\N,0,-0.00061,5.615865,-0.000864\C,0,1.09598,-4.9736
 11,0.562453\O,0,2.000508,-5.611112,1.04983\C,0,-1.099504,-4.977237,-0.
 569926\O,0,-2.01095,-5.599481,-1.062653\N,0,0.000421,-5.615899,-0.0026
 33\C,0,-0.032785,7.071081,0.016649\H,0,-0.908559,7.432414,-0.522109\H,
 0,0.869369,7.440598,-0.459585\H,0,-0.082678,7.431973,1.043817\C,0,0.03
 2512,-7.071122,0.014482\H,0,0.908289,-7.432358,-0.524334\H,0,-0.869644
 ,-7.440457,-0.46189\H,0,0.08234,-7.432296,1.041555\S,0,-3.527654,-0.63
 959,-1.825515\S,0,-3.528148,0.636832,1.82496\S,0,3.527909,0.640301,-1.
 824915\S,0,3.528336,-0.637637,1.824503\O,0,3.443969,-0.785217,-1.67935
 2\O,0,3.379528,1.188673,-3.145571\O,0,3.379873,-1.185844,3.14522\O,0,3
 .44362,0.787797,1.678628\O,0,-3.443275,-0.788563,1.678768\O,0,-3.3797,
 1.184757,3.145796\O,0,-3.443505,0.785895,-1.679734\O,0,-3.379307,-1.18
 7788,-3.146247\C,0,5.097345,-1.196137,1.216859\C,0,6.191988,-0.59864,1
 .831215\C,0,5.261728,-2.204323,0.283012\C,0,7.464955,-1.022458,1.50142
 1\H,0,6.048306,0.189253,2.563032\C,0,6.543779,-2.623719,-0.033884\H,0,
 4.412308,-2.656826,-0.210198\C,0,7.640725,-2.037839,0.573242\H,0,8.322
 792,-0.558093,1.973436\H,0,6.679881,-3.413494,-0.763035\H,0,8.640674,-
 2.37097,0.320394\C,0,5.096484,1.199436,-1.216728\C,0,6.191582,0.602065
 ,-1.830394\C,0,5.260155,2.207917,-0.283075\C,0,7.464283,1.026269,-1.50
 0076\H,0,6.048457,-0.186065,-2.562064\C,0,6.541948,2.627677,0.034382\H
 ,0,4.410375,2.66042,0.209515\C,0,7.639341,2.041885,-0.572023\H,0,8.322
 467,0.561981,-1.971538\H,0,6.677501,3.417671,0.7634\H,0,8.639086,2.375
 278,-0.31871\C,0,-5.097255,1.195284,1.217551\C,0,-6.19178,0.597314,1.8
 31662\C,0,-5.261827,2.203822,0.284118\C,0,-7.464836,1.020907,1.501944\
 H,0,-6.047934,-0.190867,2.56314\C,0,-6.54397,2.62301,-0.032685\H,0,-4.
 412488,2.656727,-0.208862\C,0,-7.640802,2.036584,0.574118\H,0,-8.32257
 9,0.556152,1.973743\H,0,-6.680239,3.413005,-0.761568\H,0,-8.64082,2.36
 9545,0.32132\C,0,-5.096335,-1.198573,-1.217489\C,0,-6.191302,-0.600796
 ,-1.831001\C,0,-5.260218,-2.207266,-0.284109\C,0,-7.464102,-1.024712,-
 1.500718\H,0,-6.047995,0.187502,-2.562456\C,0,-6.542115,-2.626717,0.03
 3342\H,0,-4.410532,-2.66012,0.208323\C,0,-7.63938,-2.040454,-0.572838\
 H,0,-8.322182,-0.560095,-1.972043\H,0,-6.677853,-3.416796,0.762233\H,0
 ,-8.639203,-2.373602,-0.319509\\Version=ES64L-G09RevE.01\State=1-A\HF=
 -4527.5503272\RMSD=6.614e-09\PG=C01 [X(C50H30N2O12S4)]\\@


 YOU CAN LEAD A BOY TO COLLEGE....
 BUT YOU CANNOT MAKE HIM THINK....
           ELBERT HUBBARD
 Job cpu time:      18 days 22 hours 47 minutes  0.5 seconds.
 File lengths (MBytes):  RWF=  23528 Int=      0 D2E=      0 Chk=   4655 Scr=      1
 Normal termination of Gaussian 09 at Sun Jul  3 16:16:28 2022.
