 Entering Gaussian System, Link 0=g09
 Input=/home/png4rjv/fotokatalizis/benchmark/OPCs/RESTART/Me2-Acr_2_wB97XD_def2TZVP.gjf
 Output=/home/png4rjv/fotokatalizis/benchmark/OPCs/RESTART/Me2-Acr_2_wB97XD_def2TZVP.log
 Initial command:
 /opt/nce/packages/global/g09/l1.exe "/home/png4rjv/fotokatalizis/benchmark/OPCs/RESTART/Me2-Acr_2_wB97XD_def2TZVP/Gau-32739.inp" -scrdir="/home/png4rjv/fotokatalizis/benchmark/OPCs/RESTART/Me2-Acr_2_wB97XD_def2TZVP/"
 Default is to use a total of  12 processors:
                               12 via shared-memory
                                1 via Linda
 Entering Link 1 = /opt/nce/packages/global/g09/l1.exe PID=     32757.
  
 Copyright (c) 1988,1990,1992,1993,1995,1998,2003,2009,2015,
            Gaussian, Inc.  All Rights Reserved.
  
 This is part of the Gaussian(R) 09 program.  It is based on
 the Gaussian(R) 03 system (copyright 2003, Gaussian, Inc.),
 the Gaussian(R) 98 system (copyright 1998, Gaussian, Inc.),
 the Gaussian(R) 94 system (copyright 1995, Gaussian, Inc.),
 the Gaussian 92(TM) system (copyright 1992, Gaussian, Inc.),
 the Gaussian 90(TM) system (copyright 1990, Gaussian, Inc.),
 the Gaussian 88(TM) system (copyright 1988, Gaussian, Inc.),
 the Gaussian 86(TM) system (copyright 1986, Carnegie Mellon
 University), and the Gaussian 82(TM) system (copyright 1983,
 Carnegie Mellon University). Gaussian is a federally registered
 trademark of Gaussian, Inc.
  
 This software contains proprietary and confidential information,
 including trade secrets, belonging to Gaussian, Inc.
  
 This software is provided under written license and may be
 used, copied, transmitted, or stored only in accord with that
 written license.
  
 The following legend is applicable only to US Government
 contracts under FAR:
  
                    RESTRICTED RIGHTS LEGEND
  
 Use, reproduction and disclosure by the US Government is
 subject to restrictions as set forth in subparagraphs (a)
 and (c) of the Commercial Computer Software - Restricted
 Rights clause in FAR 52.227-19.
  
 Gaussian, Inc.
 340 Quinnipiac St., Bldg. 40, Wallingford CT 06492
  
  
 ---------------------------------------------------------------
 Warning -- This program may not be used in any manner that
 competes with the business of Gaussian, Inc. or will provide
 assistance to any competitor of Gaussian, Inc.  The licensee
 of this program is prohibited from giving any competitor of
 Gaussian, Inc. access to this program.  By using this program,
 the user acknowledges that Gaussian, Inc. is engaged in the
 business of creating and licensing software in the field of
 computational chemistry and represents and warrants to the
 licensee that it is not a competitor of Gaussian, Inc. and that
 it will not use this program in any manner prohibited above.
 ---------------------------------------------------------------
  

 Cite this work as:
 Gaussian 09, Revision E.01,
 M. J. Frisch, G. W. Trucks, H. B. Schlegel, G. E. Scuseria, 
 M. A. Robb, J. R. Cheeseman, G. Scalmani, V. Barone, B. Mennucci, 
 G. A. Petersson, H. Nakatsuji, M. Caricato, X. Li, H. P. Hratchian, 
 A. F. Izmaylov, J. Bloino, G. Zheng, J. L. Sonnenberg, M. Hada, 
 M. Ehara, K. Toyota, R. Fukuda, J. Hasegawa, M. Ishida, T. Nakajima, 
 Y. Honda, O. Kitao, H. Nakai, T. Vreven, J. A. Montgomery, Jr., 
 J. E. Peralta, F. Ogliaro, M. Bearpark, J. J. Heyd, E. Brothers, 
 K. N. Kudin, V. N. Staroverov, T. Keith, R. Kobayashi, J. Normand, 
 K. Raghavachari, A. Rendell, J. C. Burant, S. S. Iyengar, J. Tomasi, 
 M. Cossi, N. Rega, J. M. Millam, M. Klene, J. E. Knox, J. B. Cross, 
 V. Bakken, C. Adamo, J. Jaramillo, R. Gomperts, R. E. Stratmann, 
 O. Yazyev, A. J. Austin, R. Cammi, C. Pomelli, J. W. Ochterski, 
 R. L. Martin, K. Morokuma, V. G. Zakrzewski, G. A. Voth, 
 P. Salvador, J. J. Dannenberg, S. Dapprich, A. D. Daniels, 
 O. Farkas, J. B. Foresman, J. V. Ortiz, J. Cioslowski, 
 and D. J. Fox, Gaussian, Inc., Wallingford CT, 2013.
 
 ******************************************
 Gaussian 09:  ES64L-G09RevE.01 30-Nov-2015
                28-Oct-2021 
 ******************************************
 %chk=cp.chk
 Default route:  MaxDisk=500GB
 ----------------------------------------------------------------------
 #p wB97XD/def2TZVP freq=noraman nosymm int=(Acc2E=11,ultrafine) scrf=(
 SMD,solvent=n,n-DiMethylFormamide)
 ----------------------------------------------------------------------
 1/10=4,30=1,38=1/1,3;
 2/12=2,15=1,17=6,18=5,40=1/2;
 3/5=44,7=101,11=2,16=1,25=1,30=1,70=32201,71=2,72=148,74=-58,75=-5,140=1/1,2,3;
 4//1;
 5/5=2,38=5,53=148,87=11,98=1/2;
 8/6=4,10=90,11=11,87=11/1;
 11/6=1,8=1,9=11,15=111,16=1,31=1,87=11/1,2,10;
 10/6=1,31=1,87=11/2;
 6/7=2,8=2,9=2,10=2,18=1,28=1/1;
 7/8=1,10=1,25=1,30=1,87=11/1,2,3,16;
 1/10=4,30=1/3;
 99//99;
 Leave Link    1 at Thu Oct 28 13:26:02 2021, MaxMem=           0 cpu:         1.3
 (Enter /opt/nce/packages/global/g09/l101.exe)
 -----
 Title
 -----
 Symbolic Z-matrix:
 Charge =  0 Multiplicity = 1
 C                     3.63724   1.47554  -0.45321 
 C                     2.42024   2.11541  -0.55643 
 C                     1.2179    1.4026   -0.47641 
 C                     1.25952   0.01844  -0.27984 
 C                     2.50263  -0.59485  -0.18124 
 C                     3.70538   0.09756  -0.26284 
 C                     0.00165  -0.8366   -0.17404 
 C                    -1.25597   0.0171   -0.29331 
 C                    -1.21355   1.40228  -0.48248 
 C                    -2.41566   2.11525  -0.56374 
 H                    -2.39834   3.1851   -0.7157 
 C                    -3.63301   1.47503  -0.46703 
 C                    -3.70215   0.09526  -0.28939 
 C                    -2.49938  -0.59721  -0.20655 
 H                     2.40318   3.18682  -0.69684 
 H                     2.53641  -1.66927  -0.05073 
 H                    -4.53951   2.06189  -0.55211 
 N                     0.0023    2.07502  -0.58786 
 C                     0.00244   3.49285  -0.75165 
 C                    -0.00131   4.32655   0.39926 
 C                     0.00625   4.03131  -2.00569 
 C                    -0.00506   3.80519   1.71504 
 C                    -0.00111   5.7322    0.2139 
 C                     0.00641   5.42895  -2.18357 
 H                     0.00899   3.37167  -2.86468 
 C                    -0.0084    4.64448   2.79284 
 H                    -0.00517   2.73222   1.85988 
 C                    -0.00469   6.57339   1.3531 
 C                     0.00279   6.25913  -1.10016 
 H                     0.0094    5.83678  -3.18644 
 C                    -0.00823   6.04362   2.61157 
 H                    -0.01118   4.23603   3.79589 
 H                    -0.00448   7.64718   1.2057 
 H                     0.00287   7.33507  -1.23005 
 H                    -0.01084   6.69515   3.47666 
 H                    -2.53282  -1.66788  -0.04853 
 H                     4.5441    2.06586  -0.50387 
 C                     0.0064   -1.88572  -1.30115 
 H                     0.01211  -1.40054  -2.27939 
 H                     0.88579  -2.5279   -1.23164 
 H                    -0.87603  -2.52475  -1.2405 
 C                    -0.00326  -1.55205   1.18996 
 H                     0.87878  -2.1848    1.30011 
 H                    -0.0089   -0.82608   2.00572 
 H                    -0.88239  -2.18999   1.29239 
 C                     5.00277  -0.60622  -0.14982 
 C                     5.16483  -1.68888   0.7153 
 C                     6.10618  -0.20986  -0.90613 
 C                     6.37721  -2.34879   0.81728 
 H                     4.33424  -2.01708   1.32876 
 C                     7.31865  -0.86973  -0.80422 
 H                     6.01488   0.62098  -1.59554 
 C                     7.47843  -1.95355   0.05853 
 H                     6.46292  -3.19219   1.49197 
 H                     8.15631  -0.52841  -1.40064 
 C                     8.77567  -2.66339   0.16499 
 C                     9.23896  -3.12579   1.39753 
 C                     9.56287  -2.88752  -0.96544 
 C                     10.45134  -3.79099   1.49689 
 H                     8.65361  -2.94821   2.29178 
 C                     10.77497  -3.5533   -0.86656 
 H                     9.21617  -2.55298  -1.93588 
 C                     11.2245  -4.00827   0.36505 
 H                     10.79582  -4.13562   2.46442 
 H                     11.36707  -3.72345  -1.75767 
 H                     12.17125  -4.52856   0.44245 
 C                    -5.00001  -0.61045  -0.19286 
 C                    -5.17047  -1.88647  -0.73124 
 C                    -6.09619  -0.02234   0.43909 
 C                    -6.3838   -2.54615  -0.64028 
 H                    -4.34587  -2.37077  -1.24045 
 C                    -7.30994  -0.68159   0.5293 
 H                    -5.99902   0.96308   0.87861 
 C                    -7.47848  -1.95717  -0.0083 
 H                    -6.47602  -3.54045  -1.06059 
 H                    -8.14181  -0.18926   1.01862 
 C                    -8.77768  -2.66474   0.08891 
 C                    -9.24771  -3.445    -0.96847 
 C                    -9.56042  -2.56838   1.24034 
 C                    -10.46182  -4.10825  -0.87737 
 H                    -8.66603  -3.5209   -1.87932 
 C                    -10.77444  -3.23175   1.33194 
 H                    -9.20859  -1.98236   2.08094 
 C                    -11.23047  -4.00486   0.2735 
 H                    -10.81119  -4.70342  -1.7124 
 H                    -11.36297  -3.14958   2.23772 
 H                    -12.17862  -4.52343   0.3451 
 
 NAtoms=     87 NQM=       87 NQMF=       0 NMMI=      0 NMMIF=      0
                NMic=       0 NMicF=      0.
                    Isotopes and Nuclear Properties:
 (Nuclear quadrupole moments (NQMom) in fm**2, nuclear magnetic moments (NMagM)
  in nuclear magnetons)

  Atom         1           2           3           4           5           6           7           8           9          10
 IAtWgt=          12          12          12          12          12          12          12          12          12          12
 AtmWgt=  12.0000000  12.0000000  12.0000000  12.0000000  12.0000000  12.0000000  12.0000000  12.0000000  12.0000000  12.0000000
 NucSpn=           0           0           0           0           0           0           0           0           0           0
 AtZEff=   0.0000000   0.0000000   0.0000000   0.0000000   0.0000000   0.0000000   0.0000000   0.0000000   0.0000000   0.0000000
 NQMom=    0.0000000   0.0000000   0.0000000   0.0000000   0.0000000   0.0000000   0.0000000   0.0000000   0.0000000   0.0000000
 NMagM=    0.0000000   0.0000000   0.0000000   0.0000000   0.0000000   0.0000000   0.0000000   0.0000000   0.0000000   0.0000000
 AtZNuc=   6.0000000   6.0000000   6.0000000   6.0000000   6.0000000   6.0000000   6.0000000   6.0000000   6.0000000   6.0000000

  Atom        11          12          13          14          15          16          17          18          19          20
 IAtWgt=           1          12          12          12           1           1           1          14          12          12
 AtmWgt=   1.0078250  12.0000000  12.0000000  12.0000000   1.0078250   1.0078250   1.0078250  14.0030740  12.0000000  12.0000000
 NucSpn=           1           0           0           0           1           1           1           2           0           0
 AtZEff=   0.0000000   0.0000000   0.0000000   0.0000000   0.0000000   0.0000000   0.0000000   0.0000000   0.0000000   0.0000000
 NQMom=    0.0000000   0.0000000   0.0000000   0.0000000   0.0000000   0.0000000   0.0000000   2.0440000   0.0000000   0.0000000
 NMagM=    2.7928460   0.0000000   0.0000000   0.0000000   2.7928460   2.7928460   2.7928460   0.4037610   0.0000000   0.0000000
 AtZNuc=   1.0000000   6.0000000   6.0000000   6.0000000   1.0000000   1.0000000   1.0000000   7.0000000   6.0000000   6.0000000

  Atom        21          22          23          24          25          26          27          28          29          30
 IAtWgt=          12          12          12          12           1          12           1          12          12           1
 AtmWgt=  12.0000000  12.0000000  12.0000000  12.0000000   1.0078250  12.0000000   1.0078250  12.0000000  12.0000000   1.0078250
 NucSpn=           0           0           0           0           1           0           1           0           0           1
 AtZEff=   0.0000000   0.0000000   0.0000000   0.0000000   0.0000000   0.0000000   0.0000000   0.0000000   0.0000000   0.0000000
 NQMom=    0.0000000   0.0000000   0.0000000   0.0000000   0.0000000   0.0000000   0.0000000   0.0000000   0.0000000   0.0000000
 NMagM=    0.0000000   0.0000000   0.0000000   0.0000000   2.7928460   0.0000000   2.7928460   0.0000000   0.0000000   2.7928460
 AtZNuc=   6.0000000   6.0000000   6.0000000   6.0000000   1.0000000   6.0000000   1.0000000   6.0000000   6.0000000   1.0000000

  Atom        31          32          33          34          35          36          37          38          39          40
 IAtWgt=          12           1           1           1           1           1           1          12           1           1
 AtmWgt=  12.0000000   1.0078250   1.0078250   1.0078250   1.0078250   1.0078250   1.0078250  12.0000000   1.0078250   1.0078250
 NucSpn=           0           1           1           1           1           1           1           0           1           1
 AtZEff=   0.0000000   0.0000000   0.0000000   0.0000000   0.0000000   0.0000000   0.0000000   0.0000000   0.0000000   0.0000000
 NQMom=    0.0000000   0.0000000   0.0000000   0.0000000   0.0000000   0.0000000   0.0000000   0.0000000   0.0000000   0.0000000
 NMagM=    0.0000000   2.7928460   2.7928460   2.7928460   2.7928460   2.7928460   2.7928460   0.0000000   2.7928460   2.7928460
 AtZNuc=   6.0000000   1.0000000   1.0000000   1.0000000   1.0000000   1.0000000   1.0000000   6.0000000   1.0000000   1.0000000

  Atom        41          42          43          44          45          46          47          48          49          50
 IAtWgt=           1          12           1           1           1          12          12          12          12           1
 AtmWgt=   1.0078250  12.0000000   1.0078250   1.0078250   1.0078250  12.0000000  12.0000000  12.0000000  12.0000000   1.0078250
 NucSpn=           1           0           1           1           1           0           0           0           0           1
 AtZEff=   0.0000000   0.0000000   0.0000000   0.0000000   0.0000000   0.0000000   0.0000000   0.0000000   0.0000000   0.0000000
 NQMom=    0.0000000   0.0000000   0.0000000   0.0000000   0.0000000   0.0000000   0.0000000   0.0000000   0.0000000   0.0000000
 NMagM=    2.7928460   0.0000000   2.7928460   2.7928460   2.7928460   0.0000000   0.0000000   0.0000000   0.0000000   2.7928460
 AtZNuc=   1.0000000   6.0000000   1.0000000   1.0000000   1.0000000   6.0000000   6.0000000   6.0000000   6.0000000   1.0000000

  Atom        51          52          53          54          55          56          57          58          59          60
 IAtWgt=          12           1          12           1           1          12          12          12          12           1
 AtmWgt=  12.0000000   1.0078250  12.0000000   1.0078250   1.0078250  12.0000000  12.0000000  12.0000000  12.0000000   1.0078250
 NucSpn=           0           1           0           1           1           0           0           0           0           1
 AtZEff=   0.0000000   0.0000000   0.0000000   0.0000000   0.0000000   0.0000000   0.0000000   0.0000000   0.0000000   0.0000000
 NQMom=    0.0000000   0.0000000   0.0000000   0.0000000   0.0000000   0.0000000   0.0000000   0.0000000   0.0000000   0.0000000
 NMagM=    0.0000000   2.7928460   0.0000000   2.7928460   2.7928460   0.0000000   0.0000000   0.0000000   0.0000000   2.7928460
 AtZNuc=   6.0000000   1.0000000   6.0000000   1.0000000   1.0000000   6.0000000   6.0000000   6.0000000   6.0000000   1.0000000

  Atom        61          62          63          64          65          66          67          68          69          70
 IAtWgt=          12           1          12           1           1           1          12          12          12          12
 AtmWgt=  12.0000000   1.0078250  12.0000000   1.0078250   1.0078250   1.0078250  12.0000000  12.0000000  12.0000000  12.0000000
 NucSpn=           0           1           0           1           1           1           0           0           0           0
 AtZEff=   0.0000000   0.0000000   0.0000000   0.0000000   0.0000000   0.0000000   0.0000000   0.0000000   0.0000000   0.0000000
 NQMom=    0.0000000   0.0000000   0.0000000   0.0000000   0.0000000   0.0000000   0.0000000   0.0000000   0.0000000   0.0000000
 NMagM=    0.0000000   2.7928460   0.0000000   2.7928460   2.7928460   2.7928460   0.0000000   0.0000000   0.0000000   0.0000000
 AtZNuc=   6.0000000   1.0000000   6.0000000   1.0000000   1.0000000   1.0000000   6.0000000   6.0000000   6.0000000   6.0000000

  Atom        71          72          73          74          75          76          77          78          79          80
 IAtWgt=           1          12           1          12           1           1          12          12          12          12
 AtmWgt=   1.0078250  12.0000000   1.0078250  12.0000000   1.0078250   1.0078250  12.0000000  12.0000000  12.0000000  12.0000000
 NucSpn=           1           0           1           0           1           1           0           0           0           0
 AtZEff=   0.0000000   0.0000000   0.0000000   0.0000000   0.0000000   0.0000000   0.0000000   0.0000000   0.0000000   0.0000000
 NQMom=    0.0000000   0.0000000   0.0000000   0.0000000   0.0000000   0.0000000   0.0000000   0.0000000   0.0000000   0.0000000
 NMagM=    2.7928460   0.0000000   2.7928460   0.0000000   2.7928460   2.7928460   0.0000000   0.0000000   0.0000000   0.0000000
 AtZNuc=   1.0000000   6.0000000   1.0000000   6.0000000   1.0000000   1.0000000   6.0000000   6.0000000   6.0000000   6.0000000

  Atom        81          82          83          84          85          86          87
 IAtWgt=           1          12           1          12           1           1           1
 AtmWgt=   1.0078250  12.0000000   1.0078250  12.0000000   1.0078250   1.0078250   1.0078250
 NucSpn=           1           0           1           0           1           1           1
 AtZEff=   0.0000000   0.0000000   0.0000000   0.0000000   0.0000000   0.0000000   0.0000000
 NQMom=    0.0000000   0.0000000   0.0000000   0.0000000   0.0000000   0.0000000   0.0000000
 NMagM=    2.7928460   0.0000000   2.7928460   0.0000000   2.7928460   2.7928460   2.7928460
 AtZNuc=   1.0000000   6.0000000   1.0000000   6.0000000   1.0000000   1.0000000   1.0000000
 Leave Link  101 at Thu Oct 28 13:26:02 2021, MaxMem=  5242880000 cpu:         1.3
 (Enter /opt/nce/packages/global/g09/l103.exe)

 GradGradGradGradGradGradGradGradGradGradGradGradGradGradGradGradGradGrad
 Berny optimization.
 Initialization pass.
 Trust Radius=3.00D-01 FncErr=1.00D-07 GrdErr=1.00D-07
 Number of steps in this run=      2 maximum allowed number of steps=      2.
 GradGradGradGradGradGradGradGradGradGradGradGradGradGradGradGradGradGrad

 Leave Link  103 at Thu Oct 28 13:26:02 2021, MaxMem=  5242880000 cpu:         0.2
 (Enter /opt/nce/packages/global/g09/l202.exe)
 Symmetry turned off by external request.
 Stoichiometry    C49H37N
 Framework group  C1[X(C49H37N)]
 Deg. of freedom   255
 Full point group                 C1      NOp   1
                          Input orientation:                          
 ---------------------------------------------------------------------
 Center     Atomic      Atomic             Coordinates (Angstroms)
 Number     Number       Type             X           Y           Z
 ---------------------------------------------------------------------
      1          6           0        3.637243    1.475542   -0.453213
      2          6           0        2.420238    2.115407   -0.556429
      3          6           0        1.217898    1.402602   -0.476412
      4          6           0        1.259521    0.018443   -0.279840
      5          6           0        2.502632   -0.594845   -0.181241
      6          6           0        3.705381    0.097556   -0.262842
      7          6           0        0.001647   -0.836602   -0.174041
      8          6           0       -1.255969    0.017098   -0.293310
      9          6           0       -1.213548    1.402276   -0.482483
     10          6           0       -2.415664    2.115254   -0.563738
     11          1           0       -2.398335    3.185096   -0.715700
     12          6           0       -3.633006    1.475026   -0.467034
     13          6           0       -3.702151    0.095259   -0.289386
     14          6           0       -2.499382   -0.597210   -0.206546
     15          1           0        2.403179    3.186823   -0.696838
     16          1           0        2.536414   -1.669269   -0.050727
     17          1           0       -4.539511    2.061888   -0.552108
     18          7           0        0.002295    2.075018   -0.587862
     19          6           0        0.002439    3.492847   -0.751654
     20          6           0       -0.001305    4.326554    0.399258
     21          6           0        0.006245    4.031312   -2.005686
     22          6           0       -0.005055    3.805187    1.715039
     23          6           0       -0.001111    5.732203    0.213903
     24          6           0        0.006414    5.428945   -2.183567
     25          1           0        0.008992    3.371665   -2.864677
     26          6           0       -0.008402    4.644482    2.792841
     27          1           0       -0.005168    2.732222    1.859875
     28          6           0       -0.004689    6.573387    1.353097
     29          6           0        0.002791    6.259128   -1.100162
     30          1           0        0.009402    5.836780   -3.186440
     31          6           0       -0.008225    6.043616    2.611566
     32          1           0       -0.011175    4.236029    3.795885
     33          1           0       -0.004484    7.647177    1.205698
     34          1           0        0.002870    7.335075   -1.230045
     35          1           0       -0.010842    6.695150    3.476660
     36          1           0       -2.532816   -1.667883   -0.048526
     37          1           0        4.544095    2.065856   -0.503872
     38          6           0        0.006397   -1.885719   -1.301154
     39          1           0        0.012108   -1.400538   -2.279388
     40          1           0        0.885791   -2.527900   -1.231638
     41          1           0       -0.876033   -2.524749   -1.240501
     42          6           0       -0.003262   -1.552045    1.189957
     43          1           0        0.878782   -2.184800    1.300105
     44          1           0       -0.008896   -0.826076    2.005717
     45          1           0       -0.882393   -2.189992    1.292393
     46          6           0        5.002770   -0.606222   -0.149819
     47          6           0        5.164834   -1.688879    0.715297
     48          6           0        6.106175   -0.209864   -0.906129
     49          6           0        6.377207   -2.348793    0.817279
     50          1           0        4.334243   -2.017081    1.328759
     51          6           0        7.318651   -0.869726   -0.804217
     52          1           0        6.014879    0.620981   -1.595537
     53          6           0        7.478430   -1.953551    0.058532
     54          1           0        6.462920   -3.192189    1.491968
     55          1           0        8.156311   -0.528410   -1.400640
     56          6           0        8.775674   -2.663390    0.164986
     57          6           0        9.238964   -3.125792    1.397533
     58          6           0        9.562868   -2.887519   -0.965441
     59          6           0       10.451336   -3.790993    1.496894
     60          1           0        8.653612   -2.948209    2.291777
     61          6           0       10.774972   -3.553304   -0.866564
     62          1           0        9.216166   -2.552982   -1.935876
     63          6           0       11.224495   -4.008274    0.365052
     64          1           0       10.795822   -4.135622    2.464423
     65          1           0       11.367074   -3.723446   -1.757671
     66          1           0       12.171249   -4.528558    0.442450
     67          6           0       -5.000006   -0.610451   -0.192857
     68          6           0       -5.170466   -1.886469   -0.731235
     69          6           0       -6.096189   -0.022338    0.439090
     70          6           0       -6.383796   -2.546148   -0.640280
     71          1           0       -4.345873   -2.370773   -1.240449
     72          6           0       -7.309937   -0.681591    0.529302
     73          1           0       -5.999021    0.963078    0.878612
     74          6           0       -7.478479   -1.957174   -0.008301
     75          1           0       -6.476025   -3.540451   -1.060588
     76          1           0       -8.141811   -0.189256    1.018624
     77          6           0       -8.777685   -2.664735    0.088907
     78          6           0       -9.247709   -3.445003   -0.968466
     79          6           0       -9.560421   -2.568382    1.240340
     80          6           0      -10.461818   -4.108245   -0.877366
     81          1           0       -8.666028   -3.520895   -1.879317
     82          6           0      -10.774439   -3.231746    1.331944
     83          1           0       -9.208592   -1.982361    2.080944
     84          6           0      -11.230472   -4.004861    0.273497
     85          1           0      -10.811188   -4.703424   -1.712402
     86          1           0      -11.362970   -3.149581    2.237716
     87          1           0      -12.178624   -4.523428    0.345103
 ---------------------------------------------------------------------
 Rotational constants (GHZ):      0.0754321      0.0214885      0.0175688
 Leave Link  202 at Thu Oct 28 13:26:03 2021, MaxMem=  5242880000 cpu:         0.1
 (Enter /opt/nce/packages/global/g09/l301.exe)
 Standard basis: def2TZVP (5D, 7F)
 Ernie: Thresh=  0.10000D-02 Tol=  0.10000D-05 Strict=F.
  1772 basis functions,  2846 primitive gaussians,  2022 cartesian basis functions
   169 alpha electrons      169 beta electrons
       nuclear repulsion energy      5377.4884041781 Hartrees.
 IExCor= 4639 DFT=T Ex+Corr=wB97XD ExCW=0 ScaHFX=  1.000000
 ScaDFX=  1.000000  1.000000  1.000000  1.000000 ScalE2=  1.000000  1.000000
 IRadAn=      5 IRanWt=     -1 IRanGd=            0 ICorTp=0 IEmpDi=121
  HFx wShort=  0.000000 wLong=  0.200000 cFull=  0.222036 cShort=  0.000000 cLong=  0.777964
  DFx wShort=  0.000000 wLong=  0.200000 cFull=  0.000000 cShort=  0.000000 cLong=  1.000000
 NAtoms=   87 NActive=   87 NUniq=   87 SFac= 1.00D+00 NAtFMM=   60 NAOKFM=T Big=T
 Integral buffers will be    131072 words long.
 Raffenetti 2 integral format.
 Two-electron integral symmetry is turned off.
 R6Disp:  Grimme-D2 Dispersion energy=       -0.0766599105 Hartrees.
 Nuclear repulsion after empirical dispersion term =     5377.4117442677 Hartrees.
 Force inversion solution in PCM.
 ------------------------------------------------------------------------------
 Polarizable Continuum Model (PCM)
 =================================
 Model                : PCM (using non-symmetric T matrix).
 Atomic radii         : SMD-Coulomb.
 Polarization charges : Total charges.
 Charge compensation  : None.
 Solution method      : Matrix inversion.
 Cavity type          : VdW (van der Waals Surface) (Alpha=1.000).
 Cavity algorithm     : GePol (No added spheres)
                        Default sphere list used, NSphG=   87.
                        Lebedev-Laikov grids with approx.  5.0 points / Ang**2.
                        Smoothing algorithm: York/Karplus (Gamma=1.0000).
                        Polarization charges: spherical gaussians, with
                                              point-specific exponents (IZeta= 3).
                        Self-potential: point-specific (ISelfS= 7).
                        Self-field    : sphere-specific E.n sum rule (ISelfD= 2).
 1st derivatives      : Analytical E(r).r(x)/FMM algorithm (CHGder, D1EAlg=3).
                        Cavity 1st derivative terms included.
 2nd derivatives      : Analytical E(r).r(xy)/FMM algorithm (CHGder, D2EAlg=3).
                        Cavity 2nd derivative terms included.
 Solvent              : n,n-DiMethylFormamide, Eps=  37.219000 Eps(inf)=   2.046330
 ------------------------------------------------------------------------------
 GePol: Number of generator spheres                  =      87
 GePol: Total number of spheres                      =      87
 GePol: Number of exposed spheres                    =      87 (100.00%)
 GePol: Number of points                             =    6381
 GePol: Average weight of points                     =       0.11
 GePol: Minimum weight of points                     =   0.31D-09
 GePol: Maximum weight of points                     =    0.17992
 GePol: Number of points with low weight             =     395
 GePol: Fraction of low-weight points (<1% of avg)   =       6.19%
 GePol: Cavity surface area                          =    672.195 Ang**2
 GePol: Cavity volume                                =    666.414 Ang**3
 ------------------------------------------------------------------------------
 Atomic radii for non-electrostatic terms: SMD-CDS.
 ------------------------------------------------------------------------------
 PCM non-electrostatic energy =        -0.0117826977 Hartrees.
 Nuclear repulsion after PCM non-electrostatic terms =     5377.3999615699 Hartrees.
 Leave Link  301 at Thu Oct 28 13:26:03 2021, MaxMem=  5242880000 cpu:         2.3
 (Enter /opt/nce/packages/global/g09/l302.exe)
 NPDir=0 NMtPBC=     1 NCelOv=     1 NCel=       1 NClECP=     1 NCelD=      1
         NCelK=      1 NCelE2=     1 NClLst=     1 CellRange=     0.0.
 One-electron integrals computed using PRISM.
   1 Symmetry operations used in ECPInt.
 ECPInt:  NShTT=  243951 NPrTT=  748464 LenC2=  145132 LenP2D=  291742.
 LDataN:  DoStor=T MaxTD1= 6 Len=  172
 NBasis=  1772 RedAO= T EigKep=  3.08D-06  NBF=  1772
 NBsUse=  1772 1.00D-06 EigRej= -1.00D+00 NBFU=  1772
 Precomputing XC quadrature grid using
 IXCGrd= 4 IRadAn=           5 IRanWt=          -1 IRanGd=           0 AccXCQ= 0.00D+00.
 Generated NRdTot=       0 NPtTot=           0 NUsed=           0 NTot=          32
 NSgBfM=  1608  1608  1608  1608  1608 MxSgAt=    87 MxSgA2=    87.
 Leave Link  302 at Thu Oct 28 13:26:11 2021, MaxMem=  5242880000 cpu:        91.6
 (Enter /opt/nce/packages/global/g09/l303.exe)
 DipDrv:  MaxL=1.
 Leave Link  303 at Thu Oct 28 13:26:12 2021, MaxMem=  5242880000 cpu:         7.3
 (Enter /opt/nce/packages/global/g09/l401.exe)
 ExpMin= 9.52D-02 ExpMax= 1.97D+04 ExpMxC= 6.73D+02 IAcc=3 IRadAn=         5 AccDes= 0.00D+00
 Harris functional with IExCor= 4639 and IRadAn=       5 diagonalized for initial guess.
 HarFok:  IExCor= 4639 AccDes= 0.00D+00 IRadAn=         5 IDoV= 1 UseB2=F ITyADJ=14
 ICtDFT=  3500011 ScaDFX=  1.000000  1.000000  1.000000  1.000000
 FoFCou: FMM=F IPFlag=           0 FMFlag=      100000 FMFlg1=        2001
         NFxFlg=           0 DoJE=T BraDBF=F KetDBF=T FulRan=T
         wScrn=  0.000000 ICntrl=     500 IOpCl=  0 I1Cent=   200000004 NGrid=           0
         NMat0=    1 NMatS0=      1 NMatT0=    0 NMatD0=    1 NMtDS0=    0 NMtDT0=    0
 Symmetry not used in FoFCou.
 Harris En= -1855.84138215273    
 JPrj=0 DoOrth=F DoCkMO=F.
 Leave Link  401 at Thu Oct 28 13:26:39 2021, MaxMem=  5242880000 cpu:       271.0
 (Enter /opt/nce/packages/global/g09/l502.exe)
 Closed shell SCF:
 Using DIIS extrapolation, IDIIS=  1040.
 Two-electron integral symmetry not used.
 IVT=    12320572 IEndB=    12320572 NGot=  5242880000 MDV=  5234666575
 LenX=  5234666575 LenY=  5230576069
 Requested convergence on RMS density matrix=1.00D-08 within 128 cycles.
 Requested convergence on MAX density matrix=1.00D-06.
 Requested convergence on             energy=1.00D-06.
 No special actions if energy rises.
 Fock matrices will be formed incrementally for  20 cycles.

 Cycle   1  Pass 1  IDiag  1:
 FoFJK:  IHMeth= 1 ICntrl=       0 DoSepK=T KAlg= 0 I1Cent=   0 FoldK=F
 IRaf=         1 NMat=   1 IRICut=       1 DoRegI=T DoRafI=F ISym2E= 0.
 FoFCou: FMM=T IPFlag=           0 FMFlag=      100000 FMFlg1=        2001
         NFxFlg=           0 DoJE=T BraDBF=F KetDBF=F FulRan=T
         wScrn=  0.000000 ICntrl=     500 IOpCl=  0 I1Cent=           0 NGrid=           0
         NMat0=    1 NMatS0=      1 NMatT0=    0 NMatD0=    1 NMtDS0=    0 NMtDT0=    0
 Symmetry not used in FoFCou.
 FMM levels:  10  Number of levels for PrismC:   9
 Inv3:  Mode=1 IEnd=   122151483.
 Iteration    1 A*A^-1 deviation from unit magnitude is 1.15D-14 for   6381.
 Iteration    1 A*A^-1 deviation from orthogonality  is 6.77D-15 for   6368   3880.
 Iteration    1 A^-1*A deviation from unit magnitude is 1.11D-14 for   6381.
 Iteration    1 A^-1*A deviation from orthogonality  is 1.10D-08 for   3834   2158.
 Iteration    2 A*A^-1 deviation from unit magnitude is 3.11D-15 for   5883.
 Iteration    2 A*A^-1 deviation from orthogonality  is 4.77D-15 for   6368   3196.
 Iteration    2 A^-1*A deviation from unit magnitude is 8.88D-16 for    192.
 Iteration    2 A^-1*A deviation from orthogonality  is 3.88D-16 for   2567     40.
 E= -1943.82675337024    
 DIIS: error= 4.05D-02 at cycle   1 NSaved=   1.
 NSaved= 1 IEnMin= 1 EnMin= -1943.82675337024     IErMin= 1 ErrMin= 4.05D-02
 ErrMax= 4.05D-02  0.00D+00 EMaxC= 1.00D-01 BMatC= 4.23D+00 BMatP= 4.23D+00
 IDIUse=3 WtCom= 5.95D-01 WtEn= 4.05D-01
 Coeff-Com:  0.100D+01
 Coeff-En:   0.100D+01
 Coeff:      0.100D+01
 Gap=     0.309 Goal=   None    Shift=    0.000
 GapD=    0.309 DampG=1.000 DampE=0.500 DampFc=0.5000 IDamp=-1.
 Damping current iteration by 5.00D-01
 RMSDP=1.31D-03 MaxDP=3.28D-01              OVMax= 1.53D-01

 Cycle   2  Pass 1  IDiag  1:
 RMSU=  5.76D-04    CP:  9.29D-01
 E= -1944.08881332259     Delta-E=       -0.262059952345 Rises=F Damp=T
 DIIS: error= 1.88D-02 at cycle   2 NSaved=   2.
 NSaved= 2 IEnMin= 2 EnMin= -1944.08881332259     IErMin= 2 ErrMin= 1.88D-02
 ErrMax= 1.88D-02  0.00D+00 EMaxC= 1.00D-01 BMatC= 9.32D-01 BMatP= 4.23D+00
 IDIUse=3 WtCom= 8.12D-01 WtEn= 1.88D-01
 Coeff-Com: -0.771D+00 0.177D+01
 Coeff-En:   0.000D+00 0.100D+01
 Coeff:     -0.626D+00 0.163D+01
 Gap=     0.284 Goal=   None    Shift=    0.000
 RMSDP=6.73D-04 MaxDP=8.45D-02 DE=-2.62D-01 OVMax= 2.33D-01

 Cycle   3  Pass 1  IDiag  1:
 RMSU=  4.71D-04    CP:  8.71D-01  1.71D+00
 E= -1944.22498312364     Delta-E=       -0.136169801051 Rises=F Damp=F
 DIIS: error= 6.83D-03 at cycle   3 NSaved=   3.
 NSaved= 3 IEnMin= 3 EnMin= -1944.22498312364     IErMin= 3 ErrMin= 6.83D-03
 ErrMax= 6.83D-03  0.00D+00 EMaxC= 1.00D-01 BMatC= 1.53D-01 BMatP= 9.32D-01
 IDIUse=3 WtCom= 9.32D-01 WtEn= 6.83D-02
 Coeff-Com: -0.425D+00 0.907D+00 0.518D+00
 Coeff-En:   0.000D+00 0.000D+00 0.100D+01
 Coeff:     -0.396D+00 0.845D+00 0.551D+00
 Gap=     0.290 Goal=   None    Shift=    0.000
 RMSDP=2.71D-04 MaxDP=6.87D-02 DE=-1.36D-01 OVMax= 1.17D-01

 Cycle   4  Pass 1  IDiag  1:
 RMSU=  1.41D-04    CP:  8.62D-01  1.91D+00  5.78D-01
 E= -1944.36311597037     Delta-E=       -0.138132846730 Rises=F Damp=F
 DIIS: error= 1.23D-03 at cycle   4 NSaved=   4.
 NSaved= 4 IEnMin= 4 EnMin= -1944.36311597037     IErMin= 4 ErrMin= 1.23D-03
 ErrMax= 1.23D-03  0.00D+00 EMaxC= 1.00D-01 BMatC= 4.02D-03 BMatP= 1.53D-01
 IDIUse=3 WtCom= 9.88D-01 WtEn= 1.23D-02
 Coeff-Com: -0.138D+00 0.296D+00 0.246D+00 0.597D+00
 Coeff-En:   0.000D+00 0.000D+00 0.000D+00 0.100D+01
 Coeff:     -0.137D+00 0.292D+00 0.242D+00 0.602D+00
 Gap=     0.261 Goal=   None    Shift=    0.000
 RMSDP=3.88D-05 MaxDP=6.16D-03 DE=-1.38D-01 OVMax= 1.27D-02

 Cycle   5  Pass 1  IDiag  1:
 RMSU=  2.90D-05    CP:  8.62D-01  1.91D+00  6.31D-01  9.55D-01
 E= -1944.36660875224     Delta-E=       -0.003492781868 Rises=F Damp=F
 DIIS: error= 1.85D-04 at cycle   5 NSaved=   5.
 NSaved= 5 IEnMin= 5 EnMin= -1944.36660875224     IErMin= 5 ErrMin= 1.85D-04
 ErrMax= 1.85D-04  0.00D+00 EMaxC= 1.00D-01 BMatC= 9.25D-05 BMatP= 4.02D-03
 IDIUse=3 WtCom= 9.98D-01 WtEn= 1.85D-03
 Coeff-Com:  0.364D-01-0.776D-01-0.214D-01 0.114D+00 0.948D+00
 Coeff-En:   0.000D+00 0.000D+00 0.000D+00 0.000D+00 0.100D+01
 Coeff:      0.363D-01-0.774D-01-0.213D-01 0.114D+00 0.948D+00
 Gap=     0.262 Goal=   None    Shift=    0.000
 RMSDP=2.26D-05 MaxDP=3.89D-03 DE=-3.49D-03 OVMax= 6.26D-03

 Cycle   6  Pass 1  IDiag  1:
 RMSU=  1.31D-05    CP:  8.61D-01  1.92D+00  6.43D-01  1.05D+00  1.32D+00
 E= -1944.36675638555     Delta-E=       -0.000147633317 Rises=F Damp=F
 DIIS: error= 7.26D-05 at cycle   6 NSaved=   6.
 NSaved= 6 IEnMin= 6 EnMin= -1944.36675638555     IErMin= 6 ErrMin= 7.26D-05
 ErrMax= 7.26D-05  0.00D+00 EMaxC= 1.00D-01 BMatC= 1.35D-05 BMatP= 9.25D-05
 IDIUse=1 WtCom= 1.00D+00 WtEn= 0.00D+00
 Coeff-Com:  0.188D-01-0.401D-01-0.181D-01 0.613D-02 0.347D+00 0.686D+00
 Coeff:      0.188D-01-0.401D-01-0.181D-01 0.613D-02 0.347D+00 0.686D+00
 Gap=     0.263 Goal=   None    Shift=    0.000
 RMSDP=4.94D-06 MaxDP=8.27D-04 DE=-1.48D-04 OVMax= 1.83D-03

 Cycle   7  Pass 1  IDiag  1:
 RMSU=  3.07D-06    CP:  8.60D-01  1.92D+00  6.44D-01  1.07D+00  1.39D+00
                    CP:  1.06D+00
 E= -1944.36677618174     Delta-E=       -0.000019796187 Rises=F Damp=F
 DIIS: error= 2.59D-05 at cycle   7 NSaved=   7.
 NSaved= 7 IEnMin= 7 EnMin= -1944.36677618174     IErMin= 7 ErrMin= 2.59D-05
 ErrMax= 2.59D-05  0.00D+00 EMaxC= 1.00D-01 BMatC= 1.26D-06 BMatP= 1.35D-05
 IDIUse=1 WtCom= 1.00D+00 WtEn= 0.00D+00
 Coeff-Com: -0.241D-02 0.517D-02 0.559D-03-0.196D-01-0.925D-01 0.116D+00
 Coeff-Com:  0.993D+00
 Coeff:     -0.241D-02 0.517D-02 0.559D-03-0.196D-01-0.925D-01 0.116D+00
 Coeff:      0.993D+00
 Gap=     0.263 Goal=   None    Shift=    0.000
 RMSDP=2.71D-06 MaxDP=4.57D-04 DE=-1.98D-05 OVMax= 1.56D-03

 Cycle   8  Pass 1  IDiag  1:
 RMSU=  1.53D-06    CP:  8.60D-01  1.92D+00  6.44D-01  1.07D+00  1.43D+00
                    CP:  1.16D+00  1.32D+00
 E= -1944.36678011021     Delta-E=       -0.000003928465 Rises=F Damp=F
 DIIS: error= 1.07D-05 at cycle   8 NSaved=   8.
 NSaved= 8 IEnMin= 8 EnMin= -1944.36678011021     IErMin= 8 ErrMin= 1.07D-05
 ErrMax= 1.07D-05  0.00D+00 EMaxC= 1.00D-01 BMatC= 1.96D-07 BMatP= 1.26D-06
 IDIUse=1 WtCom= 1.00D+00 WtEn= 0.00D+00
 Coeff-Com: -0.236D-02 0.507D-02 0.200D-02-0.743D-02-0.598D-01-0.263D-01
 Coeff-Com:  0.285D+00 0.804D+00
 Coeff:     -0.236D-02 0.507D-02 0.200D-02-0.743D-02-0.598D-01-0.263D-01
 Coeff:      0.285D+00 0.804D+00
 Gap=     0.263 Goal=   None    Shift=    0.000
 RMSDP=8.23D-07 MaxDP=1.05D-04 DE=-3.93D-06 OVMax= 4.78D-04

 Cycle   9  Pass 1  IDiag  1:
 RMSU=  5.49D-07    CP:  8.60D-01  1.92D+00  6.44D-01  1.07D+00  1.44D+00
                    CP:  1.18D+00  1.42D+00  1.25D+00
 E= -1944.36678061069     Delta-E=       -0.000000500484 Rises=F Damp=F
 DIIS: error= 5.55D-06 at cycle   9 NSaved=   9.
 NSaved= 9 IEnMin= 9 EnMin= -1944.36678061069     IErMin= 9 ErrMin= 5.55D-06
 ErrMax= 5.55D-06  0.00D+00 EMaxC= 1.00D-01 BMatC= 2.89D-08 BMatP= 1.96D-07
 IDIUse=1 WtCom= 1.00D+00 WtEn= 0.00D+00
 Coeff-Com: -0.808D-04 0.170D-03 0.430D-03 0.139D-02 0.235D-02-0.264D-01
 Coeff-Com: -0.123D+00 0.172D+00 0.973D+00
 Coeff:     -0.808D-04 0.170D-03 0.430D-03 0.139D-02 0.235D-02-0.264D-01
 Coeff:     -0.123D+00 0.172D+00 0.973D+00
 Gap=     0.263 Goal=   None    Shift=    0.000
 RMSDP=4.78D-07 MaxDP=8.99D-05 DE=-5.00D-07 OVMax= 2.64D-04

 Cycle  10  Pass 1  IDiag  1:
 RMSU=  2.19D-07    CP:  8.60D-01  1.92D+00  6.44D-01  1.07D+00  1.44D+00
                    CP:  1.18D+00  1.47D+00  1.45D+00  1.37D+00
 E= -1944.36678070913     Delta-E=       -0.000000098436 Rises=F Damp=F
 DIIS: error= 1.52D-06 at cycle  10 NSaved=  10.
 NSaved=10 IEnMin=10 EnMin= -1944.36678070913     IErMin=10 ErrMin= 1.52D-06
 ErrMax= 1.52D-06  0.00D+00 EMaxC= 1.00D-01 BMatC= 3.31D-09 BMatP= 2.89D-08
 IDIUse=1 WtCom= 1.00D+00 WtEn= 0.00D+00
 Coeff-Com:  0.181D-03-0.389D-03-0.185D-04 0.128D-02 0.648D-02-0.407D-02
 Coeff-Com: -0.607D-01-0.326D-01 0.273D+00 0.817D+00
 Coeff:      0.181D-03-0.389D-03-0.185D-04 0.128D-02 0.648D-02-0.407D-02
 Coeff:     -0.607D-01-0.326D-01 0.273D+00 0.817D+00
 Gap=     0.263 Goal=   None    Shift=    0.000
 RMSDP=1.56D-07 MaxDP=3.24D-05 DE=-9.84D-08 OVMax= 6.66D-05

 Cycle  11  Pass 1  IDiag  1:
 RMSU=  6.45D-08    CP:  8.60D-01  1.92D+00  6.44D-01  1.07D+00  1.44D+00
                    CP:  1.18D+00  1.47D+00  1.49D+00  1.50D+00  1.33D+00
 E= -1944.36678071974     Delta-E=       -0.000000010611 Rises=F Damp=F
 DIIS: error= 9.03D-07 at cycle  11 NSaved=  11.
 NSaved=11 IEnMin=11 EnMin= -1944.36678071974     IErMin=11 ErrMin= 9.03D-07
 ErrMax= 9.03D-07  0.00D+00 EMaxC= 1.00D-01 BMatC= 6.54D-10 BMatP= 3.31D-09
 IDIUse=1 WtCom= 1.00D+00 WtEn= 0.00D+00
 Coeff-Com:  0.629D-04-0.134D-03-0.101D-03 0.671D-04 0.896D-03 0.478D-02
 Coeff-Com:  0.114D-01-0.440D-01-0.142D+00 0.179D+00 0.989D+00
 Coeff:      0.629D-04-0.134D-03-0.101D-03 0.671D-04 0.896D-03 0.478D-02
 Coeff:      0.114D-01-0.440D-01-0.142D+00 0.179D+00 0.989D+00
 Gap=     0.263 Goal=   None    Shift=    0.000
 RMSDP=8.66D-08 MaxDP=1.80D-05 DE=-1.06D-08 OVMax= 3.66D-05

 Cycle  12  Pass 1  IDiag  1:
 RMSU=  3.40D-08    CP:  8.60D-01  1.92D+00  6.44D-01  1.07D+00  1.43D+00
                    CP:  1.18D+00  1.47D+00  1.51D+00  1.57D+00  1.56D+00
                    CP:  1.36D+00
 E= -1944.36678072249     Delta-E=       -0.000000002748 Rises=F Damp=F
 DIIS: error= 2.96D-07 at cycle  12 NSaved=  12.
 NSaved=12 IEnMin=12 EnMin= -1944.36678072249     IErMin=12 ErrMin= 2.96D-07
 ErrMax= 2.96D-07  0.00D+00 EMaxC= 1.00D-01 BMatC= 7.79D-11 BMatP= 6.54D-10
 IDIUse=1 WtCom= 1.00D+00 WtEn= 0.00D+00
 Coeff-Com: -0.581D-05 0.129D-04-0.233D-04-0.141D-03-0.636D-03 0.164D-02
 Coeff-Com:  0.101D-01-0.502D-02-0.649D-01-0.695D-01 0.210D+00 0.918D+00
 Coeff:     -0.581D-05 0.129D-04-0.233D-04-0.141D-03-0.636D-03 0.164D-02
 Coeff:      0.101D-01-0.502D-02-0.649D-01-0.695D-01 0.210D+00 0.918D+00
 Gap=     0.263 Goal=   None    Shift=    0.000
 RMSDP=2.43D-08 MaxDP=1.73D-06 DE=-2.75D-09 OVMax= 1.29D-05

 Cycle  13  Pass 1  IDiag  1:
 RMSU=  1.11D-08    CP:  8.60D-01  1.92D+00  6.44D-01  1.07D+00  1.43D+00
                    CP:  1.18D+00  1.47D+00  1.51D+00  1.58D+00  1.62D+00
                    CP:  1.55D+00  1.32D+00
 E= -1944.36678072279     Delta-E=       -0.000000000309 Rises=F Damp=F
 DIIS: error= 1.13D-07 at cycle  13 NSaved=  13.
 NSaved=13 IEnMin=13 EnMin= -1944.36678072279     IErMin=13 ErrMin= 1.13D-07
 ErrMax= 1.13D-07  0.00D+00 EMaxC= 1.00D-01 BMatC= 2.03D-11 BMatP= 7.79D-11
 IDIUse=1 WtCom= 1.00D+00 WtEn= 0.00D+00
 Coeff-Com: -0.120D-04 0.257D-04 0.613D-05-0.693D-04-0.404D-03-0.481D-04
 Coeff-Com:  0.230D-02 0.467D-02-0.485D-02-0.592D-01-0.774D-01 0.374D+00
 Coeff-Com:  0.761D+00
 Coeff:     -0.120D-04 0.257D-04 0.613D-05-0.693D-04-0.404D-03-0.481D-04
 Coeff:      0.230D-02 0.467D-02-0.485D-02-0.592D-01-0.774D-01 0.374D+00
 Coeff:      0.761D+00
 Gap=     0.263 Goal=   None    Shift=    0.000
 RMSDP=9.96D-09 MaxDP=9.73D-07 DE=-3.09D-10 OVMax= 4.26D-06

 Error on total polarization charges =  0.09809
 SCF Done:  E(RwB97XD) =  -1944.36678072     A.U. after   13 cycles
            NFock= 13  Conv=0.10D-07     -V/T= 2.0050
 KE= 1.934730485473D+03 PE=-1.526770312547D+04 EE= 6.011205897708D+03
 SMD-CDS (non-electrostatic) energy       (kcal/mol) =      -7.39
 (included in total energy above)
 Leave Link  502 at Thu Oct 28 14:42:05 2021, MaxMem=  5242880000 cpu:     52429.6
 (Enter /opt/nce/packages/global/g09/l801.exe)
 DoSCS=F DFT=T ScalE2(SS,OS)=  1.000000  1.000000
 Range of M.O.s used for correlation:     1  1772
 NBasis=  1772 NAE=   169 NBE=   169 NFC=     0 NFV=     0
 NROrb=   1772 NOA=   169 NOB=   169 NVA=  1603 NVB=  1603

 **** Warning!!: The largest alpha MO coefficient is  0.54659699D+02

 Leave Link  801 at Thu Oct 28 14:42:05 2021, MaxMem=  5242880000 cpu:         1.0
 (Enter /opt/nce/packages/global/g09/l1101.exe)
 Using compressed storage, NAtomX=    87.
 Will process     88 centers per pass.
 PrsmSu:  requested number of processors reduced to:   9 ShMem   1 Linda.
   1 Symmetry operations used in ECPInt.
 ECPInt:  NShTT=  243951 NPrTT=  748464 LenC2=  145132 LenP2D=  291742.
 LDataN:  DoStor=T MaxTD1= 7 Len=  274
 Number of processors reduced to   3 by ecpmxn.
 R6Disp: Adding Grimme-D2 dispersion energy 1st derivatives to the gradient.
 Leave Link 1101 at Thu Oct 28 14:45:20 2021, MaxMem=  5242880000 cpu:      1849.6
 (Enter /opt/nce/packages/global/g09/l1102.exe)
 Symmetrizing basis deriv contribution to polar:
 IMax=3 JMax=2 DiffMx= 0.00D+00
 Leave Link 1102 at Thu Oct 28 14:45:23 2021, MaxMem=  5242880000 cpu:         6.0
 (Enter /opt/nce/packages/global/g09/l1110.exe)
 Forming Gx(P) for the SCF density, NAtomX=    87.
 Integral derivatives from FoFJK, PRISM(SPDF).
 Do as many integral derivatives as possible in FoFJK.
 G2DrvN: MDV=    5242879200.
 G2DrvN: will do    44 centers at a time, making    2 passes.
 G2DrvN:  IPasSy=1 do centers    0 through   43.
 Calling FoFCou, ICntrl=  3107 FMM=T I1Cent=   0 AccDes= 1.00D-11.
 FoFJK:  IHMeth= 1 ICntrl=    3107 DoSepK=T KAlg= 0 I1Cent=   0 FoldK=F
 IRaf=         1 NMat=   1 IRICut=       1 DoRegI=T DoRafI=F ISym2E= 0.
 FoFCou: FMM=T IPFlag=           0 FMFlag=      100000 FMFlg1=        2001
         NFxFlg=           0 DoJE=F BraDBF=F KetDBF=F FulRan=T
         wScrn=  0.000000 ICntrl=    3507 IOpCl=  0 I1Cent=           0 NGrid=           0
         NMat0=    1 NMatS0=      1 NMatT0=    0 NMatD0=    1 NMtDS0=    0 NMtDT0=    0
 Symmetry not used in FoFCou.
 FMM levels:  10  Number of levels for PrismC:   9
 G2DrvN:  IPasSy=1 do centers   44 through   87.
 Calling FoFCou, ICntrl=  3107 FMM=T I1Cent=   0 AccDes= 1.00D-11.
 NEqPCM:  Using equilibrium solvation (IEInf=0, Eps=  37.2190, EpsInf=   2.0463)
 G2PCM: DoFxE=T DoFxN=T DoGrad=T DoDP/DQ/DG/TGxP=FFFF NFrqRd=   0 IEInf=0 SqF1=F DoCFld=F IF1Alg=4.
 GePol: Maximum number of non-zero 1st derivatives   =     220
 End of G2Drv F.D. properties file   721 does not exist.
 End of G2Drv F.D. properties file   722 does not exist.
 End of G2Drv F.D. properties file   788 does not exist.
 Leave Link 1110 at Thu Oct 28 17:30:48 2021, MaxMem=  5242880000 cpu:    118733.3
 (Enter /opt/nce/packages/global/g09/l1002.exe)
 Minotr:  Closed shell wavefunction.
          IDoAtm=11111111111111111111111111111111111111111111111111
          IDoAtm=1111111111111111111111111111111111111
 NEqPCM:  Using equilibrium solvation (IEInf=0, Eps=  37.2190, EpsInf=   2.0463)
          Direct CPHF calculation.
          Differentiating once with respect to electric field.
                with respect to dipole field.
          Differentiating once with respect to nuclear coordinates.
          Requested convergence is 1.0D-08 RMS, and 1.0D-07 maximum.
          Secondary convergence is 1.0D-12 RMS, and 1.0D-12 maximum.
          NewPWx=T KeepS1=F KeepF1=F KeepIn=T MapXYZ=F SortEE=F KeepMc=T.
          MDV=    5242877354 using IRadAn=       1.
 Generate precomputed XC quadrature information.
          Solving linear equations simultaneously, MaxMat=      72.
 FoF2E skips out because all densities are zero.
 CalDSu exits because no D1Ps are significant.
 FoFJK:  IHMeth= 1 ICntrl=       0 DoSepK=T KAlg= 0 I1Cent=   0 FoldK=F
 IRaf=         1 NMat=  72 IRICut=       1 DoRegI=T DoRafI=F ISym2E= 0.
          There are   264 degrees of freedom in the 1st order CPHF.  IDoFFX=6 NUNeed=     3.
    264 vectors produced by pass  0 Test12= 2.71D-13 1.00D-09 XBig12= 3.88D+02 9.14D+00.
 AX will form    72 AO Fock derivatives at one time.
    263 vectors produced by pass  1 Test12= 2.71D-13 1.00D-09 XBig12= 2.17D+01 1.01D+00.
    261 vectors produced by pass  2 Test12= 2.71D-13 1.00D-09 XBig12= 7.06D-01 1.35D-01.
    261 vectors produced by pass  3 Test12= 2.71D-13 1.00D-09 XBig12= 8.22D-03 1.11D-02.
    261 vectors produced by pass  4 Test12= 2.71D-13 1.00D-09 XBig12= 7.10D-05 8.17D-04.
    261 vectors produced by pass  5 Test12= 2.71D-13 1.00D-09 XBig12= 6.54D-07 5.62D-05.
    259 vectors produced by pass  6 Test12= 2.71D-13 1.00D-09 XBig12= 5.67D-09 4.12D-06.
    124 vectors produced by pass  7 Test12= 2.71D-13 1.00D-09 XBig12= 4.34D-11 3.42D-07.
     10 vectors produced by pass  8 Test12= 2.71D-13 1.00D-09 XBig12= 2.97D-13 2.44D-08.
      4 vectors produced by pass  9 Test12= 2.71D-13 1.00D-09 XBig12= 2.60D-15 2.45D-09.
      3 vectors produced by pass 10 Test12= 2.71D-13 1.00D-09 XBig12= 1.88D-15 1.47D-09.
      1 vectors produced by pass 11 Test12= 2.71D-13 1.00D-09 XBig12= 4.70D-16 1.06D-09.
      1 vectors produced by pass 12 Test12= 2.71D-13 1.00D-09 XBig12= 7.53D-16 1.22D-09.
 InvSVY:  IOpt=1 It=  1 EMax= 3.55D-14
 Solved reduced A of dimension  1973 with   264 vectors.
 FullF1:  Do perturbations    1 to     3.
 Isotropic polarizability for W=    0.000000      904.48 Bohr**3.
 End of Minotr F.D. properties file   721 does not exist.
 End of Minotr F.D. properties file   722 does not exist.
 End of Minotr F.D. properties file   788 does not exist.
 Leave Link 1002 at Fri Oct 29 21:10:49 2021, MaxMem=  5242880000 cpu:   1190296.0
 (Enter /opt/nce/packages/global/g09/l601.exe)
 Copying SCF densities to generalized density rwf, IOpCl= 0 IROHF=0.

 **********************************************************************

            Population analysis using the SCF density.

 **********************************************************************

 Alpha  occ. eigenvalues --  -14.47092 -10.33350 -10.33348 -10.32942 -10.30813
 Alpha  occ. eigenvalues --  -10.30267 -10.30193 -10.29937 -10.29934 -10.29819
 Alpha  occ. eigenvalues --  -10.29809 -10.29763 -10.29758 -10.29210 -10.29209
 Alpha  occ. eigenvalues --  -10.29154 -10.29126 -10.29006 -10.28992 -10.28981
 Alpha  occ. eigenvalues --  -10.28947 -10.28937 -10.28869 -10.28782 -10.28581
 Alpha  occ. eigenvalues --  -10.28580 -10.28577 -10.28576 -10.28576 -10.28576
 Alpha  occ. eigenvalues --  -10.28573 -10.28572 -10.28523 -10.28518 -10.28514
 Alpha  occ. eigenvalues --  -10.28510 -10.28466 -10.28464 -10.28463 -10.28460
 Alpha  occ. eigenvalues --  -10.28422 -10.28419 -10.28394 -10.28388 -10.28287
 Alpha  occ. eigenvalues --  -10.28286 -10.28108 -10.28108 -10.26455 -10.26455
 Alpha  occ. eigenvalues --   -1.08589  -0.98775  -0.98052  -0.97884  -0.96828
 Alpha  occ. eigenvalues --   -0.96600  -0.95308  -0.95165  -0.92953  -0.91986
 Alpha  occ. eigenvalues --   -0.89515  -0.88554  -0.87715  -0.85981  -0.85301
 Alpha  occ. eigenvalues --   -0.85175  -0.84795  -0.84765  -0.84424  -0.84227
 Alpha  occ. eigenvalues --   -0.84198  -0.83123  -0.81795  -0.81509  -0.79428
 Alpha  occ. eigenvalues --   -0.77955  -0.74643  -0.74148  -0.72520  -0.71868
 Alpha  occ. eigenvalues --   -0.71814  -0.71575  -0.71111  -0.70265  -0.70191
 Alpha  occ. eigenvalues --   -0.69445  -0.68496  -0.67731  -0.67420  -0.66729
 Alpha  occ. eigenvalues --   -0.66403  -0.63886  -0.63609  -0.62523  -0.62107
 Alpha  occ. eigenvalues --   -0.61847  -0.60869  -0.59219  -0.58804  -0.58536
 Alpha  occ. eigenvalues --   -0.57566  -0.56265  -0.55947  -0.55909  -0.55273
 Alpha  occ. eigenvalues --   -0.54626  -0.54496  -0.54273  -0.52994  -0.52886
 Alpha  occ. eigenvalues --   -0.52779  -0.52653  -0.52324  -0.52233  -0.52086
 Alpha  occ. eigenvalues --   -0.51858  -0.51606  -0.50960  -0.50897  -0.50784
 Alpha  occ. eigenvalues --   -0.50749  -0.50436  -0.50306  -0.49864  -0.49846
 Alpha  occ. eigenvalues --   -0.48858  -0.48841  -0.48500  -0.48077  -0.47894
 Alpha  occ. eigenvalues --   -0.47387  -0.47198  -0.47141  -0.46424  -0.45847
 Alpha  occ. eigenvalues --   -0.45752  -0.45666  -0.44773  -0.44747  -0.44025
 Alpha  occ. eigenvalues --   -0.43707  -0.43010  -0.42927  -0.42675  -0.42432
 Alpha  occ. eigenvalues --   -0.42159  -0.41909  -0.41778  -0.41632  -0.41247
 Alpha  occ. eigenvalues --   -0.41129  -0.40979  -0.39823  -0.39168  -0.37496
 Alpha  occ. eigenvalues --   -0.37091  -0.35842  -0.33726  -0.33548  -0.33546
 Alpha  occ. eigenvalues --   -0.33506  -0.33499  -0.33043  -0.32503  -0.32486
 Alpha  occ. eigenvalues --   -0.30807  -0.29803  -0.29063  -0.25140
 Alpha virt. eigenvalues --    0.01139   0.01381   0.02329   0.03827   0.04704
 Alpha virt. eigenvalues --    0.05207   0.05379   0.05689   0.05750   0.05805
 Alpha virt. eigenvalues --    0.06581   0.07487   0.08578   0.10026   0.11195
 Alpha virt. eigenvalues --    0.11556   0.13281   0.13420   0.13777   0.13978
 Alpha virt. eigenvalues --    0.14180   0.14380   0.14851   0.14983   0.15194
 Alpha virt. eigenvalues --    0.15716   0.15959   0.16101   0.16439   0.16499
 Alpha virt. eigenvalues --    0.17071   0.17297   0.17501   0.17852   0.17922
 Alpha virt. eigenvalues --    0.18148   0.18359   0.18823   0.19061   0.19309
 Alpha virt. eigenvalues --    0.19462   0.19497   0.19638   0.19652   0.19827
 Alpha virt. eigenvalues --    0.19952   0.20387   0.20554   0.20765   0.20993
 Alpha virt. eigenvalues --    0.21213   0.21657   0.22033   0.22480   0.22532
 Alpha virt. eigenvalues --    0.22591   0.22957   0.23346   0.23476   0.23560
 Alpha virt. eigenvalues --    0.23836   0.24019   0.24216   0.24375   0.24765
 Alpha virt. eigenvalues --    0.25084   0.25830   0.25872   0.26033   0.26097
 Alpha virt. eigenvalues --    0.26273   0.26894   0.27019   0.27230   0.27257
 Alpha virt. eigenvalues --    0.27425   0.27586   0.27665   0.27905   0.28014
 Alpha virt. eigenvalues --    0.28106   0.28221   0.28515   0.28616   0.28896
 Alpha virt. eigenvalues --    0.29329   0.29455   0.29601   0.29806   0.29977
 Alpha virt. eigenvalues --    0.30058   0.30219   0.30422   0.30592   0.30899
 Alpha virt. eigenvalues --    0.31148   0.31205   0.31490   0.31599   0.31847
 Alpha virt. eigenvalues --    0.31928   0.32033   0.32129   0.32197   0.32373
 Alpha virt. eigenvalues --    0.32552   0.32775   0.32935   0.33163   0.33275
 Alpha virt. eigenvalues --    0.33545   0.33690   0.33824   0.34122   0.34269
 Alpha virt. eigenvalues --    0.34669   0.35195   0.35335   0.35588   0.35828
 Alpha virt. eigenvalues --    0.36135   0.36383   0.36543   0.36602   0.36681
 Alpha virt. eigenvalues --    0.36920   0.37032   0.37114   0.37207   0.37611
 Alpha virt. eigenvalues --    0.37858   0.37968   0.38256   0.38499   0.39015
 Alpha virt. eigenvalues --    0.39116   0.39448   0.39494   0.39767   0.40029
 Alpha virt. eigenvalues --    0.40108   0.40310   0.40348   0.40593   0.40827
 Alpha virt. eigenvalues --    0.41109   0.41339   0.41674   0.41814   0.41931
 Alpha virt. eigenvalues --    0.42139   0.42235   0.42337   0.42427   0.42553
 Alpha virt. eigenvalues --    0.42687   0.42813   0.42971   0.43192   0.43421
 Alpha virt. eigenvalues --    0.43467   0.43929   0.44167   0.44371   0.44717
 Alpha virt. eigenvalues --    0.44898   0.45150   0.45200   0.45259   0.45495
 Alpha virt. eigenvalues --    0.45630   0.45805   0.46093   0.46389   0.46563
 Alpha virt. eigenvalues --    0.46744   0.46810   0.46910   0.47128   0.47249
 Alpha virt. eigenvalues --    0.47514   0.47756   0.48206   0.48610   0.48757
 Alpha virt. eigenvalues --    0.48911   0.49117   0.49362   0.49457   0.49630
 Alpha virt. eigenvalues --    0.49717   0.49854   0.50013   0.50033   0.50239
 Alpha virt. eigenvalues --    0.50363   0.50499   0.50731   0.50971   0.51132
 Alpha virt. eigenvalues --    0.51255   0.51416   0.51668   0.51802   0.51922
 Alpha virt. eigenvalues --    0.52127   0.52365   0.52500   0.52982   0.53147
 Alpha virt. eigenvalues --    0.53524   0.53642   0.53770   0.53935   0.54034
 Alpha virt. eigenvalues --    0.54503   0.54662   0.54880   0.55517   0.55629
 Alpha virt. eigenvalues --    0.55765   0.55979   0.56056   0.56413   0.56538
 Alpha virt. eigenvalues --    0.56921   0.57200   0.57263   0.57647   0.57820
 Alpha virt. eigenvalues --    0.57883   0.58014   0.58175   0.58518   0.58697
 Alpha virt. eigenvalues --    0.58704   0.59087   0.59344   0.59424   0.59563
 Alpha virt. eigenvalues --    0.59833   0.60020   0.60099   0.60454   0.60518
 Alpha virt. eigenvalues --    0.60881   0.60917   0.61146   0.61519   0.61732
 Alpha virt. eigenvalues --    0.62218   0.62548   0.62730   0.63012   0.63304
 Alpha virt. eigenvalues --    0.63551   0.64061   0.64361   0.64584   0.64777
 Alpha virt. eigenvalues --    0.65081   0.65529   0.65779   0.66139   0.66657
 Alpha virt. eigenvalues --    0.66889   0.67208   0.67373   0.67510   0.67773
 Alpha virt. eigenvalues --    0.68400   0.69040   0.69095   0.69219   0.69412
 Alpha virt. eigenvalues --    0.69549   0.69716   0.69923   0.70665   0.70819
 Alpha virt. eigenvalues --    0.70947   0.71146   0.71676   0.71980   0.72155
 Alpha virt. eigenvalues --    0.72469   0.72765   0.73308   0.73489   0.73531
 Alpha virt. eigenvalues --    0.73768   0.74202   0.74395   0.74635   0.75015
 Alpha virt. eigenvalues --    0.75171   0.75668   0.75739   0.76122   0.76286
 Alpha virt. eigenvalues --    0.76569   0.76795   0.77222   0.77266   0.77657
 Alpha virt. eigenvalues --    0.78019   0.78122   0.78149   0.78198   0.78279
 Alpha virt. eigenvalues --    0.78422   0.78721   0.79222   0.79275   0.79396
 Alpha virt. eigenvalues --    0.79748   0.79953   0.80103   0.80227   0.80419
 Alpha virt. eigenvalues --    0.80539   0.80910   0.81018   0.81234   0.81360
 Alpha virt. eigenvalues --    0.81474   0.81742   0.81860   0.82068   0.82111
 Alpha virt. eigenvalues --    0.82379   0.82590   0.82900   0.82965   0.83264
 Alpha virt. eigenvalues --    0.83586   0.84107   0.84340   0.84554   0.84632
 Alpha virt. eigenvalues --    0.84892   0.85452   0.85581   0.85784   0.85978
 Alpha virt. eigenvalues --    0.86281   0.86861   0.86940   0.87002   0.87271
 Alpha virt. eigenvalues --    0.87478   0.87861   0.88059   0.88458   0.88648
 Alpha virt. eigenvalues --    0.88789   0.89022   0.89667   0.89704   0.90076
 Alpha virt. eigenvalues --    0.90334   0.90822   0.91167   0.91481   0.91844
 Alpha virt. eigenvalues --    0.92334   0.92420   0.92682   0.92996   0.93257
 Alpha virt. eigenvalues --    0.93673   0.93790   0.94033   0.94335   0.94508
 Alpha virt. eigenvalues --    0.95136   0.95504   0.95707   0.95874   0.95957
 Alpha virt. eigenvalues --    0.96235   0.96375   0.96501   0.96979   0.97063
 Alpha virt. eigenvalues --    0.97186   0.97637   0.97848   0.97939   0.98357
 Alpha virt. eigenvalues --    0.98537   0.98711   0.98883   0.99337   0.99457
 Alpha virt. eigenvalues --    0.99833   1.00235   1.00417   1.00715   1.01275
 Alpha virt. eigenvalues --    1.01821   1.02210   1.02249   1.02732   1.03073
 Alpha virt. eigenvalues --    1.03566   1.04092   1.04593   1.04662   1.04994
 Alpha virt. eigenvalues --    1.05215   1.05344   1.05882   1.06167   1.06311
 Alpha virt. eigenvalues --    1.06607   1.07195   1.07626   1.07734   1.08276
 Alpha virt. eigenvalues --    1.08442   1.08569   1.09353   1.09483   1.09693
 Alpha virt. eigenvalues --    1.09990   1.10149   1.10339   1.10507   1.10937
 Alpha virt. eigenvalues --    1.11264   1.11651   1.12327   1.12661   1.13018
 Alpha virt. eigenvalues --    1.13385   1.13973   1.14039   1.14181   1.14967
 Alpha virt. eigenvalues --    1.15026   1.15299   1.15729   1.15931   1.16367
 Alpha virt. eigenvalues --    1.16703   1.16916   1.17097   1.18043   1.18729
 Alpha virt. eigenvalues --    1.19146   1.19643   1.19744   1.20096   1.20351
 Alpha virt. eigenvalues --    1.20782   1.20938   1.21404   1.21683   1.22257
 Alpha virt. eigenvalues --    1.22883   1.22982   1.23447   1.24344   1.24627
 Alpha virt. eigenvalues --    1.24821   1.25098   1.25140   1.25632   1.25748
 Alpha virt. eigenvalues --    1.25904   1.26489   1.27042   1.27292   1.27524
 Alpha virt. eigenvalues --    1.27780   1.28059   1.28418   1.28763   1.28802
 Alpha virt. eigenvalues --    1.29216   1.29548   1.29715   1.30074   1.30139
 Alpha virt. eigenvalues --    1.30927   1.31161   1.31408   1.31707   1.31897
 Alpha virt. eigenvalues --    1.32128   1.32668   1.32808   1.33041   1.33812
 Alpha virt. eigenvalues --    1.34194   1.34483   1.34962   1.35348   1.35494
 Alpha virt. eigenvalues --    1.35615   1.35845   1.36088   1.36162   1.36791
 Alpha virt. eigenvalues --    1.37114   1.37551   1.37842   1.38013   1.38156
 Alpha virt. eigenvalues --    1.38763   1.38886   1.39210   1.39517   1.40060
 Alpha virt. eigenvalues --    1.40208   1.40297   1.40529   1.40725   1.41025
 Alpha virt. eigenvalues --    1.41427   1.41462   1.42084   1.42206   1.42586
 Alpha virt. eigenvalues --    1.42949   1.43447   1.43721   1.44169   1.44276
 Alpha virt. eigenvalues --    1.45158   1.45431   1.45638   1.46185   1.46626
 Alpha virt. eigenvalues --    1.46829   1.47647   1.48347   1.48444   1.48645
 Alpha virt. eigenvalues --    1.48884   1.49394   1.49918   1.50155   1.50549
 Alpha virt. eigenvalues --    1.50923   1.51338   1.51568   1.51663   1.51953
 Alpha virt. eigenvalues --    1.52591   1.52774   1.52883   1.53006   1.53255
 Alpha virt. eigenvalues --    1.53602   1.53813   1.55124   1.55424   1.55945
 Alpha virt. eigenvalues --    1.56162   1.56495   1.56699   1.56855   1.57087
 Alpha virt. eigenvalues --    1.57305   1.57777   1.58370   1.59062   1.59142
 Alpha virt. eigenvalues --    1.59568   1.59629   1.60003   1.60194   1.60348
 Alpha virt. eigenvalues --    1.60715   1.61069   1.61219   1.61582   1.61790
 Alpha virt. eigenvalues --    1.62062   1.62347   1.62415   1.63006   1.63226
 Alpha virt. eigenvalues --    1.63547   1.63707   1.63869   1.64865   1.65125
 Alpha virt. eigenvalues --    1.65171   1.65449   1.65818   1.66051   1.66195
 Alpha virt. eigenvalues --    1.66282   1.66363   1.66945   1.67080   1.67394
 Alpha virt. eigenvalues --    1.67591   1.67777   1.68529   1.68951   1.69475
 Alpha virt. eigenvalues --    1.69695   1.70060   1.70185   1.70291   1.70797
 Alpha virt. eigenvalues --    1.71480   1.71800   1.72204   1.72333   1.72567
 Alpha virt. eigenvalues --    1.73351   1.73662   1.74068   1.74175   1.74565
 Alpha virt. eigenvalues --    1.74728   1.74914   1.75283   1.75449   1.75648
 Alpha virt. eigenvalues --    1.75902   1.76255   1.76390   1.76538   1.76964
 Alpha virt. eigenvalues --    1.77156   1.77328   1.77499   1.77712   1.78261
 Alpha virt. eigenvalues --    1.78427   1.78594   1.78973   1.79382   1.79518
 Alpha virt. eigenvalues --    1.79611   1.80101   1.80513   1.80562   1.80706
 Alpha virt. eigenvalues --    1.80903   1.81250   1.81347   1.81759   1.81904
 Alpha virt. eigenvalues --    1.82048   1.82596   1.83001   1.83174   1.83499
 Alpha virt. eigenvalues --    1.84105   1.84333   1.84629   1.84956   1.85808
 Alpha virt. eigenvalues --    1.86090   1.86296   1.86958   1.87416   1.87753
 Alpha virt. eigenvalues --    1.88247   1.89180   1.89733   1.89867   1.90108
 Alpha virt. eigenvalues --    1.90403   1.90912   1.91520   1.91973   1.92431
 Alpha virt. eigenvalues --    1.92832   1.93600   1.93812   1.94172   1.95021
 Alpha virt. eigenvalues --    1.95148   1.95448   1.95574   1.95986   1.96279
 Alpha virt. eigenvalues --    1.96622   1.97117   1.97170   1.97878   1.98311
 Alpha virt. eigenvalues --    1.98543   1.98720   1.99413   1.99630   2.00468
 Alpha virt. eigenvalues --    2.00851   2.01025   2.01331   2.01613   2.02038
 Alpha virt. eigenvalues --    2.02346   2.02440   2.02942   2.03543   2.04138
 Alpha virt. eigenvalues --    2.04772   2.05289   2.05700   2.06337   2.07060
 Alpha virt. eigenvalues --    2.07424   2.07735   2.08252   2.08873   2.09364
 Alpha virt. eigenvalues --    2.09634   2.10023   2.10085   2.10353   2.10920
 Alpha virt. eigenvalues --    2.11509   2.12120   2.12663   2.12795   2.13320
 Alpha virt. eigenvalues --    2.13349   2.13933   2.14066   2.14816   2.15163
 Alpha virt. eigenvalues --    2.15394   2.16017   2.16664   2.17028   2.17098
 Alpha virt. eigenvalues --    2.17292   2.17616   2.17677   2.18207   2.18722
 Alpha virt. eigenvalues --    2.19275   2.19983   2.20124   2.20437   2.21114
 Alpha virt. eigenvalues --    2.22051   2.22580   2.22631   2.22962   2.23408
 Alpha virt. eigenvalues --    2.24408   2.24902   2.25549   2.26034   2.26533
 Alpha virt. eigenvalues --    2.26868   2.27068   2.27164   2.27561   2.27720
 Alpha virt. eigenvalues --    2.28119   2.28403   2.28495   2.28925   2.29343
 Alpha virt. eigenvalues --    2.29450   2.29886   2.29937   2.30537   2.30783
 Alpha virt. eigenvalues --    2.31016   2.31906   2.31966   2.32493   2.32605
 Alpha virt. eigenvalues --    2.32821   2.33122   2.33214   2.33519   2.33654
 Alpha virt. eigenvalues --    2.33842   2.33884   2.34323   2.34532   2.35043
 Alpha virt. eigenvalues --    2.35797   2.36433   2.36998   2.37861   2.37874
 Alpha virt. eigenvalues --    2.38081   2.39545   2.40150   2.40405   2.41032
 Alpha virt. eigenvalues --    2.41204   2.41657   2.41721   2.42042   2.42186
 Alpha virt. eigenvalues --    2.43410   2.43771   2.44177   2.44916   2.45154
 Alpha virt. eigenvalues --    2.45472   2.46455   2.47206   2.48068   2.48303
 Alpha virt. eigenvalues --    2.48643   2.49928   2.50215   2.50580   2.50788
 Alpha virt. eigenvalues --    2.51535   2.51897   2.52696   2.52826   2.53091
 Alpha virt. eigenvalues --    2.54071   2.54523   2.55104   2.55236   2.55364
 Alpha virt. eigenvalues --    2.55438   2.55822   2.56059   2.56894   2.57221
 Alpha virt. eigenvalues --    2.57716   2.58464   2.58764   2.59206   2.59291
 Alpha virt. eigenvalues --    2.59549   2.60130   2.60658   2.61584   2.61722
 Alpha virt. eigenvalues --    2.62737   2.63305   2.63708   2.63787   2.64029
 Alpha virt. eigenvalues --    2.64809   2.65074   2.65313   2.65591   2.66143
 Alpha virt. eigenvalues --    2.66296   2.67399   2.67582   2.67930   2.68050
 Alpha virt. eigenvalues --    2.68110   2.68669   2.68892   2.69870   2.70053
 Alpha virt. eigenvalues --    2.70347   2.70532   2.70837   2.70976   2.71054
 Alpha virt. eigenvalues --    2.71106   2.71512   2.71613   2.71825   2.71861
 Alpha virt. eigenvalues --    2.72818   2.73024   2.73391   2.74095   2.74154
 Alpha virt. eigenvalues --    2.74655   2.75027   2.75190   2.75366   2.75552
 Alpha virt. eigenvalues --    2.75593   2.75876   2.76096   2.76604   2.76623
 Alpha virt. eigenvalues --    2.76714   2.76814   2.76875   2.77387   2.77651
 Alpha virt. eigenvalues --    2.77813   2.78235   2.78405   2.78743   2.78869
 Alpha virt. eigenvalues --    2.79144   2.79389   2.79978   2.80297   2.80746
 Alpha virt. eigenvalues --    2.80784   2.80996   2.81126   2.81415   2.81593
 Alpha virt. eigenvalues --    2.81848   2.81893   2.82254   2.82301   2.82631
 Alpha virt. eigenvalues --    2.82676   2.82814   2.83216   2.83437   2.83900
 Alpha virt. eigenvalues --    2.84133   2.84347   2.84840   2.85075   2.85109
 Alpha virt. eigenvalues --    2.85479   2.86025   2.86288   2.86549   2.86622
 Alpha virt. eigenvalues --    2.87006   2.87215   2.87434   2.87474   2.87935
 Alpha virt. eigenvalues --    2.88230   2.88443   2.88480   2.88723   2.89201
 Alpha virt. eigenvalues --    2.89439   2.89575   2.89803   2.90194   2.90368
 Alpha virt. eigenvalues --    2.90509   2.90711   2.90900   2.91290   2.91507
 Alpha virt. eigenvalues --    2.91824   2.92052   2.92111   2.92413   2.92509
 Alpha virt. eigenvalues --    2.92591   2.92779   2.93060   2.93544   2.93760
 Alpha virt. eigenvalues --    2.94361   2.94501   2.94572   2.95056   2.95335
 Alpha virt. eigenvalues --    2.95543   2.95773   2.95970   2.96143   2.96395
 Alpha virt. eigenvalues --    2.96529   2.96564   2.96658   2.97175   2.97253
 Alpha virt. eigenvalues --    2.97400   2.97703   2.97831   2.98764   2.98838
 Alpha virt. eigenvalues --    2.99136   2.99786   2.99919   3.00594   3.00885
 Alpha virt. eigenvalues --    3.00986   3.01253   3.01714   3.01972   3.02496
 Alpha virt. eigenvalues --    3.02951   3.03262   3.03358   3.04167   3.04392
 Alpha virt. eigenvalues --    3.04630   3.04972   3.05297   3.05521   3.05937
 Alpha virt. eigenvalues --    3.06209   3.06471   3.07166   3.07598   3.07771
 Alpha virt. eigenvalues --    3.08816   3.09089   3.09635   3.09809   3.09950
 Alpha virt. eigenvalues --    3.10195   3.10419   3.10643   3.10878   3.10922
 Alpha virt. eigenvalues --    3.11202   3.11368   3.11444   3.12090   3.12383
 Alpha virt. eigenvalues --    3.12569   3.13191   3.13851   3.13977   3.14406
 Alpha virt. eigenvalues --    3.14688   3.14984   3.15145   3.15305   3.15459
 Alpha virt. eigenvalues --    3.15681   3.16255   3.16469   3.16642   3.17048
 Alpha virt. eigenvalues --    3.17533   3.17906   3.18131   3.18602   3.18806
 Alpha virt. eigenvalues --    3.19106   3.19612   3.19719   3.20148   3.20363
 Alpha virt. eigenvalues --    3.20955   3.21368   3.21911   3.22128   3.22540
 Alpha virt. eigenvalues --    3.23008   3.23193   3.23239   3.23586   3.23667
 Alpha virt. eigenvalues --    3.23854   3.24059   3.24172   3.24336   3.24521
 Alpha virt. eigenvalues --    3.24751   3.25322   3.25692   3.25849   3.26126
 Alpha virt. eigenvalues --    3.26287   3.26469   3.26504   3.26791   3.26836
 Alpha virt. eigenvalues --    3.27380   3.27865   3.28093   3.28483   3.28720
 Alpha virt. eigenvalues --    3.28963   3.28990   3.29227   3.29720   3.29864
 Alpha virt. eigenvalues --    3.29976   3.30355   3.30488   3.30642   3.31063
 Alpha virt. eigenvalues --    3.31203   3.31548   3.31783   3.32445   3.32718
 Alpha virt. eigenvalues --    3.33032   3.33354   3.33637   3.34044   3.34272
 Alpha virt. eigenvalues --    3.34774   3.35073   3.35430   3.35780   3.35792
 Alpha virt. eigenvalues --    3.36135   3.36311   3.36364   3.36669   3.36758
 Alpha virt. eigenvalues --    3.36957   3.37373   3.37439   3.38092   3.38291
 Alpha virt. eigenvalues --    3.38615   3.38880   3.39149   3.39600   3.39943
 Alpha virt. eigenvalues --    3.40208   3.40436   3.40776   3.40933   3.41210
 Alpha virt. eigenvalues --    3.41525   3.41639   3.41980   3.42212   3.42742
 Alpha virt. eigenvalues --    3.42988   3.43110   3.43188   3.43781   3.43876
 Alpha virt. eigenvalues --    3.44096   3.44388   3.44571   3.45022   3.45118
 Alpha virt. eigenvalues --    3.45454   3.45843   3.46197   3.46293   3.46553
 Alpha virt. eigenvalues --    3.47000   3.47128   3.47274   3.47381   3.47639
 Alpha virt. eigenvalues --    3.47672   3.47853   3.48060   3.48135   3.48298
 Alpha virt. eigenvalues --    3.48594   3.48848   3.49148   3.49328   3.49595
 Alpha virt. eigenvalues --    3.49941   3.50204   3.50654   3.51062   3.51181
 Alpha virt. eigenvalues --    3.51396   3.51559   3.52084   3.52529   3.52829
 Alpha virt. eigenvalues --    3.53103   3.53268   3.53593   3.53722   3.53796
 Alpha virt. eigenvalues --    3.54293   3.54661   3.54947   3.55044   3.55359
 Alpha virt. eigenvalues --    3.55552   3.55805   3.55830   3.56065   3.56244
 Alpha virt. eigenvalues --    3.56543   3.56820   3.57177   3.57365   3.57641
 Alpha virt. eigenvalues --    3.58374   3.58533   3.58886   3.59007   3.59186
 Alpha virt. eigenvalues --    3.59586   3.59846   3.60276   3.60490   3.60577
 Alpha virt. eigenvalues --    3.60952   3.60991   3.61566   3.61796   3.62202
 Alpha virt. eigenvalues --    3.62609   3.62689   3.62913   3.63540   3.63739
 Alpha virt. eigenvalues --    3.64172   3.64704   3.64843   3.64906   3.65222
 Alpha virt. eigenvalues --    3.66070   3.66247   3.66527   3.66619   3.66713
 Alpha virt. eigenvalues --    3.66999   3.67374   3.67425   3.67859   3.67896
 Alpha virt. eigenvalues --    3.68240   3.68486   3.68727   3.69156   3.69774
 Alpha virt. eigenvalues --    3.70153   3.70496   3.70653   3.70962   3.71083
 Alpha virt. eigenvalues --    3.71451   3.71665   3.72192   3.72567   3.72749
 Alpha virt. eigenvalues --    3.73356   3.73992   3.74136   3.74961   3.75400
 Alpha virt. eigenvalues --    3.76200   3.76451   3.77016   3.77455   3.77517
 Alpha virt. eigenvalues --    3.78072   3.78950   3.79225   3.79680   3.79912
 Alpha virt. eigenvalues --    3.80318   3.80412   3.81289   3.82057   3.82736
 Alpha virt. eigenvalues --    3.83010   3.83441   3.83905   3.84619   3.85688
 Alpha virt. eigenvalues --    3.85836   3.86228   3.86398   3.87199   3.87394
 Alpha virt. eigenvalues --    3.87501   3.89598   3.90221   3.90717   3.91191
 Alpha virt. eigenvalues --    3.91766   3.91898   3.92114   3.93367   3.94162
 Alpha virt. eigenvalues --    3.94984   3.95291   3.95664   3.96157   3.96252
 Alpha virt. eigenvalues --    3.97807   3.98501   3.98967   3.99949   3.99966
 Alpha virt. eigenvalues --    4.00899   4.01413   4.02034   4.02260   4.02938
 Alpha virt. eigenvalues --    4.03957   4.04292   4.04469   4.04870   4.05453
 Alpha virt. eigenvalues --    4.05777   4.06190   4.06973   4.07117   4.07353
 Alpha virt. eigenvalues --    4.07987   4.08615   4.08803   4.09004   4.09502
 Alpha virt. eigenvalues --    4.10379   4.10995   4.11266   4.11854   4.12383
 Alpha virt. eigenvalues --    4.12606   4.12682   4.13348   4.13523   4.14163
 Alpha virt. eigenvalues --    4.14324   4.14874   4.15637   4.15800   4.15973
 Alpha virt. eigenvalues --    4.17112   4.17442   4.18997   4.19337   4.20365
 Alpha virt. eigenvalues --    4.20408   4.21140   4.21894   4.22220   4.22876
 Alpha virt. eigenvalues --    4.23803   4.23974   4.24485   4.24608   4.25058
 Alpha virt. eigenvalues --    4.25433   4.25660   4.25837   4.26316   4.26812
 Alpha virt. eigenvalues --    4.27190   4.27225   4.27589   4.27822   4.28512
 Alpha virt. eigenvalues --    4.28699   4.29122   4.29445   4.29528   4.29894
 Alpha virt. eigenvalues --    4.30099   4.30568   4.30896   4.31281   4.31378
 Alpha virt. eigenvalues --    4.31597   4.31864   4.32106   4.32142   4.32737
 Alpha virt. eigenvalues --    4.32851   4.32947   4.33357   4.33522   4.33729
 Alpha virt. eigenvalues --    4.34038   4.34145   4.34248   4.34697   4.35121
 Alpha virt. eigenvalues --    4.35312   4.35657   4.36149   4.36406   4.37114
 Alpha virt. eigenvalues --    4.37283   4.37578   4.37693   4.38045   4.38543
 Alpha virt. eigenvalues --    4.38841   4.39384   4.39799   4.40091   4.40372
 Alpha virt. eigenvalues --    4.40721   4.41130   4.41229   4.41899   4.42887
 Alpha virt. eigenvalues --    4.43620   4.43849   4.43931   4.44872   4.45578
 Alpha virt. eigenvalues --    4.46161   4.47111   4.48044   4.48162   4.48953
 Alpha virt. eigenvalues --    4.50406   4.50867   4.51375   4.51798   4.52877
 Alpha virt. eigenvalues --    4.53144   4.53647   4.54381   4.54470   4.54889
 Alpha virt. eigenvalues --    4.55602   4.55830   4.56166   4.57232   4.58277
 Alpha virt. eigenvalues --    4.58916   4.59227   4.61694   4.61776   4.62526
 Alpha virt. eigenvalues --    4.62710   4.63187   4.63649   4.65334   4.66769
 Alpha virt. eigenvalues --    4.67480   4.67520   4.68938   4.69113   4.69828
 Alpha virt. eigenvalues --    4.71466   4.71683   4.72049   4.72612   4.73131
 Alpha virt. eigenvalues --    4.74392   4.75666   4.76212   4.76351   4.76408
 Alpha virt. eigenvalues --    4.77297   4.77361   4.78135   4.78261   4.78625
 Alpha virt. eigenvalues --    4.79696   4.80010   4.80386   4.80773   4.81385
 Alpha virt. eigenvalues --    4.82057   4.82747   4.82840   4.83141   4.85383
 Alpha virt. eigenvalues --    4.85852   4.86838   4.86906   4.87128   4.88377
 Alpha virt. eigenvalues --    4.88850   4.89163   4.89907   4.91026   4.91555
 Alpha virt. eigenvalues --    4.93639   4.94490   4.96984   4.97514   4.98337
 Alpha virt. eigenvalues --    4.98422   4.99390   4.99826   5.02153   5.03898
 Alpha virt. eigenvalues --    5.04017   5.04361   5.04651   5.04803   5.05153
 Alpha virt. eigenvalues --    5.05377   5.07079   5.07683   5.08495   5.11318
 Alpha virt. eigenvalues --    5.11536   5.11715   5.12202   5.12447   5.13476
 Alpha virt. eigenvalues --    5.13894   5.15493   5.15690   5.15975   5.17734
 Alpha virt. eigenvalues --    5.18874   5.19917   5.22656   5.23646   5.23655
 Alpha virt. eigenvalues --    5.25141   5.27333   5.29409   5.30075   5.31529
 Alpha virt. eigenvalues --    5.33790   5.34064   5.34494   5.34913   5.37190
 Alpha virt. eigenvalues --    5.37538   5.37833   5.40646   5.41166   5.42767
 Alpha virt. eigenvalues --    5.42974   5.44437   5.45229   5.48714   5.48898
 Alpha virt. eigenvalues --    5.50020   5.50775   5.51796   5.52802   5.53878
 Alpha virt. eigenvalues --    5.55687   5.56443   5.56523   5.57038   5.58038
 Alpha virt. eigenvalues --    5.58531   5.61763   5.62633   5.64763   5.64979
 Alpha virt. eigenvalues --    5.66351   5.68297   5.69860   5.72962   5.73446
 Alpha virt. eigenvalues --    5.74746   5.76265   5.78004   5.79415   5.79526
 Alpha virt. eigenvalues --    5.81396   5.81991   5.85978   5.87418   5.88820
 Alpha virt. eigenvalues --    5.95958   5.99111   6.09666   6.16135   6.18205
 Alpha virt. eigenvalues --    6.37088   6.41185   6.49745  22.15966  22.17596
 Alpha virt. eigenvalues --   22.39827  22.45250  22.46706  22.57368  22.59419
 Alpha virt. eigenvalues --   22.61671  22.63659  22.70433  22.70468  22.72026
 Alpha virt. eigenvalues --   22.74139  22.74150  22.78664  22.83050  22.83895
 Alpha virt. eigenvalues --   22.84711  22.85929  22.86072  22.88038  22.90094
 Alpha virt. eigenvalues --   22.90826  22.91876  22.93175  22.93356  22.95582
 Alpha virt. eigenvalues --   22.96977  22.98028  22.98182  23.01249  23.04908
 Alpha virt. eigenvalues --   23.05737  23.07743  23.08411  23.11774  23.16856
 Alpha virt. eigenvalues --   23.18475  23.22137  23.25558  23.28279  23.37298
 Alpha virt. eigenvalues --   23.38581  23.40212  23.56659  23.58676  23.70761
 Alpha virt. eigenvalues --   23.72359  23.80589  33.55593
          Condensed to atoms (all electrons):
 Mulliken charges:
               1
     1  C   -0.263338
     2  C   -0.282268
     3  C    0.197295
     4  C   -0.109796
     5  C   -0.379358
     6  C    0.189498
     7  C    0.211658
     8  C   -0.117747
     9  C    0.200603
    10  C   -0.281999
    11  H    0.168962
    12  C   -0.262278
    13  C    0.187067
    14  C   -0.373044
    15  H    0.169386
    16  H    0.193640
    17  H    0.161406
    18  N    0.178635
    19  C    0.127624
    20  C   -0.031918
    21  C   -0.178981
    22  C   -0.314415
    23  C    0.097596
    24  C   -0.102098
    25  H    0.152897
    26  C   -0.114390
    27  H    0.183024
    28  C   -0.191818
    29  C   -0.239831
    30  H    0.159979
    31  C   -0.155617
    32  H    0.161058
    33  H    0.157838
    34  H    0.155606
    35  H    0.162759
    36  H    0.192535
    37  H    0.162218
    38  C   -0.435126
    39  H    0.143667
    40  H    0.143905
    41  H    0.144674
    42  C   -0.437599
    43  H    0.144956
    44  H    0.144268
    45  H    0.144205
    46  C    0.099118
    47  C   -0.255836
    48  C   -0.249730
    49  C   -0.254611
    50  H    0.175707
    51  C   -0.253668
    52  H    0.167448
    53  C    0.220016
    54  H    0.167948
    55  H    0.168109
    56  C    0.137230
    57  C   -0.272591
    58  C   -0.273613
    59  C   -0.162239
    60  H    0.171146
    61  C   -0.162793
    62  H    0.171173
    63  C   -0.161180
    64  H    0.161036
    65  H    0.160962
    66  H    0.163082
    67  C    0.100676
    68  C   -0.256309
    69  C   -0.248220
    70  C   -0.254389
    71  H    0.175220
    72  C   -0.254210
    73  H    0.167182
    74  C    0.220022
    75  H    0.167813
    76  H    0.168069
    77  C    0.136319
    78  C   -0.272316
    79  C   -0.272888
    80  C   -0.162205
    81  H    0.171034
    82  C   -0.162463
    83  H    0.171002
    84  C   -0.161436
    85  H    0.160979
    86  H    0.160988
    87  H    0.163081
 Sum of Mulliken charges =  -0.00000
 Mulliken charges with hydrogens summed into heavy atoms:
               1
[...]
 Alpha virt. eigenvalues --    2.74656   2.75027   2.75190   2.75367   2.75553
 Alpha virt. eigenvalues --    2.75594   2.75876   2.76096   2.76604   2.76623
 Alpha virt. eigenvalues --    2.76714   2.76814   2.76874   2.77387   2.77652
 Alpha virt. eigenvalues --    2.77813   2.78235   2.78406   2.78744   2.78870
 Alpha virt. eigenvalues --    2.79145   2.79390   2.79979   2.80297   2.80748
 Alpha virt. eigenvalues --    2.80785   2.80996   2.81127   2.81416   2.81593
 Alpha virt. eigenvalues --    2.81848   2.81894   2.82255   2.82301   2.82632
 Alpha virt. eigenvalues --    2.82677   2.82815   2.83217   2.83437   2.83901
 Alpha virt. eigenvalues --    2.84134   2.84348   2.84841   2.85075   2.85109
 Alpha virt. eigenvalues --    2.85479   2.86025   2.86288   2.86549   2.86622
 Alpha virt. eigenvalues --    2.87006   2.87216   2.87435   2.87475   2.87936
 Alpha virt. eigenvalues --    2.88231   2.88444   2.88481   2.88724   2.89201
 Alpha virt. eigenvalues --    2.89440   2.89576   2.89803   2.90194   2.90369
 Alpha virt. eigenvalues --    2.90509   2.90712   2.90901   2.91291   2.91508
 Alpha virt. eigenvalues --    2.91825   2.92051   2.92111   2.92414   2.92510
 Alpha virt. eigenvalues --    2.92591   2.92779   2.93061   2.93544   2.93761
 Alpha virt. eigenvalues --    2.94362   2.94502   2.94572   2.95057   2.95336
 Alpha virt. eigenvalues --    2.95543   2.95774   2.95971   2.96144   2.96395
 Alpha virt. eigenvalues --    2.96529   2.96564   2.96658   2.97175   2.97254
 Alpha virt. eigenvalues --    2.97400   2.97703   2.97832   2.98765   2.98839
 Alpha virt. eigenvalues --    2.99137   2.99786   2.99919   3.00595   3.00885
 Alpha virt. eigenvalues --    3.00987   3.01253   3.01715   3.01973   3.02497
 Alpha virt. eigenvalues --    3.02952   3.03263   3.03359   3.04169   3.04394
 Alpha virt. eigenvalues --    3.04630   3.04973   3.05298   3.05521   3.05938
 Alpha virt. eigenvalues --    3.06210   3.06472   3.07166   3.07599   3.07772
 Alpha virt. eigenvalues --    3.08817   3.09090   3.09635   3.09810   3.09950
 Alpha virt. eigenvalues --    3.10196   3.10420   3.10643   3.10879   3.10923
 Alpha virt. eigenvalues --    3.11202   3.11368   3.11445   3.12091   3.12384
 Alpha virt. eigenvalues --    3.12569   3.13191   3.13852   3.13978   3.14407
 Alpha virt. eigenvalues --    3.14689   3.14985   3.15145   3.15306   3.15460
 Alpha virt. eigenvalues --    3.15682   3.16256   3.16471   3.16643   3.17049
 Alpha virt. eigenvalues --    3.17534   3.17907   3.18132   3.18602   3.18806
 Alpha virt. eigenvalues --    3.19107   3.19612   3.19719   3.20148   3.20362
 Alpha virt. eigenvalues --    3.20955   3.21369   3.21911   3.22129   3.22540
 Alpha virt. eigenvalues --    3.23009   3.23193   3.23239   3.23586   3.23667
 Alpha virt. eigenvalues --    3.23854   3.24059   3.24172   3.24336   3.24521
 Alpha virt. eigenvalues --    3.24751   3.25322   3.25693   3.25850   3.26127
 Alpha virt. eigenvalues --    3.26287   3.26470   3.26505   3.26792   3.26837
 Alpha virt. eigenvalues --    3.27381   3.27866   3.28094   3.28485   3.28720
 Alpha virt. eigenvalues --    3.28963   3.28991   3.29228   3.29720   3.29864
 Alpha virt. eigenvalues --    3.29976   3.30356   3.30489   3.30643   3.31063
 Alpha virt. eigenvalues --    3.31204   3.31549   3.31784   3.32446   3.32719
 Alpha virt. eigenvalues --    3.33032   3.33355   3.33637   3.34045   3.34273
 Alpha virt. eigenvalues --    3.34775   3.35074   3.35430   3.35780   3.35793
 Alpha virt. eigenvalues --    3.36135   3.36312   3.36365   3.36670   3.36759
 Alpha virt. eigenvalues --    3.36958   3.37373   3.37440   3.38092   3.38292
 Alpha virt. eigenvalues --    3.38615   3.38881   3.39149   3.39601   3.39944
 Alpha virt. eigenvalues --    3.40209   3.40436   3.40777   3.40933   3.41211
 Alpha virt. eigenvalues --    3.41526   3.41640   3.41980   3.42212   3.42742
 Alpha virt. eigenvalues --    3.42989   3.43111   3.43188   3.43782   3.43877
 Alpha virt. eigenvalues --    3.44096   3.44389   3.44572   3.45023   3.45118
 Alpha virt. eigenvalues --    3.45454   3.45844   3.46198   3.46294   3.46554
 Alpha virt. eigenvalues --    3.47001   3.47128   3.47274   3.47382   3.47639
 Alpha virt. eigenvalues --    3.47673   3.47854   3.48061   3.48136   3.48299
 Alpha virt. eigenvalues --    3.48595   3.48848   3.49149   3.49329   3.49596
 Alpha virt. eigenvalues --    3.49941   3.50204   3.50655   3.51063   3.51182
 Alpha virt. eigenvalues --    3.51396   3.51559   3.52084   3.52530   3.52829
 Alpha virt. eigenvalues --    3.53104   3.53269   3.53593   3.53723   3.53797
 Alpha virt. eigenvalues --    3.54294   3.54661   3.54947   3.55044   3.55360
 Alpha virt. eigenvalues --    3.55552   3.55805   3.55830   3.56066   3.56245
 Alpha virt. eigenvalues --    3.56543   3.56820   3.57178   3.57366   3.57642
 Alpha virt. eigenvalues --    3.58375   3.58534   3.58887   3.59009   3.59186
 Alpha virt. eigenvalues --    3.59586   3.59846   3.60275   3.60491   3.60578
 Alpha virt. eigenvalues --    3.60953   3.60992   3.61567   3.61796   3.62203
 Alpha virt. eigenvalues --    3.62609   3.62690   3.62914   3.63541   3.63739
 Alpha virt. eigenvalues --    3.64173   3.64706   3.64844   3.64907   3.65222
 Alpha virt. eigenvalues --    3.66071   3.66247   3.66529   3.66620   3.66713
 Alpha virt. eigenvalues --    3.67000   3.67374   3.67426   3.67860   3.67897
 Alpha virt. eigenvalues --    3.68241   3.68486   3.68728   3.69156   3.69774
 Alpha virt. eigenvalues --    3.70154   3.70497   3.70654   3.70964   3.71084
 Alpha virt. eigenvalues --    3.71451   3.71664   3.72193   3.72568   3.72749
 Alpha virt. eigenvalues --    3.73357   3.73992   3.74136   3.74962   3.75401
 Alpha virt. eigenvalues --    3.76201   3.76452   3.77017   3.77456   3.77520
 Alpha virt. eigenvalues --    3.78074   3.78951   3.79226   3.79681   3.79912
 Alpha virt. eigenvalues --    3.80318   3.80413   3.81290   3.82057   3.82738
 Alpha virt. eigenvalues --    3.83011   3.83443   3.83907   3.84620   3.85690
 Alpha virt. eigenvalues --    3.85838   3.86228   3.86397   3.87199   3.87394
 Alpha virt. eigenvalues --    3.87500   3.89600   3.90220   3.90716   3.91192
 Alpha virt. eigenvalues --    3.91766   3.91898   3.92116   3.93367   3.94164
 Alpha virt. eigenvalues --    3.94985   3.95292   3.95665   3.96158   3.96254
 Alpha virt. eigenvalues --    3.97808   3.98500   3.98967   3.99949   3.99966
 Alpha virt. eigenvalues --    4.00901   4.01414   4.02035   4.02261   4.02939
 Alpha virt. eigenvalues --    4.03957   4.04291   4.04471   4.04870   4.05453
 Alpha virt. eigenvalues --    4.05778   4.06192   4.06973   4.07117   4.07353
 Alpha virt. eigenvalues --    4.07989   4.08615   4.08804   4.09004   4.09502
 Alpha virt. eigenvalues --    4.10379   4.10995   4.11267   4.11855   4.12384
 Alpha virt. eigenvalues --    4.12606   4.12682   4.13348   4.13524   4.14164
 Alpha virt. eigenvalues --    4.14323   4.14875   4.15639   4.15800   4.15974
 Alpha virt. eigenvalues --    4.17112   4.17444   4.18997   4.19338   4.20366
 Alpha virt. eigenvalues --    4.20410   4.21141   4.21896   4.22220   4.22877
 Alpha virt. eigenvalues --    4.23804   4.23974   4.24486   4.24609   4.25058
 Alpha virt. eigenvalues --    4.25433   4.25660   4.25838   4.26317   4.26814
 Alpha virt. eigenvalues --    4.27191   4.27226   4.27590   4.27823   4.28512
 Alpha virt. eigenvalues --    4.28700   4.29124   4.29446   4.29529   4.29895
 Alpha virt. eigenvalues --    4.30101   4.30570   4.30897   4.31282   4.31378
 Alpha virt. eigenvalues --    4.31597   4.31864   4.32106   4.32142   4.32738
 Alpha virt. eigenvalues --    4.32852   4.32948   4.33357   4.33522   4.33730
 Alpha virt. eigenvalues --    4.34039   4.34145   4.34248   4.34697   4.35122
 Alpha virt. eigenvalues --    4.35312   4.35657   4.36149   4.36406   4.37115
 Alpha virt. eigenvalues --    4.37283   4.37578   4.37693   4.38046   4.38544
 Alpha virt. eigenvalues --    4.38841   4.39385   4.39799   4.40092   4.40372
 Alpha virt. eigenvalues --    4.40722   4.41131   4.41230   4.41899   4.42887
 Alpha virt. eigenvalues --    4.43620   4.43850   4.43931   4.44873   4.45579
 Alpha virt. eigenvalues --    4.46161   4.47112   4.48045   4.48163   4.48953
 Alpha virt. eigenvalues --    4.50406   4.50867   4.51375   4.51798   4.52877
 Alpha virt. eigenvalues --    4.53145   4.53648   4.54381   4.54470   4.54890
 Alpha virt. eigenvalues --    4.55602   4.55832   4.56167   4.57233   4.58278
 Alpha virt. eigenvalues --    4.58916   4.59229   4.61694   4.61777   4.62525
 Alpha virt. eigenvalues --    4.62709   4.63187   4.63649   4.65334   4.66770
 Alpha virt. eigenvalues --    4.67480   4.67520   4.68938   4.69114   4.69828
 Alpha virt. eigenvalues --    4.71466   4.71683   4.72049   4.72612   4.73131
 Alpha virt. eigenvalues --    4.74393   4.75665   4.76212   4.76352   4.76408
 Alpha virt. eigenvalues --    4.77298   4.77361   4.78134   4.78261   4.78627
 Alpha virt. eigenvalues --    4.79697   4.80011   4.80386   4.80774   4.81386
 Alpha virt. eigenvalues --    4.82057   4.82748   4.82840   4.83142   4.85384
 Alpha virt. eigenvalues --    4.85853   4.86838   4.86907   4.87128   4.88377
 Alpha virt. eigenvalues --    4.88851   4.89164   4.89908   4.91028   4.91557
 Alpha virt. eigenvalues --    4.93641   4.94491   4.96985   4.97515   4.98337
 Alpha virt. eigenvalues --    4.98422   4.99391   4.99826   5.02154   5.03898
 Alpha virt. eigenvalues --    5.04017   5.04361   5.04652   5.04804   5.05154
 Alpha virt. eigenvalues --    5.05377   5.07080   5.07684   5.08495   5.11320
 Alpha virt. eigenvalues --    5.11537   5.11716   5.12203   5.12449   5.13476
 Alpha virt. eigenvalues --    5.13895   5.15494   5.15689   5.15975   5.17735
 Alpha virt. eigenvalues --    5.18875   5.19918   5.22658   5.23645   5.23655
 Alpha virt. eigenvalues --    5.25142   5.27335   5.29411   5.30076   5.31530
 Alpha virt. eigenvalues --    5.33790   5.34063   5.34496   5.34914   5.37191
 Alpha virt. eigenvalues --    5.37538   5.37834   5.40647   5.41167   5.42768
 Alpha virt. eigenvalues --    5.42974   5.44436   5.45230   5.48712   5.48895
 Alpha virt. eigenvalues --    5.50021   5.50773   5.51796   5.52802   5.53879
 Alpha virt. eigenvalues --    5.55688   5.56447   5.56522   5.57044   5.58041
 Alpha virt. eigenvalues --    5.58528   5.61764   5.62634   5.64766   5.64977
 Alpha virt. eigenvalues --    5.66356   5.68296   5.69863   5.72963   5.73442
 Alpha virt. eigenvalues --    5.74743   5.76266   5.78006   5.79416   5.79524
 Alpha virt. eigenvalues --    5.81395   5.81992   5.85982   5.87419   5.88821
 Alpha virt. eigenvalues --    5.95960   5.99111   6.09667   6.16137   6.18207
 Alpha virt. eigenvalues --    6.37090   6.41187   6.49746  22.15966  22.17596
 Alpha virt. eigenvalues --   22.39829  22.45250  22.46706  22.57369  22.59419
 Alpha virt. eigenvalues --   22.61672  22.63660  22.70432  22.70468  22.72028
 Alpha virt. eigenvalues --   22.74139  22.74150  22.78665  22.83052  22.83896
 Alpha virt. eigenvalues --   22.84711  22.85928  22.86072  22.88039  22.90094
 Alpha virt. eigenvalues --   22.90827  22.91877  22.93175  22.93356  22.95582
 Alpha virt. eigenvalues --   22.96977  22.98029  22.98184  23.01250  23.04908
 Alpha virt. eigenvalues --   23.05738  23.07744  23.08413  23.11774  23.16858
 Alpha virt. eigenvalues --   23.18476  23.22138  23.25559  23.28280  23.37298
 Alpha virt. eigenvalues --   23.38581  23.40214  23.56659  23.58676  23.70762
 Alpha virt. eigenvalues --   23.72360  23.80591  33.55594
          Condensed to atoms (all electrons):
 Mulliken charges:
               1
     1  C   -0.263358
     2  C   -0.282403
     3  C    0.197474
     4  C   -0.109634
     5  C   -0.379468
     6  C    0.189492
     7  C    0.211500
     8  C   -0.117581
     9  C    0.200705
    10  C   -0.282149
    11  H    0.168957
    12  C   -0.262329
    13  C    0.187111
    14  C   -0.373113
    15  H    0.169385
    16  H    0.193643
    17  H    0.161407
    18  N    0.178474
    19  C    0.128238
    20  C   -0.032072
    21  C   -0.179210
    22  C   -0.314440
    23  C    0.097760
    24  C   -0.102081
    25  H    0.152874
    26  C   -0.114406
    27  H    0.183005
    28  C   -0.191771
    29  C   -0.239871
    30  H    0.159971
    31  C   -0.155682
    32  H    0.161046
    33  H    0.157821
    34  H    0.155586
    35  H    0.162740
    36  H    0.192543
    37  H    0.162230
    38  C   -0.435076
    39  H    0.143669
    40  H    0.143886
    41  H    0.144661
    42  C   -0.437586
    43  H    0.144942
    44  H    0.144263
    45  H    0.144193
    46  C    0.099109
    47  C   -0.255781
    48  C   -0.249755
    49  C   -0.254634
    50  H    0.175715
    51  C   -0.253651
    52  H    0.167436
    53  C    0.219900
    54  H    0.167958
    55  H    0.168124
    56  C    0.137258
    57  C   -0.272498
    58  C   -0.273662
    59  C   -0.162314
    60  H    0.171153
    61  C   -0.162705
    62  H    0.171161
    63  C   -0.161213
    64  H    0.161036
    65  H    0.160973
    66  H    0.163091
    67  C    0.100652
    68  C   -0.256265
    69  C   -0.248222
    70  C   -0.254361
    71  H    0.175214
    72  C   -0.254214
    73  H    0.167185
    74  C    0.219972
    75  H    0.167816
    76  H    0.168100
    77  C    0.136375
    78  C   -0.272404
    79  C   -0.272898
    80  C   -0.162105
    81  H    0.171017
    82  C   -0.162491
    83  H    0.171000
    84  C   -0.161474
    85  H    0.160988
    86  H    0.160983
    87  H    0.163084
 Sum of Mulliken charges =  -0.00000
 Mulliken charges with hydrogens summed into heavy atoms:
               1
     1  C   -0.101128
     2  C   -0.113018
     3  C    0.197474
     4  C   -0.109634
     5  C   -0.185825
     6  C    0.189492
     7  C    0.211500
     8  C   -0.117581
     9  C    0.200705
    10  C   -0.113192
    12  C   -0.100922
    13  C    0.187111
    14  C   -0.180570
    18  N    0.178474
    19  C    0.128238
    20  C   -0.032072
    21  C   -0.026336
    22  C   -0.131435
    23  C    0.097760
    24  C    0.057889
    26  C    0.046640
    28  C   -0.033950
    29  C   -0.084285
    31  C    0.007058
    38  C   -0.002861
    42  C   -0.004188
    46  C    0.099109
    47  C   -0.080066
    48  C   -0.082319
    49  C   -0.086676
    51  C   -0.085527
    53  C    0.219900
    56  C    0.137258
    57  C   -0.101344
    58  C   -0.102501
    59  C   -0.001278
    61  C   -0.001732
    63  C    0.001877
    67  C    0.100652
    68  C   -0.081051
    69  C   -0.081037
    70  C   -0.086545
    72  C   -0.086114
    74  C    0.219972
    77  C    0.136375
    78  C   -0.101387
    79  C   -0.101898
    80  C   -0.001117
    82  C   -0.001508
    84  C    0.001611
 Electronic spatial extent (au):  <R**2>=          56932.1839
 Charge=             -0.0000 electrons
 Dipole moment (field-independent basis, Debye):
    X=              0.0085    Y=              1.6170    Z=             -0.0550  Tot=              1.6180
 Quadrupole moment (field-independent basis, Debye-Ang):
   XX=           -277.3875   YY=           -251.7139   ZZ=           -272.0213
   XY=             -0.9549   XZ=             -6.3955   YZ=             -2.4356
 Traceless Quadrupole moment (field-independent basis, Debye-Ang):
   XX=            -10.3466   YY=             15.3269   ZZ=             -4.9804
   XY=             -0.9549   XZ=             -6.3955   YZ=             -2.4356
 Octapole moment (field-independent basis, Debye-Ang**2):
  XXX=              1.0961  YYY=            226.8579  ZZZ=             19.6190  XYY=            -22.6560
  XXY=           -216.0097  XXZ=             23.3202  XZZ=             25.3381  YZZ=             24.7777
  YYZ=            -19.9008  XYZ=            -73.1673
 Hexadecapole moment (field-independent basis, Debye-Ang**3):
 XXXX=         -56016.2889 YYYY=         -14735.5032 ZZZZ=          -2150.4353 XXXY=           -179.7702
 XXXZ=          -1205.2831 YYYX=            166.4476 YYYZ=             64.8849 ZZZX=             -7.2781
 ZZZY=             21.0817 XXYY=         -12051.9994 XXZZ=          -9882.8957 YYZZ=          -2732.8026
 XXYZ=            -18.0216 YYXZ=            358.6026 ZZXY=            -77.8326
 N-N= 5.377399961515D+03 E-N=-1.526770116489D+04  KE= 1.934730415135D+03
 Leave Link  601 at Sat Oct 30 16:28:12 2021, MaxMem=  5242880000 cpu:        14.7
 (Enter /opt/nce/packages/global/g09/l9999.exe)
 1\1\GINC-CN081\SP\RwB97XD TD-FC\Gen\C49H37N1\PNG4RJV\30-Oct-2021\0\\#p
  wB97XD chkbasis geom=allcheck Guess=Read int=ultrafine scrf=(SMD,solv
 ent=n,n-DiMethylFormamide) td=(NStates=30)\\Title\\0,1\C,3.637243,1.47
 5542,-0.453213\C,2.420238,2.115407,-0.556429\C,1.217898,1.402602,-0.47
 6412\C,1.259521,0.018443,-0.27984\C,2.502632,-0.594845,-0.181241\C,3.7
 05381,0.097556,-0.262842\C,0.001647,-0.836602,-0.174041\C,-1.255969,0.
 017098,-0.29331\C,-1.213548,1.402276,-0.482483\C,-2.415664,2.115254,-0
 .563738\H,-2.398335,3.185096,-0.7157\C,-3.633006,1.475026,-0.467034\C,
 -3.702151,0.095259,-0.289386\C,-2.499382,-0.59721,-0.206546\H,2.403179
 ,3.186823,-0.696838\H,2.536414,-1.669269,-0.050727\H,-4.539511,2.06188
 8,-0.552108\N,0.002295,2.075018,-0.587862\C,0.002439,3.492847,-0.75165
 4\C,-0.001305,4.326554,0.399258\C,0.006245,4.031312,-2.005686\C,-0.005
 055,3.805187,1.715039\C,-0.001111,5.732203,0.213903\C,0.006414,5.42894
 5,-2.183567\H,0.008992,3.371665,-2.864677\C,-0.008402,4.644482,2.79284
 1\H,-0.005168,2.732222,1.859875\C,-0.004689,6.573387,1.353097\C,0.0027
 91,6.259128,-1.100162\H,0.009402,5.83678,-3.18644\C,-0.008225,6.043616
 ,2.611566\H,-0.011175,4.236029,3.795885\H,-0.004484,7.647177,1.205698\
 H,0.00287,7.335075,-1.230045\H,-0.010842,6.69515,3.47666\H,-2.532816,-
 1.667883,-0.048526\H,4.544095,2.065856,-0.503872\C,0.006397,-1.885719,
 -1.301154\H,0.012108,-1.400538,-2.279388\H,0.885791,-2.5279,-1.231638\
 H,-0.876033,-2.524749,-1.240501\C,-0.003262,-1.552045,1.189957\H,0.878
 782,-2.1848,1.300105\H,-0.008896,-0.826076,2.005717\H,-0.882393,-2.189
 992,1.292393\C,5.00277,-0.606222,-0.149819\C,5.164834,-1.688879,0.7152
 97\C,6.106175,-0.209864,-0.906129\C,6.377207,-2.348793,0.817279\H,4.33
 4243,-2.017081,1.328759\C,7.318651,-0.869726,-0.804217\H,6.014879,0.62
 0981,-1.595537\C,7.47843,-1.953551,0.058532\H,6.46292,-3.192189,1.4919
 68\H,8.156311,-0.52841,-1.40064\C,8.775674,-2.66339,0.164986\C,9.23896
 4,-3.125792,1.397533\C,9.562868,-2.887519,-0.965441\C,10.451336,-3.790
 993,1.496894\H,8.653612,-2.948209,2.291777\C,10.774972,-3.553304,-0.86
 6564\H,9.216166,-2.552982,-1.935876\C,11.224495,-4.008274,0.365052\H,1
 0.795822,-4.135622,2.464423\H,11.367074,-3.723446,-1.757671\H,12.17124
 9,-4.528558,0.44245\C,-5.000006,-0.610451,-0.192857\C,-5.170466,-1.886
 469,-0.731235\C,-6.096189,-0.022338,0.43909\C,-6.383796,-2.546148,-0.6
 4028\H,-4.345873,-2.370773,-1.240449\C,-7.309937,-0.681591,0.529302\H,
 -5.999021,0.963078,0.878612\C,-7.478479,-1.957174,-0.008301\H,-6.47602
 5,-3.540451,-1.060588\H,-8.141811,-0.189256,1.018624\C,-8.777685,-2.66
 4735,0.088907\C,-9.247709,-3.445003,-0.968466\C,-9.560421,-2.568382,1.
 24034\C,-10.461818,-4.108245,-0.877366\H,-8.666028,-3.520895,-1.879317
 \C,-10.774439,-3.231746,1.331944\H,-9.208592,-1.982361,2.080944\C,-11.
 230472,-4.004861,0.273497\H,-10.811188,-4.703424,-1.712402\H,-11.36297
 ,-3.149581,2.237716\H,-12.178624,-4.523428,0.345103\\Version=ES64L-G09
 RevE.01\State=1-A\HF=-1944.3667815\RMSD=6.257e-09\PG=C01 [X(C49H37N1)]
 \\@


 O WAD SOME POWER THE GIFTIE GIE US       
 TO SEE OURSELS AS OTHERS SEE US.....     
 IT WOULD FRAE MONIE A BLUNDER FREE US,   
                     AND FOOLISH NOTION...
 WHAT AIRS IN DRESS AND GAIT WAD LEA'E US,
                     AND EV'N DEVOTION....
                                          
              (ROBERT BURNS 'TO A LOUSE') 
 Job cpu time:       7 days 11 hours 47 minutes 29.6 seconds.
 File lengths (MBytes):  RWF=  13957 Int=      0 D2E=      0 Chk=   2722 Scr=      1
 Normal termination of Gaussian 09 at Sat Oct 30 16:28:16 2021.
