
                                 *****************
                                 * O   R   C   A *
                                 *****************

                                            #,                                       
                                            ###                                      
                                            ####                                     
                                            #####                                    
                                            ######                                   
                                           ########,                                 
                                     ,,################,,,,,                         
                               ,,#################################,,                 
                          ,,##########################################,,             
                       ,#########################################, ''#####,          
                    ,#############################################,,   '####,        
                  ,##################################################,,,,####,       
                ,###########''''           ''''###############################       
              ,#####''   ,,,,##########,,,,          '''####'''          '####       
            ,##' ,,,,###########################,,,                        '##       
           ' ,,###''''                  '''############,,,                           
         ,,##''                                '''############,,,,        ,,,,,,###''
      ,#''                                            '''#######################'''  
     '                                                          ''''####''''         
             ,#######,   #######,   ,#######,      ##                                
            ,#'     '#,  ##    ##  ,#'     '#,    #''#        ######   ,####,        
            ##       ##  ##   ,#'  ##            #'  '#       #        #'  '#        
            ##       ##  #######   ##           ,######,      #####,   #    #        
            '#,     ,#'  ##    ##  '#,     ,#' ,#      #,         ##   #,  ,#        
             '#######'   ##     ##  '#######'  #'      '#     #####' # '####'        



                  #######################################################
                  #                        -***-                        #
                  #          Department of theory and spectroscopy      #
                  #    Directorship and core code : Frank Neese         #
                  #        Max Planck Institute fuer Kohlenforschung    #
                  #                Kaiser Wilhelm Platz 1               #
                  #                 D-45470 Muelheim/Ruhr               #
                  #                      Germany                        #
                  #                                                     #
                  #                  All rights reserved                #
                  #                        -***-                        #
                  #######################################################


                         Program Version 5.0.2 -  RELEASE  -


 With contributions from (in alphabetic order):
   Daniel Aravena         : Magnetic Suceptibility
   Michael Atanasov       : Ab Initio Ligand Field Theory (pilot matlab implementation)
   Alexander A. Auer      : GIAO ZORA, VPT2 properties, NMR spectrum
   Ute Becker             : Parallelization
   Giovanni Bistoni       : ED, misc. LED, open-shell LED, HFLD
   Martin Brehm           : Molecular dynamics
   Dmytro Bykov           : SCF Hessian
   Vijay G. Chilkuri      : MRCI spin determinant printing, contributions to CSF-ICE
   Dipayan Datta          : RHF DLPNO-CCSD density
   Achintya Kumar Dutta   : EOM-CC, STEOM-CC
   Dmitry Ganyushin       : Spin-Orbit,Spin-Spin,Magnetic field MRCI
   Miquel Garcia          : C-PCM and meta-GGA Hessian, CC/C-PCM, Gaussian charge scheme
   Yang Guo               : DLPNO-NEVPT2, F12-NEVPT2, CIM, IAO-localization
   Andreas Hansen         : Spin unrestricted coupled pair/coupled cluster methods
   Benjamin Helmich-Paris : MC-RPA, TRAH-SCF, COSX integrals
   Lee Huntington         : MR-EOM, pCC
   Robert Izsak           : Overlap fitted RIJCOSX, COSX-SCS-MP3, EOM
   Marcus Kettner         : VPT2
   Christian Kollmar      : KDIIS, OOCD, Brueckner-CCSD(T), CCSD density, CASPT2, CASPT2-K
   Simone Kossmann        : Meta GGA functionals, TD-DFT gradient, OOMP2, MP2 Hessian
   Martin Krupicka        : Initial AUTO-CI
   Lucas Lang             : DCDCAS
   Marvin Lechner         : AUTO-CI (C++ implementation), FIC-MRCC
   Dagmar Lenk            : GEPOL surface, SMD
   Dimitrios Liakos       : Extrapolation schemes; Compound Job, initial MDCI parallelization
   Dimitrios Manganas     : Further ROCIS development; embedding schemes
   Dimitrios Pantazis     : SARC Basis sets
   Anastasios Papadopoulos: AUTO-CI, single reference methods and gradients
   Taras Petrenko         : DFT Hessian,TD-DFT gradient, ASA, ECA, R-Raman, ABS, FL, XAS/XES, NRVS
   Peter Pinski           : DLPNO-MP2, DLPNO-MP2 Gradient
   Christoph Reimann      : Effective Core Potentials
   Marius Retegan         : Local ZFS, SOC
   Christoph Riplinger    : Optimizer, TS searches, QM/MM, DLPNO-CCSD(T), (RO)-DLPNO pert. Triples
   Tobias Risthaus        : Range-separated hybrids, TD-DFT gradient, RPA, STAB
   Michael Roemelt        : Original ROCIS implementation
   Masaaki Saitow         : Open-shell DLPNO-CCSD energy and density
   Barbara Sandhoefer     : DKH picture change effects
   Avijit Sen             : IP-ROCIS
   Kantharuban Sivalingam : CASSCF convergence, NEVPT2, FIC-MRCI
   Bernardo de Souza      : ESD, SOC TD-DFT
   Georgi Stoychev        : AutoAux, RI-MP2 NMR, DLPNO-MP2 response
   Willem Van den Heuvel  : Paramagnetic NMR
   Boris Wezisla          : Elementary symmetry handling
   Frank Wennmohs         : Technical directorship


 We gratefully acknowledge several colleagues who have allowed us to
 interface, adapt or use parts of their codes:
   Stefan Grimme, W. Hujo, H. Kruse, P. Pracht,  : VdW corrections, initial TS optimization,
                  C. Bannwarth, S. Ehlert          DFT functionals, gCP, sTDA/sTD-DF
   Ed Valeev, F. Pavosevic, A. Kumar             : LibInt (2-el integral package), F12 methods
   Garnet Chan, S. Sharma, J. Yang, R. Olivares  : DMRG
   Ulf Ekstrom                                   : XCFun DFT Library
   Mihaly Kallay                                 : mrcc  (arbitrary order and MRCC methods)
   Jiri Pittner, Ondrej Demel                    : Mk-CCSD
   Frank Weinhold                                : gennbo (NPA and NBO analysis)
   Christopher J. Cramer and Donald G. Truhlar   : smd solvation model
   Lars Goerigk                                  : TD-DFT with DH, B97 family of functionals
   V. Asgeirsson, H. Jonsson                     : NEB implementation
   FAccTs GmbH                                   : IRC, NEB, NEB-TS, DLPNO-Multilevel, CI-OPT
                                                   MM, QMMM, 2- and 3-layer-ONIOM, Crystal-QMMM,
                                                   LR-CPCM, SF, NACMEs, symmetry and pop. for TD-DFT,
                                                   nearIR, NL-DFT gradient (VV10), updates on ESD,
                                                   ML-optimized integration grids
   S Lehtola, MJT Oliveira, MAL Marques          : LibXC Library
   Liviu Ungur et al                             : ANISO software


 Your calculation uses the libint2 library for the computation of 2-el integrals
 For citations please refer to: http://libint.valeyev.net

 Your ORCA version has been built with support for libXC version: 5.1.0
 For citations please refer to: https://tddft.org/programs/libxc/

 This ORCA versions uses:
   CBLAS   interface :  Fast vector & matrix operations
   LAPACKE interface :  Fast linear algebra routines
   SCALAPACK package :  Parallel linear algebra routines
   Shared memory     :  Shared parallel matrices
   BLAS/LAPACK       :  OpenBLAS 0.3.15  USE64BITINT DYNAMIC_ARCH NO_AFFINITY Prescott SINGLE_THREADED
        Core in use  :  Prescott
   Copyright (c) 2011-2014, The OpenBLAS Project


Your calculation utilizes the SMD solvation module
Please cite in your paper:
A.V. Marenich, C.J. Cramer, D.G. Truhlar J. Phys. Chem. B, 113, (2009), 6378 

================================================================================

----- Orbital basis set information -----
Your calculation utilizes the basis: def2-TZVP
   F. Weigend and R. Ahlrichs, Phys. Chem. Chem. Phys. 7, 3297 (2005).

----- AuxJ basis set information -----
Your calculation utilizes the auxiliary basis: def2/J
   F. Weigend, Phys. Chem. Chem. Phys. 8, 1057 (2006).

----- AuxC basis set information -----
Your calculation utilizes the auxiliary basis: def2-TZVP/C
  H-La, Hf-Rn : A. Hellweg, C. Hattig, S. Hofener and W. Klopper, Theor. Chem. Acc. 117, 587 (2007).
        Ce-Lu : J. Chmela and M. E. Harding, Mol. Phys. (2018).

================================================================================
                                        WARNINGS
                       Please study these warnings very carefully!
================================================================================

INFO   : Checking CIS options ...
  ===> : (D) CORRECTION FOUND - SETTING MODE=3
  ===> : JK MODE FOUND - ACTIVATING RI-MP2 CODE
  ===> : MP2 AND CIS FOUND - CHECKING
WARNING: CIS(D) and MP2 runs must have the same orbital window
  ===> : adjusting orbital windows

WARNING: No MP2 level density has been requested!
         To caclulate MP2 level properties use
         %mp2 Density relaxed end
         or
         %mp2 Density unrelaxed end
         Otherwise for double-hybrid DFT only the energy is correct!

WARNING: The frozen-core approximation is turned on by default for 
         the MP2 part of double-hybrid DFT.

WARNING: CIS/ROCIS methods need fully converged wavefunctions
  ===> : Setting SCFConvForced true
         You can overwrite this default with %scf ConvForced false 


INFO   : the flag for use of the SHARK integral package has been found!

================================================================================
                                       INPUT FILE
================================================================================
NAME = Me2-Acr_2_M06L_def2TZVP_coords.inp
|  1> %maxcore 20000
|  2> %pal
|  3>  nprocs= 4
|  4> end
|  5> ! RI-B2GP-PLYP   def2-TZVP def2/J def2-TZVP/C RIJCOSX CPCM TightSCF
|  6> %TDDFT  
|  7>    NROOTS   30
|  8>    dcorr 4
|  9>    TDA      FALSE
| 10> END
| 11> 
| 12> %CPCM
| 13>    SMD          TRUE
| 14>    SMDsolvent   "N,N-DIMETHYLFORMAMIDE"
| 15> END
| 16>    
| 17> 
| 18> * xyz 0 1
| 19> C                   3.63600900    1.46135700   -0.48497900
| 20> C                   2.42199800    2.10480900   -0.58704200
| 21> C                   1.21541900    1.39841000   -0.48825100
| 22> C                   1.25532400    0.01315500   -0.27345100
| 23> C                   2.49561800   -0.60140300   -0.17340600
| 24> C                   3.70874000    0.08194000   -0.27400300
| 25> C                  -0.00148400   -0.83321800   -0.14305200
| 26> C                  -1.25709700    0.01329300   -0.28369300
| 27> C                  -1.21570600    1.39971200   -0.49030500
| 28> C                  -2.42146500    2.10797700   -0.58632500
| 29> H                  -2.40194600    3.17579100   -0.75501500
| 30> C                  -3.63626100    1.46577500   -0.48433800
| 31> C                  -3.71023100    0.08446200   -0.28764900
| 32> C                  -2.49804500   -0.60124100   -0.19268900
| 33> H                   2.40373700    3.17493100   -0.74044500
| 34> H                   2.51643700   -1.67496200   -0.02785900
| 35> H                  -4.54268800    2.04951500   -0.58533000
| 36> N                   0.00030100    2.07078300   -0.59764200
| 37> C                   0.00131900    3.49106300   -0.77235200
| 38> C                  -0.00077100    4.32843200    0.37129700
| 39> C                   0.00479200    4.02025700   -2.03590700
| 40> C                  -0.00364800    3.82261200    1.68942600
| 41> C                   0.00050900    5.74180900    0.17219200
| 42> C                   0.00608800    5.41236200   -2.22344500
| 43> H                   0.00647600    3.35158900   -2.88789300
| 44> C                  -0.00534300    4.67360800    2.76285800
| 45> H                  -0.00434500    2.75023300    1.84373800
| 46> C                  -0.00139600    6.58691200    1.30349400
| 47> C                   0.00391600    6.25331800   -1.14346000
| 48> H                   0.00878600    5.81327200   -3.22878200
| 49> C                  -0.00427000    6.06680100    2.56972000
| 50> H                  -0.00743800    4.27320600    3.76879400
| 51> H                  -0.00041500    7.65917100    1.14666100
| 52> H                   0.00488900    7.32803500   -1.28144300
| 53> H                  -0.00561900    6.72647300    3.42821100
| 54> H                  -2.51967900   -1.66957700   -0.01292900
| 55> H                   4.54248500    2.05023100   -0.54769600
| 56> C                   0.00041400   -1.91883800   -1.22946600
| 57> H                   0.00514100   -1.47804200   -2.22681500
| 58> H                   0.87703200   -2.56030800   -1.14007700
| 59> H                  -0.88070700   -2.55512200   -1.14631200
| 60> C                  -0.00505600   -1.51013300    1.23635600
| 61> H                   0.87536100   -2.14029900    1.36359700
| 62> H                  -0.00855000   -0.76922700    2.03698000
| 63> H                  -0.88361800   -2.14365800    1.35874400
| 64> C                   4.99622300   -0.61513300   -0.15878400
| 65> C                   5.12061800   -1.81533400    0.55075900
| 66> C                   6.15731400   -0.10665800   -0.75284500
| 67> C                   6.33356000   -2.46754400    0.65993700
| 68> H                   4.25311400   -2.24109700    1.03991800
| 69> C                   7.36972600   -0.76023100   -0.64523100
| 70> H                   6.10827700    0.81363400   -1.32176500
| 71> C                   7.49237300   -1.95876900    0.06486100
| 72> H                   6.37902200   -3.40011200    1.20913700
| 73> H                   8.24394800   -0.32251900   -1.11171900
| 74> C                   8.78420000   -2.65393100    0.18251400
| 75> C                   9.07794900   -3.44917900    1.29583200
| 76> C                   9.75987900   -2.54184700   -0.81413500
| 77> C                  10.29363900   -4.10328900    1.40754900
| 78> H                   8.35222100   -3.53907100    2.09481600
| 79> C                  10.97536700   -3.19651900   -0.70245900
| 80> H                   9.55468500   -1.95128900   -1.69857500
| 81> C                  11.24996400   -3.98098900    0.40916200
| 82> H                  10.49829400   -4.70586000    2.28397400
| 83> H                  11.70972900   -3.09909200   -1.49261200
| 84> H                  12.20023400   -4.49240600    0.49639800
| 85> C                  -4.99813800   -0.61356900   -0.18563200
| 86> C                  -5.13037100   -1.96265200   -0.53456200
| 87> C                  -6.15048600    0.04193900    0.26367600
| 88> C                  -6.34314300   -2.61744300   -0.43965100
| 89> H                  -4.26952500   -2.50786200   -0.90194900
| 90> C                  -7.36247100   -0.61417800    0.36146100
| 91> H                  -6.09367700    1.08344200    0.55593700
| 92> C                  -7.49280100   -1.96200500    0.01218400
| 93> H                  -6.39615600   -3.66509000   -0.70991700
| 94> H                  -8.23060800   -0.06453300    0.70464100
| 95> C                  -8.78344100   -2.66127700    0.11644100
| 96> C                  -9.09611700   -3.73103200   -0.72957600
| 97> C                  -9.73782300   -2.27980800    1.06579800
| 98> C                 -10.30994100   -4.39067100   -0.63010000
| 99> H                  -8.38674800   -4.03638100   -1.48900600
|100> C                 -10.95112800   -2.94041900    1.16593100
|101> H                  -9.51685600   -1.46852300    1.74861500
|102> C                 -11.24463600   -3.99985500    0.31861000
|103> H                 -10.52986900   -5.21060100   -1.30272800
|104> H                 -11.66861800   -2.63023800    1.91563600
|105> H                 -12.19304000   -4.51615700    0.39695800
|106> *
|107> 
|108> 
|109>                          ****END OF INPUT****
================================================================================

                       ****************************
                       * Single Point Calculation *
                       ****************************

---------------------------------
CARTESIAN COORDINATES (ANGSTROEM)
---------------------------------
  C      3.636009    1.461357   -0.484979
  C      2.421998    2.104809   -0.587042
  C      1.215419    1.398410   -0.488251
  C      1.255324    0.013155   -0.273451
  C      2.495618   -0.601403   -0.173406
  C      3.708740    0.081940   -0.274003
  C     -0.001484   -0.833218   -0.143052
  C     -1.257097    0.013293   -0.283693
  C     -1.215706    1.399712   -0.490305
  C     -2.421465    2.107977   -0.586325
  H     -2.401946    3.175791   -0.755015
  C     -3.636261    1.465775   -0.484338
  C     -3.710231    0.084462   -0.287649
  C     -2.498045   -0.601241   -0.192689
  H      2.403737    3.174931   -0.740445
  H      2.516437   -1.674962   -0.027859
  H     -4.542688    2.049515   -0.585330
  N      0.000301    2.070783   -0.597642
  C      0.001319    3.491063   -0.772352
  C     -0.000771    4.328432    0.371297
  C      0.004792    4.020257   -2.035907
  C     -0.003648    3.822612    1.689426
  C      0.000509    5.741809    0.172192
  C      0.006088    5.412362   -2.223445
  H      0.006476    3.351589   -2.887893
  C     -0.005343    4.673608    2.762858
  H     -0.004345    2.750233    1.843738
  C     -0.001396    6.586912    1.303494
  C      0.003916    6.253318   -1.143460
  H      0.008786    5.813272   -3.228782
  C     -0.004270    6.066801    2.569720
  H     -0.007438    4.273206    3.768794
  H     -0.000415    7.659171    1.146661
  H      0.004889    7.328035   -1.281443
  H     -0.005619    6.726473    3.428211
  H     -2.519679   -1.669577   -0.012929
  H      4.542485    2.050231   -0.547696
  C      0.000414   -1.918838   -1.229466
  H      0.005141   -1.478042   -2.226815
  H      0.877032   -2.560308   -1.140077
  H     -0.880707   -2.555122   -1.146312
  C     -0.005056   -1.510133    1.236356
  H      0.875361   -2.140299    1.363597
  H     -0.008550   -0.769227    2.036980
  H     -0.883618   -2.143658    1.358744
  C      4.996223   -0.615133   -0.158784
  C      5.120618   -1.815334    0.550759
  C      6.157314   -0.106658   -0.752845
  C      6.333560   -2.467544    0.659937
  H      4.253114   -2.241097    1.039918
  C      7.369726   -0.760231   -0.645231
  H      6.108277    0.813634   -1.321765
  C      7.492373   -1.958769    0.064861
  H      6.379022   -3.400112    1.209137
  H      8.243948   -0.322519   -1.111719
  C      8.784200   -2.653931    0.182514
  C      9.077949   -3.449179    1.295832
  C      9.759879   -2.541847   -0.814135
  C     10.293639   -4.103289    1.407549
  H      8.352221   -3.539071    2.094816
  C     10.975367   -3.196519   -0.702459
  H      9.554685   -1.951289   -1.698575
  C     11.249964   -3.980989    0.409162
  H     10.498294   -4.705860    2.283974
  H     11.709729   -3.099092   -1.492612
  H     12.200234   -4.492406    0.496398
  C     -4.998138   -0.613569   -0.185632
  C     -5.130371   -1.962652   -0.534562
  C     -6.150486    0.041939    0.263676
  C     -6.343143   -2.617443   -0.439651
  H     -4.269525   -2.507862   -0.901949
  C     -7.362471   -0.614178    0.361461
  H     -6.093677    1.083442    0.555937
  C     -7.492801   -1.962005    0.012184
  H     -6.396156   -3.665090   -0.709917
  H     -8.230608   -0.064533    0.704641
  C     -8.783441   -2.661277    0.116441
  C     -9.096117   -3.731032   -0.729576
  C     -9.737823   -2.279808    1.065798
  C    -10.309941   -4.390671   -0.630100
  H     -8.386748   -4.036381   -1.489006
  C    -10.951128   -2.940419    1.165931
  H     -9.516856   -1.468523    1.748615
  C    -11.244636   -3.999855    0.318610
  H    -10.529869   -5.210601   -1.302728
  H    -11.668618   -2.630238    1.915636
  H    -12.193040   -4.516157    0.396958

----------------------------
CARTESIAN COORDINATES (A.U.)
----------------------------
  NO LB      ZA    FRAG     MASS         X           Y           Z
   0 C     6.0000    0    12.011    6.871061    2.761565   -0.916477
   1 C     6.0000    0    12.011    4.576913    3.977513   -1.109349
   2 C     6.0000    0    12.011    2.296809    2.642612   -0.922661
   3 C     6.0000    0    12.011    2.372219    0.024859   -0.516748
   4 C     6.0000    0    12.011    4.716035   -1.136487   -0.327690
   5 C     6.0000    0    12.011    7.008503    0.154844   -0.517791
   6 C     6.0000    0    12.011   -0.002804   -1.574554   -0.270329
   7 C     6.0000    0    12.011   -2.375569    0.025120   -0.536102
   8 C     6.0000    0    12.011   -2.297351    2.645072   -0.926542
   9 C     6.0000    0    12.011   -4.575906    3.983499   -1.107994
  10 H     1.0000    0     1.008   -4.539020    6.001375   -1.426772
  11 C     6.0000    0    12.011   -6.871537    2.769913   -0.915266
  12 C     6.0000    0    12.011   -7.011320    0.159610   -0.543578
  13 C     6.0000    0    12.011   -4.720621   -1.136181   -0.364129
  14 H     1.0000    0     1.008    4.542405    5.999750   -1.399238
  15 H     1.0000    0     1.008    4.755377   -3.165219   -0.052646
  16 H     1.0000    0     1.008   -8.584436    3.873022   -1.106113
  17 N     7.0000    0    14.007    0.000569    3.913213   -1.129380
  18 C     6.0000    0    12.011    0.002493    6.597153   -1.459534
  19 C     6.0000    0    12.011   -0.001457    8.179551    0.701650
  20 C     6.0000    0    12.011    0.009056    7.597185   -3.847307
  21 C     6.0000    0    12.011   -0.006894    7.223690    3.192552
  22 C     6.0000    0    12.011    0.000962   10.850447    0.325396
  23 C     6.0000    0    12.011    0.011505   10.227882   -4.201702
  24 H     1.0000    0     1.008    0.012238    6.333585   -5.457327
  25 C     6.0000    0    12.011   -0.010097    8.831839    5.221045
  26 H     1.0000    0     1.008   -0.008211    5.197187    3.484160
  27 C     6.0000    0    12.011   -0.002638   12.447460    2.463247
  28 C     6.0000    0    12.011    0.007400   11.817058   -2.160826
  29 H     1.0000    0     1.008    0.016603   10.985492   -6.101514
  30 C     6.0000    0    12.011   -0.008069   11.464592    4.856067
  31 H     1.0000    0     1.008   -0.014056    8.075189    7.121989
  32 H     1.0000    0     1.008   -0.000784   14.473736    2.166875
  33 H     1.0000    0     1.008    0.009239   13.847979   -2.421576
  34 H     1.0000    0     1.008   -0.010618   12.711192    6.478380
  35 H     1.0000    0     1.008   -4.761503   -3.155043   -0.024432
  36 H     1.0000    0     1.008    8.584053    3.874375   -1.034995
  37 C     6.0000    0    12.011    0.000782   -3.626078   -2.323354
  38 H     1.0000    0     1.008    0.009715   -2.793095   -4.208071
  39 H     1.0000    0     1.008    1.657350   -4.838281   -2.154433
  40 H     1.0000    0     1.008   -1.664295   -4.828481   -2.166216
  41 C     6.0000    0    12.011   -0.009554   -2.853738    2.336374
  42 H     1.0000    0     1.008    1.654193   -4.044579    2.576825
  43 H     1.0000    0     1.008   -0.016157   -1.453628    3.849334
  44 H     1.0000    0     1.008   -1.669796   -4.050927    2.567654
  45 C     6.0000    0    12.011    9.441493   -1.162433   -0.300058
  46 C     6.0000    0    12.011    9.676566   -3.430484    1.040784
  47 C     6.0000    0    12.011   11.635637   -0.201554   -1.422671
  48 C     6.0000    0    12.011   11.968694   -4.662982    1.247100
  49 H     1.0000    0     1.008    8.037221   -4.235060    1.965160
  50 C     6.0000    0    12.011   13.926764   -1.436628   -1.219310
  51 H     1.0000    0     1.008   11.542971    1.537545   -2.497774
  52 C     6.0000    0    12.011   14.158533   -3.701537    0.122570
  53 H     1.0000    0     1.008   12.054605   -6.425281    2.284938
  54 H     1.0000    0     1.008   15.578804   -0.609473   -2.100844
  55 C     6.0000    0    12.011   16.599732   -5.015203    0.344901
  56 C     6.0000    0    12.011   17.154837   -6.518004    2.448768
  57 C     6.0000    0    12.011   18.443498   -4.803395   -1.538492
  58 C     6.0000    0    12.011   19.452159   -7.754092    2.659882
  59 H     1.0000    0     1.008   15.783410   -6.687875    3.958629
  60 C     6.0000    0    12.011   20.740438   -6.040545   -1.327455
  61 H     1.0000    0     1.008   18.055738   -3.687402   -3.209842
  62 C     6.0000    0    12.011   21.259351   -7.522979    0.773204
  63 H     1.0000    0     1.008   19.838901   -8.892787    4.316085
  64 H     1.0000    0     1.008   22.128181   -5.856435   -2.820628
  65 H     1.0000    0     1.008   23.055101   -8.489417    0.938056
  66 C     6.0000    0    12.011   -9.445112   -1.159477   -0.350794
  67 C     6.0000    0    12.011   -9.694996   -3.708875   -1.010176
  68 C     6.0000    0    12.011  -11.622734    0.079253    0.498275
  69 C     6.0000    0    12.011  -11.986803   -4.946250   -0.830820
  70 H     1.0000    0     1.008   -8.068233   -4.739172   -1.704437
  71 C     6.0000    0    12.011  -13.913054   -1.160628    0.683062
  72 H     1.0000    0     1.008  -11.515381    2.047409    1.050569
  73 C     6.0000    0    12.011  -14.159342   -3.707652    0.023024
  74 H     1.0000    0     1.008  -12.086983   -6.926016   -1.341549
  75 H     1.0000    0     1.008  -15.553595   -0.121950    1.331579
  76 C     6.0000    0    12.011  -16.598298   -5.029085    0.220042
  77 C     6.0000    0    12.011  -17.189170   -7.050629   -1.378699
  78 C     6.0000    0    12.011  -18.401819   -4.308213    2.014066
  79 C     6.0000    0    12.011  -19.482965   -8.297166   -1.190716
  80 H     1.0000    0     1.008  -15.848657   -7.627655   -2.813814
  81 C     6.0000    0    12.011  -20.694633   -5.556587    2.203290
  82 H     1.0000    0     1.008  -17.984251   -2.775106    3.304403
  83 C     6.0000    0    12.011  -21.249283   -7.558631    0.602086
  84 H     1.0000    0     1.008  -19.898569   -9.846609   -2.461799
  85 H     1.0000    0     1.008  -22.050492   -4.970429    3.620027
  86 H     1.0000    0     1.008  -23.041506   -8.534300    0.750142

--------------------------------
INTERNAL COORDINATES (ANGSTROEM)
--------------------------------
 C      0   0   0     0.000000000000     0.00000000     0.00000000
 C      1   0   0     1.377777209999     0.00000000     0.00000000
 C      2   1   0     1.401639073415   121.19297435     0.00000000
 C      3   2   1     1.402377575423   118.95533550     0.39300498
 C      4   3   2     1.387811134061   118.28716062   359.72406389
 C      5   4   3     1.395973638341   123.68873898     0.02793316
 C      4   3   2     1.520827900584   122.63898823   179.54115141
 C      7   4   3     1.520830289602   111.38216778     0.34269311
 C      8   7   4     1.402340677933   122.65287417   359.27180651
 C      9   8   7     1.401682530642   118.96414321   181.08162850
 H     10   9   8     1.081232651217   119.61594095   180.58205829
 C     10   9   8     1.377880284564   121.18673068   359.85556583
 C     12  10   9     1.397205685499   121.18969440   359.70313578
 C      8   7   4     1.387762841366   119.05979705   179.89085980
 H      2   1   3     1.081215537908   119.18440594   179.64622598
 H      5   4   3     1.083580309184   117.74801288   181.23298792
 H     12  10   9     1.082848871262   118.67523368   181.27043080
 N      9   8   7     1.393029268414   120.88943106     0.98875216
 C     18   9   8     1.430985638930   119.21968030   181.66529577
 C     19  18   9     1.417435799415   119.19834588    88.72092056
 C     19  18   9     1.369901306441   119.73738173   268.69647501
 C     20  19  18     1.411852049674   122.79500156     0.00000000
 C     20  19  18     1.427332821578   118.19250812   179.99032294
 C     21  19  18     1.404680928925   120.39706417   180.01211244
 H     21  19  18     1.083051187283   119.14947365     0.00000000
 C     22  20  19     1.369836969739   120.59952500   179.98804697
 H     22  20  19     1.083424846860   119.18233868     0.00000000
 C     23  20  19     1.412107263928   118.74167801   180.00706076
 C     24  21  19     1.368787533456   120.23436995     0.00000000
 H     24  21  19     1.082330167219   119.41367948   180.00323889
 C     28  23  20     1.368887137522   120.90894478     0.00000000
 H     26  22  20     1.082697273814   119.88887882   180.00659052
 H     28  23  20     1.083668268120   118.43896330   180.00014555
 H     29  24  21     1.083539055645   120.59062073   180.00065662
 H     31  28  23     1.082670662975   120.13034039   179.99465698
 H     14   8   7     1.083569793069   117.73158069     0.62217091
 H      1   2   3     1.082776407455   118.64525332   181.20219817
 C      7   4   3     1.535861245751   109.37220688   121.15603891
 H     38   7   4     1.090425827806   111.17717011   299.02451143
 H     38   7   4     1.089923516649   111.03833060    59.32706843
 H     38   7   4     1.090021161727   110.95598586   178.79198874
 C      7   4   3     1.536552344332   108.90893700   240.04179672
 H     42   7   4     1.090152995467   110.95044609   300.73856363
 H     42   7   4     1.090849530526   111.08027204    60.92442193
 H     42   7   4     1.090047676028   111.02080742   181.17427315
 C      6   5   4     1.468604324037   121.59024057   179.89900224
 C     46   6   5     1.399788493050   121.64453379   334.37567321
 C     46   6   5     1.399852709262   121.42895084   154.49846352
 C     47  46   6     1.381494124181   121.52523121   180.13815157
 H     47  46   6     1.083103803643   119.65626059   359.25207987
 C     48  46   6     1.381550323756   121.53374077   179.96485220
 H     48  46   6     1.083056766302   119.60465598   359.19018242
 C     51  48  46     1.398487137058   121.46304982   359.86813846
 H     49  47  46     1.083222280083   118.90517062   180.72943718
 H     51  48  46     1.083266797410   118.91598198   180.73185152
 C     53  51  48     1.471702902281   121.49271461   180.14241118
 C     56  53  51     1.399351573276   121.08441090   151.16393410
 C     56  53  51     1.399221770592   121.15095660   331.18540427
 C     57  56  53     1.385006410198   121.11951088   180.02562271
 H     57  56  53     1.083114552531   119.56439296   358.69932583
 C     58  56  53     1.385091345256   121.10616956   180.00066091
 H     58  56  53     1.083096229612   119.55218228   358.64506576
 C     59  57  56     1.387909001842   120.34231868     0.00000000
 H     59  57  56     1.083095683534   119.59546966   179.48720544
 H     61  58  56     1.083107257284   119.58118130   179.49579021
 H     63  59  57     1.082668250428   120.34414860   180.00833374
 C     13  12  10     1.468454693172   121.74608541   180.38820292
 C     67  13  12     1.399736636685   121.57977737   153.30176498
 C     67  13  12     1.399812248136   121.44645471   333.39742118
 C     68  67  13     1.381511952748   121.50818329   180.08513776
 H     68  67  13     1.083181881119   119.64321526   359.16906183
 C     69  67  13     1.381650847406   121.49773650   180.07168626
 H     69  67  13     1.083223085800   119.58246833   359.19551113
 C     70  68  67     1.398380261600   121.45055787   359.86382424
 H     70  68  67     1.083244351720   118.96089102   180.68916042
 H     72  69  67     1.083302353544   118.97631452   180.61716801
 C     74  70  68     1.471598607513   121.41337937   180.16895754
 C     77  74  70     1.399245084069   121.09320507   330.99540783
 C     77  74  70     1.399157715675   121.11458409   150.90964135
 C     78  77  74     1.385058766938   121.09885481   179.89346990
 H     78  77  74     1.083132639552   119.54497708   358.60899199
 C     79  77  74     1.385114628482   121.09921971   180.16741226
 H     79  77  74     1.083166109977   119.52399710   358.82659608
 C     80  78  77     1.387963455204   120.34219884   359.95266677
 H     80  78  77     1.083089080578   119.59641544   179.51211921
 H     82  79  77     1.083079747704   119.58633954   179.46347114
 H     84  80  78     1.082670915617   120.33804753   180.06046348

---------------------------
INTERNAL COORDINATES (A.U.)
---------------------------
 C      0   0   0     0.000000000000     0.00000000     0.00000000
 C      1   0   0     2.603621600457     0.00000000     0.00000000
 C      2   1   0     2.648713987357   121.19297435     0.00000000
 C      3   2   1     2.650109553902   118.95533550     0.39300498
 C      4   3   2     2.622582968983   118.28716062   359.72406389
 C      5   4   3     2.638007866637   123.68873898     0.02793316
 C      4   3   2     2.873948228930   122.63898823   179.54115141
 C      7   4   3     2.873952743520   111.38216778     0.34269311
 C      8   7   4     2.650039827751   122.65287417   359.27180651
 C      9   8   7     2.648796109614   118.96414321   181.08162850
 H     10   9   8     2.043233597853   119.61594095   180.58205829
 C     10   9   8     2.603816383155   121.18673068   359.85556583
 C     12  10   9     2.640336098350   121.18969440   359.70313578
 C      8   7   4     2.622491709014   119.05979705   179.89085980
 H      2   1   3     2.043201258387   119.18440594   179.64622598
 H      5   4   3     2.047670028467   117.74801288   181.23298792
 H     12  10   9     2.046287811111   118.67523368   181.27043080
 N      9   8   7     2.632443813840   120.88943106     0.98875216
 C     18   9   8     2.704170959152   119.21968030   181.66529577
 C     19  18   9     2.678565473309   119.19834588    88.72092056
 C     19  18   9     2.588738299675   119.73738173   268.69647501
 C     20  19  18     2.668013715500   122.79500156     0.00000000
 C     20  19  18     2.697268134740   118.19250812   179.99032294
 C     21  19  18     2.654462261210   120.39706417   180.01211244
 H     21  19  18     2.046670132984   119.14947365     0.00000000
 C     22  20  19     2.588616720928   120.59952500   179.98804697
 H     22  20  19     2.047376247251   119.18233868     0.00000000
 C     23  20  19     2.668496000545   118.74167801   180.00706076
 C     24  21  19     2.586633573758   120.23436995     0.00000000
 H     24  21  19     2.045307602526   119.41367948   180.00323889
 C     28  23  20     2.586821798164   120.90894478     0.00000000
 H     26  22  20     2.046001333452   119.88887882   180.00659052
 H     28  23  20     2.047836246768   118.43896330   180.00014555
 H     29  24  21     2.047592070576   120.59062073   180.00065662
 H     31  28  23     2.045951046253   120.13034039   179.99465698
 H     14   8   7     2.047650155890   117.73158069     0.62217091
 H      1   2   3     2.046150874361   118.64525332   181.20219817
 C      7   4   3     2.902357134173   109.37220688   121.15603891
 H     38   7   4     2.060606183907   111.17717011   299.02451143
 H     38   7   4     2.059656953387   111.03833060    59.32706843
 H     38   7   4     2.059841475843   110.95598586   178.79198874
 C      7   4   3     2.903663121223   108.90893700   240.04179672
 H     42   7   4     2.060090605507   110.95044609   300.73856363
 H     42   7   4     2.061406866010   111.08027204    60.92442193
 H     42   7   4     2.059891580609   111.02080742   181.17427315
 C      6   5   4     2.775259971522   121.59024057   179.89900224
 C     46   6   5     2.645216897279   121.64453379   334.37567321
 C     46   6   5     2.645338248332   121.42895084   154.49846352
 C     47  46   6     2.610645550324   121.52523121   180.13815157
 H     47  46   6     2.046769563494   119.65626059   359.25207987
 C     48  46   6     2.610751752128   121.53374077   179.96485220
 H     48  46   6     2.046680675802   119.60465598   359.19018242
 C     51  48  46     2.642757690851   121.46304982   359.86813846
 H     49  47  46     2.046993451518   118.90517062   180.72943718
 H     51  48  46     2.047077577076   118.91598198   180.73185152
 C     53  51  48     2.781115435808   121.49271461   180.14241118
 C     56  53  51     2.644391238563   121.08441090   151.16393410
 C     56  53  51     2.644145947039   121.15095660   331.18540427
 C     57  56  53     2.617282808999   121.11951088   180.02562271
 H     57  56  53     2.046789875948   119.56439296   358.69932583
 C     58  56  53     2.617443312999   121.10616956   180.00066091
 H     58  56  53     2.046755250650   119.55218228   358.64506576
 C     59  57  56     2.622767912285   120.34231868     0.00000000
 H     59  57  56     2.046754218712   119.59546966   179.48720544
 H     61  58  56     2.046776089930   119.58118130   179.49579021
 H     63  59  57     2.045946487201   120.34414860   180.00833374
 C     13  12  10     2.774977210167   121.74608541   180.38820292
 C     67  13  12     2.645118902951   121.57977737   153.30176498
 C     67  13  12     2.645261787886   121.44645471   333.39742118
 C     68  67  13     2.610679241433   121.50818329   180.08513776
 H     68  67  13     2.046917108541   119.64321526   359.16906183
 C     69  67  13     2.610941714298   121.49773650   180.07168626
 H     69  67  13     2.046994974104   119.58246833   359.19551113
 C     70  68  67     2.642555725506   121.45055787   359.86382424
 H     70  68  67     2.047035160868   118.96089102   180.68916042
 H     72  69  67     2.047144768431   118.97631452   180.61716801
 C     74  70  68     2.780918347259   121.41337937   180.16895754
 C     77  74  70     2.644190003125   121.09320507   330.99540783
 C     77  74  70     2.644024900789   121.11458409   150.90964135
 C     78  77  74     2.617381748900   121.09885481   179.89346990
 H     78  77  74     2.046824055464   119.54497708   358.60899199
 C     79  77  74     2.617487311919   121.09921971   180.16741226
 H     79  77  74     2.046887305402   119.52399710   358.82659608
 C     80  78  77     2.622870814226   120.34219884   359.95266677
 H     80  78  77     2.046741740934   119.59641544   179.51211921
 H     82  79  77     2.046724104357   119.58633954   179.46347114
 H     84  80  78     2.045951523679   120.33804753   180.06046348

---------------------
BASIS SET INFORMATION
---------------------
There are 3 groups of distinct atoms

 Group   1 Type C   : 11s6p2d1f contracted to 5s3p2d1f pattern {62111/411/11/1}
 Group   2 Type H   : 5s1p contracted to 3s1p pattern {311/1}
 Group   3 Type N   : 11s6p2d1f contracted to 5s3p2d1f pattern {62111/411/11/1}

Atom   0C    basis set group =>   1
Atom   1C    basis set group =>   1
Atom   2C    basis set group =>   1
Atom   3C    basis set group =>   1
Atom   4C    basis set group =>   1
Atom   5C    basis set group =>   1
Atom   6C    basis set group =>   1
Atom   7C    basis set group =>   1
Atom   8C    basis set group =>   1
Atom   9C    basis set group =>   1
Atom  10H    basis set group =>   2
Atom  11C    basis set group =>   1
Atom  12C    basis set group =>   1
Atom  13C    basis set group =>   1
Atom  14H    basis set group =>   2
Atom  15H    basis set group =>   2
Atom  16H    basis set group =>   2
Atom  17N    basis set group =>   3
Atom  18C    basis set group =>   1
Atom  19C    basis set group =>   1
Atom  20C    basis set group =>   1
Atom  21C    basis set group =>   1
Atom  22C    basis set group =>   1
Atom  23C    basis set group =>   1
Atom  24H    basis set group =>   2
Atom  25C    basis set group =>   1
Atom  26H    basis set group =>   2
Atom  27C    basis set group =>   1
Atom  28C    basis set group =>   1
Atom  29H    basis set group =>   2
Atom  30C    basis set group =>   1
Atom  31H    basis set group =>   2
Atom  32H    basis set group =>   2
Atom  33H    basis set group =>   2
Atom  34H    basis set group =>   2
Atom  35H    basis set group =>   2
Atom  36H    basis set group =>   2
Atom  37C    basis set group =>   1
Atom  38H    basis set group =>   2
Atom  39H    basis set group =>   2
Atom  40H    basis set group =>   2
Atom  41C    basis set group =>   1
Atom  42H    basis set group =>   2
Atom  43H    basis set group =>   2
Atom  44H    basis set group =>   2
Atom  45C    basis set group =>   1
Atom  46C    basis set group =>   1
Atom  47C    basis set group =>   1
Atom  48C    basis set group =>   1
Atom  49H    basis set group =>   2
Atom  50C    basis set group =>   1
Atom  51H    basis set group =>   2
Atom  52C    basis set group =>   1
Atom  53H    basis set group =>   2
Atom  54H    basis set group =>   2
Atom  55C    basis set group =>   1
Atom  56C    basis set group =>   1
Atom  57C    basis set group =>   1
Atom  58C    basis set group =>   1
Atom  59H    basis set group =>   2
Atom  60C    basis set group =>   1
Atom  61H    basis set group =>   2
Atom  62C    basis set group =>   1
Atom  63H    basis set group =>   2
Atom  64H    basis set group =>   2
Atom  65H    basis set group =>   2
Atom  66C    basis set group =>   1
Atom  67C    basis set group =>   1
Atom  68C    basis set group =>   1
Atom  69C    basis set group =>   1
Atom  70H    basis set group =>   2
Atom  71C    basis set group =>   1
Atom  72H    basis set group =>   2
Atom  73C    basis set group =>   1
Atom  74H    basis set group =>   2
Atom  75H    basis set group =>   2
Atom  76C    basis set group =>   1
Atom  77C    basis set group =>   1
Atom  78C    basis set group =>   1
Atom  79C    basis set group =>   1
Atom  80H    basis set group =>   2
Atom  81C    basis set group =>   1
Atom  82H    basis set group =>   2
Atom  83C    basis set group =>   1
Atom  84H    basis set group =>   2
Atom  85H    basis set group =>   2
Atom  86H    basis set group =>   2
---------------------------------
AUXILIARY/J BASIS SET INFORMATION
---------------------------------
There are 3 groups of distinct atoms

 Group   1 Type C   : 12s5p4d2f1g contracted to 6s4p3d1f1g pattern {711111/2111/211/2/1}
 Group   2 Type H   : 5s2p1d contracted to 3s1p1d pattern {311/2/1}
 Group   3 Type N   : 12s5p4d2f1g contracted to 6s4p3d1f1g pattern {711111/2111/211/2/1}

Atom   0C    basis set group =>   1
Atom   1C    basis set group =>   1
Atom   2C    basis set group =>   1
Atom   3C    basis set group =>   1
Atom   4C    basis set group =>   1
Atom   5C    basis set group =>   1
Atom   6C    basis set group =>   1
Atom   7C    basis set group =>   1
Atom   8C    basis set group =>   1
Atom   9C    basis set group =>   1
Atom  10H    basis set group =>   2
Atom  11C    basis set group =>   1
Atom  12C    basis set group =>   1
Atom  13C    basis set group =>   1
Atom  14H    basis set group =>   2
Atom  15H    basis set group =>   2
Atom  16H    basis set group =>   2
Atom  17N    basis set group =>   3
Atom  18C    basis set group =>   1
Atom  19C    basis set group =>   1
Atom  20C    basis set group =>   1
Atom  21C    basis set group =>   1
Atom  22C    basis set group =>   1
Atom  23C    basis set group =>   1
Atom  24H    basis set group =>   2
Atom  25C    basis set group =>   1
Atom  26H    basis set group =>   2
Atom  27C    basis set group =>   1
Atom  28C    basis set group =>   1
Atom  29H    basis set group =>   2
Atom  30C    basis set group =>   1
Atom  31H    basis set group =>   2
Atom  32H    basis set group =>   2
Atom  33H    basis set group =>   2
Atom  34H    basis set group =>   2
Atom  35H    basis set group =>   2
Atom  36H    basis set group =>   2
Atom  37C    basis set group =>   1
Atom  38H    basis set group =>   2
Atom  39H    basis set group =>   2
Atom  40H    basis set group =>   2
Atom  41C    basis set group =>   1
Atom  42H    basis set group =>   2
Atom  43H    basis set group =>   2
Atom  44H    basis set group =>   2
Atom  45C    basis set group =>   1
Atom  46C    basis set group =>   1
Atom  47C    basis set group =>   1
Atom  48C    basis set group =>   1
Atom  49H    basis set group =>   2
Atom  50C    basis set group =>   1
Atom  51H    basis set group =>   2
Atom  52C    basis set group =>   1
Atom  53H    basis set group =>   2
Atom  54H    basis set group =>   2
Atom  55C    basis set group =>   1
Atom  56C    basis set group =>   1
Atom  57C    basis set group =>   1
Atom  58C    basis set group =>   1
Atom  59H    basis set group =>   2
Atom  60C    basis set group =>   1
Atom  61H    basis set group =>   2
Atom  62C    basis set group =>   1
Atom  63H    basis set group =>   2
Atom  64H    basis set group =>   2
Atom  65H    basis set group =>   2
Atom  66C    basis set group =>   1
Atom  67C    basis set group =>   1
Atom  68C    basis set group =>   1
Atom  69C    basis set group =>   1
Atom  70H    basis set group =>   2
Atom  71C    basis set group =>   1
Atom  72H    basis set group =>   2
Atom  73C    basis set group =>   1
Atom  74H    basis set group =>   2
Atom  75H    basis set group =>   2
Atom  76C    basis set group =>   1
Atom  77C    basis set group =>   1
Atom  78C    basis set group =>   1
Atom  79C    basis set group =>   1
Atom  80H    basis set group =>   2
Atom  81C    basis set group =>   1
Atom  82H    basis set group =>   2
Atom  83C    basis set group =>   1
Atom  84H    basis set group =>   2
Atom  85H    basis set group =>   2
Atom  86H    basis set group =>   2
---------------------------------
AUXILIARY/C BASIS SET INFORMATION
---------------------------------
There are 3 groups of distinct atoms

 Group   1 Type C   : 8s6p5d3f1g contracted to 8s6p4d3f1g pattern {11111111/111111/2111/111/1}
 Group   2 Type H   : 4s3p2d contracted to 4s2p1d pattern {1111/21/2}
 Group   3 Type N   : 8s6p5d3f1g contracted to 8s6p4d3f1g pattern {11111111/111111/2111/111/1}

Atom   0C    basis set group =>   1
Atom   1C    basis set group =>   1
Atom   2C    basis set group =>   1
Atom   3C    basis set group =>   1
Atom   4C    basis set group =>   1
Atom   5C    basis set group =>   1
Atom   6C    basis set group =>   1
Atom   7C    basis set group =>   1
Atom   8C    basis set group =>   1
Atom   9C    basis set group =>   1
Atom  10H    basis set group =>   2
Atom  11C    basis set group =>   1
Atom  12C    basis set group =>   1
Atom  13C    basis set group =>   1
Atom  14H    basis set group =>   2
Atom  15H    basis set group =>   2
Atom  16H    basis set group =>   2
Atom  17N    basis set group =>   3
Atom  18C    basis set group =>   1
Atom  19C    basis set group =>   1
Atom  20C    basis set group =>   1
Atom  21C    basis set group =>   1
Atom  22C    basis set group =>   1
Atom  23C    basis set group =>   1
Atom  24H    basis set group =>   2
Atom  25C    basis set group =>   1
Atom  26H    basis set group =>   2
Atom  27C    basis set group =>   1
Atom  28C    basis set group =>   1
Atom  29H    basis set group =>   2
Atom  30C    basis set group =>   1
Atom  31H    basis set group =>   2
Atom  32H    basis set group =>   2
Atom  33H    basis set group =>   2
Atom  34H    basis set group =>   2
Atom  35H    basis set group =>   2
Atom  36H    basis set group =>   2
Atom  37C    basis set group =>   1
Atom  38H    basis set group =>   2
Atom  39H    basis set group =>   2
Atom  40H    basis set group =>   2
Atom  41C    basis set group =>   1
Atom  42H    basis set group =>   2
Atom  43H    basis set group =>   2
Atom  44H    basis set group =>   2
Atom  45C    basis set group =>   1
Atom  46C    basis set group =>   1
Atom  47C    basis set group =>   1
Atom  48C    basis set group =>   1
Atom  49H    basis set group =>   2
Atom  50C    basis set group =>   1
Atom  51H    basis set group =>   2
Atom  52C    basis set group =>   1
Atom  53H    basis set group =>   2
Atom  54H    basis set group =>   2
Atom  55C    basis set group =>   1
Atom  56C    basis set group =>   1
Atom  57C    basis set group =>   1
Atom  58C    basis set group =>   1
Atom  59H    basis set group =>   2
Atom  60C    basis set group =>   1
Atom  61H    basis set group =>   2
Atom  62C    basis set group =>   1
Atom  63H    basis set group =>   2
Atom  64H    basis set group =>   2
Atom  65H    basis set group =>   2
Atom  66C    basis set group =>   1
Atom  67C    basis set group =>   1
Atom  68C    basis set group =>   1
Atom  69C    basis set group =>   1
Atom  70H    basis set group =>   2
Atom  71C    basis set group =>   1
Atom  72H    basis set group =>   2
Atom  73C    basis set group =>   1
Atom  74H    basis set group =>   2
Atom  75H    basis set group =>   2
Atom  76C    basis set group =>   1
Atom  77C    basis set group =>   1
Atom  78C    basis set group =>   1
Atom  79C    basis set group =>   1
Atom  80H    basis set group =>   2
Atom  81C    basis set group =>   1
Atom  82H    basis set group =>   2
Atom  83C    basis set group =>   1
Atom  84H    basis set group =>   2
Atom  85H    basis set group =>   2
Atom  86H    basis set group =>   2


           ************************************************************
           *        Program running with 4 parallel MPI-processes     *
           *              working on a common directory               *
           ************************************************************
------------------------------------------------------------------------------
                           ORCA GTO INTEGRAL CALCULATION
                           -- RI-GTO INTEGRALS CHOSEN --
------------------------------------------------------------------------------
------------------------------------------------------------------------------
                   ___                                                        
                  /   \      - P O W E R E D   B Y -                         
                 /     \                                                     
                 |  |  |   _    _      __       _____    __    __             
                 |  |  |  | |  | |    /  \     |  _  \  |  |  /  |          
                  \  \/   | |  | |   /    \    | | | |  |  | /  /          
                 / \  \   | |__| |  /  /\  \   | |_| |  |  |/  /          
                |  |  |   |  __  | /  /__\  \  |    /   |      \           
                |  |  |   | |  | | |   __   |  |    \   |  |\   \          
                \     /   | |  | | |  |  |  |  | |\  \  |  | \   \       
                 \___/    |_|  |_| |__|  |__|  |_| \__\ |__|  \__/        
                                                                              
                      - O R C A' S   B I G   F R I E N D -                    
                                      &                                       
                       - I N T E G R A L  F E E D E R -                       
                                                                              
 v1 FN, 2020, v2 2021                                                         
------------------------------------------------------------------------------


Reading SHARK input file Me2-Acr_2_M06L_def2TZVP_coords.SHARKINP.tmp ... ok
----------------------
SHARK INTEGRAL PACKAGE
----------------------

Number of atoms                             ...     87
Number of basis functions                   ...   1772
Number of shells                            ...    698
Maximum angular momentum                    ...      3
Integral batch strategy                     ... SHARK/LIBINT Hybrid
RI-J (if used) integral strategy            ... SPLIT-RIJ (Revised 2003 algorithm where possible)
Printlevel                                  ...      1
Contraction scheme used                     ... SEGMENTED contraction
Coulomb Range Separation                    ... NOT USED
Exchange Range Separation                   ... NOT USED
Finite Nucleus Model                        ... NOT USED
Auxiliary Coulomb fitting basis             ... AVAILABLE
   # of basis functions in Aux-J            ...   2857
   # of shells in Aux-J                     ...    935
   Maximum angular momentum in Aux-J        ...      4
Auxiliary J/K fitting basis                 ... NOT available
Auxiliary Correlation fitting basis         ... AVAILABLE
   # of basis functions in Aux-C            ...   4355
   # of shells in Aux-C                     ...   1359
   Maximum angular momentum in Aux-C        ...      4
Auxiliary 'external' fitting basis          ... NOT available
Integral threshold                          ...     2.500000e-11
Primitive cut-off                           ...     2.500000e-12
Primitive pair pre-selection threshold      ...     2.500000e-12

Calculating pre-screening integrals         ... done (  0.3 sec) Dimension = 698
Organizing shell pair data                  ... done (  4.0 sec)
Shell pair information
Total number of shell pairs                 ...    243951
Shell pairs after pre-screening             ...    100822
Total number of primitive shell pairs       ...    748464
Primitive shell pairs kept                  ...    195691
          la=0 lb=0:  26110 shell pairs
          la=1 lb=0:  29852 shell pairs
          la=1 lb=1:   8543 shell pairs
          la=2 lb=0:  13991 shell pairs
          la=2 lb=1:   8048 shell pairs
          la=2 lb=2:   1902 shell pairs
          la=3 lb=0:   6493 shell pairs
          la=3 lb=1:   3775 shell pairs
          la=3 lb=2:   1691 shell pairs
          la=3 lb=3:    417 shell pairs

Calculating one electron integrals          ... done (  0.4 sec)
Calculating RI/J V-Matrix + Cholesky decomp.... done (  0.6 sec)
Calculating RI/C V-Matrix + Cholesky decomp.... done (  1.5 sec)
Calculating Nuclear repulsion               ... done (  0.0 sec) ENN=   5376.319032504085 Eh

SHARK setup successfully completed in   8.1 seconds

Maximum memory used throughout the entire GTOINT-calculation: 251.3 MB


           ************************************************************
           *        Program running with 4 parallel MPI-processes     *
           *              working on a common directory               *
           ************************************************************
-------------------------------------------------------------------------------
                                 ORCA SCF
-------------------------------------------------------------------------------

------------
SCF SETTINGS
------------
Hamiltonian:
 Density Functional     Method          .... DFT(GTOs)
 Exchange Functional    Exchange        .... B88
   X-Alpha parameter    XAlpha          ....  0.666667
   Becke's b parameter  XBeta           ....  0.004200
 Correlation Functional Correlation     .... LYP
 LDA part of GGA corr.  LDAOpt          .... VWN-3
 Gradients option       PostSCFGGA      .... off
 Hybrid DFT is turned on
   Fraction HF Exchange ScalHFX         ....  0.650000
   Scaling of DF-GGA-X  ScalDFX         ....  0.350000
   Scaling of DF-GGA-C  ScalDFC         ....  0.640000
   Scaling of DF-LDA-C  ScalLDAC        ....  0.640000
   Perturbative correction              ....  0.360000
   Density functional embedding theory  .... OFF
 RI-approximation to the Coulomb term is turned on
   Number of AuxJ basis functions       .... 2857
   RIJ-COSX (HFX calculated with COS-X)).... on


General Settings:
 Integral files         IntName         .... Me2-Acr_2_M06L_def2TZVP_coords
 Hartree-Fock type      HFTyp           .... RHF
 Total Charge           Charge          ....    0
 Multiplicity           Mult            ....    1
 Number of Electrons    NEL             ....  338
 Basis Dimension        Dim             .... 1772
 Nuclear Repulsion      ENuc            ....   5376.3190325041 Eh

Convergence Acceleration:
 DIIS                   CNVDIIS         .... on
   Start iteration      DIISMaxIt       ....    12
   Startup error        DIISStart       ....  0.200000
   # of expansion vecs  DIISMaxEq       ....     5
   Bias factor          DIISBfac        ....   1.050
   Max. coefficient     DIISMaxC        ....  10.000
 Trust-Rad. Augm. Hess. CNVTRAH         .... auto
   Auto Start mean grad. ratio tolernc. ....  1.125000
   Auto Start start iteration           ....    20
   Auto Start num. interpolation iter.  ....    10
   Max. Number of Micro iterations      ....    16
   Max. Number of Macro iterations      .... Maxiter - #DIIS iter
   Number of Davidson start vectors     ....     2
   Converg. threshold I  (grad. norm)   ....   1.000e-05
   Converg. threshold II (energy diff.) ....   1.000e-08
   Grad. Scal. Fac. for Micro threshold ....   0.100
   Minimum threshold for Micro iter.    ....   0.010
   NR start threshold (gradient norm)   ....   0.001
   Initial trust radius                 ....   0.400
   Minimum AH scaling param. (alpha)    ....   1.000
   Maximum AH scaling param. (alpha)    .... 1000.000
   Orbital update algorithm             .... Taylor
   White noise on init. David. guess    .... on
   Maximum white noise                  ....   0.010
   Quad. conv. algorithm                .... NR
 SOSCF                  CNVSOSCF        .... on
   Start iteration      SOSCFMaxIt      ....   150
   Startup grad/error   SOSCFStart      ....  0.003300
 Level Shifting         CNVShift        .... on
   Level shift para.    LevelShift      ....    0.2500
   Turn off err/grad.   ShiftErr        ....    0.0010
 Zerner damping         CNVZerner       .... off
 Static damping         CNVDamp         .... on
   Fraction old density DampFac         ....    0.7000
   Max. Damping (<1)    DampMax         ....    0.9800
   Min. Damping (>=0)   DampMin         ....    0.0000
   Turn off err/grad.   DampErr         ....    0.1000
 Fernandez-Rico         CNVRico         .... off

SCF Procedure:
 Maximum # iterations   MaxIter         ....   125
 SCF integral mode      SCFMode         .... Direct
   Integral package                     .... SHARK and LIBINT hybrid scheme
 Reset frequency        DirectResetFreq ....    20
 Integral Threshold     Thresh          ....  2.500e-11 Eh
 Primitive CutOff       TCut            ....  2.500e-12 Eh

Convergence Tolerance:
 Convergence Check Mode ConvCheckMode   .... Total+1el-Energy
 Convergence forced     ConvForced      .... 1
 Energy Change          TolE            ....  1.000e-08 Eh
 1-El. energy change                    ....  1.000e-05 Eh
 Orbital Gradient       TolG            ....  1.000e-05
 Orbital Rotation angle TolX            ....  1.000e-05
 DIIS Error             TolErr          ....  5.000e-07


Diagonalization of the overlap matrix:
Smallest eigenvalue                        ... 3.080e-06
Time for diagonalization                   ...    0.861 sec
Threshold for overlap eigenvalues          ... 1.000e-08
Number of eigenvalues below threshold      ... 0
Time for construction of square roots      ...    0.738 sec
Total time needed                          ...    1.611 sec

Time for model grid setup =    1.937 sec

------------------------------
INITIAL GUESS: MODEL POTENTIAL
------------------------------
Loading Hartree-Fock densities                     ... done
Calculating cut-offs                               ... done
Initializing the effective Hamiltonian             ... done
Setting up the integral package (SHARK)            ... done
Starting the Coulomb interaction                   ... done (   4.3 sec)
Reading the grid                                   ... done
Mapping shells                                     ... done
Starting the XC term evaluation                    ... done (   1.6 sec)
  promolecular density results
     # of electrons  =    337.973451927
     EX              =   -269.777722054
     EC              =     -1.282859073
     EX+EC           =   -271.060581127
Transforming the Hamiltonian                       ... done (   0.7 sec)
Diagonalizing the Hamiltonian                      ... done (   0.9 sec)
Back transforming the eigenvectors                 ... done (   0.3 sec)
Now organizing SCF variables                       ... done
                      ------------------
                      INITIAL GUESS DONE (   9.8 sec)
                      ------------------
-------------------
DFT GRID GENERATION
-------------------

General Integration Accuracy     IntAcc      ... 4.388
Radial Grid Type                 RadialGrid  ... OptM3 with GC (2021)
Angular Grid (max. ang.)         AngularGrid ... 4 (Lebedev-302)
Angular grid pruning method      GridPruning ... 4 (adaptive)
Weight generation scheme         WeightScheme... Becke
Basis function cutoff            BFCut       ... 1.0000e-11
Integration weight cutoff        WCut        ... 1.0000e-14
Angular grids for H and He will be reduced by one unit
Partially contracted basis set               ... off
Rotationally invariant grid construction     ... off

Total number of grid points                  ...   413820
Total number of batches                      ...     6517
Average number of points per batch           ...       63
Average number of grid points per atom       ...     4757
Time for grid setup =    6.625 sec

--------------------
COSX GRID GENERATION
--------------------

GRIDX 1
-------
General Integration Accuracy     IntAcc      ... 3.816
Radial Grid Type                 RadialGrid  ... OptM3 with GC (2021)
Angular Grid (max. ang.)         AngularGrid ... 1 (Lebedev-50)
Angular grid pruning method      GridPruning ... 4 (adaptive)
Weight generation scheme         WeightScheme... Becke
Basis function cutoff            BFCut       ... 1.0000e-11
Integration weight cutoff        WCut        ... 1.0000e-14
Angular grids for H and He will be reduced by one unit
Partially contracted basis set               ... on
Rotationally invariant grid construction     ... off

Total number of grid points                  ...    52510
Total number of batches                      ...      851
Average number of points per batch           ...       61
Average number of grid points per atom       ...      604
UseSFitting                                  ... on

GRIDX 2
-------
General Integration Accuracy     IntAcc      ... 4.020
Radial Grid Type                 RadialGrid  ... OptM3 with GC (2021)
Angular Grid (max. ang.)         AngularGrid ... 2 (Lebedev-110)
Angular grid pruning method      GridPruning ... 4 (adaptive)
Weight generation scheme         WeightScheme... Becke
Basis function cutoff            BFCut       ... 1.0000e-11
Integration weight cutoff        WCut        ... 1.0000e-14
Angular grids for H and He will be reduced by one unit
Partially contracted basis set               ... on
Rotationally invariant grid construction     ... off

Total number of grid points                  ...   113215
Total number of batches                      ...     1811
Average number of points per batch           ...       62
Average number of grid points per atom       ...     1301
UseSFitting                                  ... on

GRIDX 3
-------
General Integration Accuracy     IntAcc      ... 4.338
Radial Grid Type                 RadialGrid  ... OptM3 with GC (2021)
Angular Grid (max. ang.)         AngularGrid ... 3 (Lebedev-194)
Angular grid pruning method      GridPruning ... 4 (adaptive)
Weight generation scheme         WeightScheme... Becke
Basis function cutoff            BFCut       ... 1.0000e-11
Integration weight cutoff        WCut        ... 1.0000e-14
Angular grids for H and He will be reduced by one unit
Partially contracted basis set               ... on
Rotationally invariant grid construction     ... off

Total number of grid points                  ...   246878
Total number of batches                      ...     3902
Average number of points per batch           ...       63
Average number of grid points per atom       ...     2838
UseSFitting                                  ... on

Time for X-Grid setup             =   15.371 sec


--------------------
CPCM SOLVATION MODEL
--------------------
CPCM parameters:
  Epsilon                                         ...      37.2190
  Refrac                                          ...       1.4305
  Rsolv                                           ...       1.3000
  Surface type                                    ... GAUSSIAN VDW
  Epsilon function type                           ...         CPCM
Solvent:                                     ... N,N-DIMETHYLFORMAMIDE
SMD-CDS solvent descriptors:
  Soln                                       ...    1.4305
  Soln25                                     ...    1.4280
  Sola                                       ...    0.0000
  Solb                                       ...    0.7400
  Solg                                       ...   49.5600
  Solc                                       ...    0.0000
  Solh                                       ...    0.0000
Radii:
 Radius for C  used is    3.4960 Bohr (=   1.8500 Ang.)
 Radius for H  used is    2.2677 Bohr (=   1.2000 Ang.)
 Radius for N  used is    3.5716 Bohr (=   1.8900 Ang.)
Calculating surface                               ...        done! (  0.0s)
GEPOL surface points                              ...         4811
GEPOL Volume                                      ...    4455.8274
GEPOL Surface-area                                ...    2362.1039
Calculating surface distance matrix               ...        done! (  0.2s)
Performing Cholesky decomposition & store         ...        done! (  1.7s)
Overall time for CPCM initialization              ...                 1.9s
--------------
SCF ITERATIONS
--------------
ITER       Energy         Delta-E        Max-DP      RMS-DP      [F,P]     Damp
               ***  Starting incremental Fock matrix formation  ***
  0  -1938.3114888525   0.000000000000 0.05617772  0.00042068  0.1838554 0.7000
  1  -1938.8010088457  -0.489519993121 0.04021439  0.00034850  0.1117561 0.7000
                               ***Turning on DIIS***
  2  -1939.0862807156  -0.285271869892 0.06881475  0.00081042  0.0593999 0.0000
  3  -1939.5994389143  -0.513158198740 0.03487524  0.00023908  0.0386836 0.0000
  4  -1939.6443233309  -0.044884416614 0.01002700  0.00009099  0.0081264 0.0000
                      *** Initiating the SOSCF procedure ***
                           *** Shutting down DIIS ***
                      *** Re-Reading the Fockian *** 
                      *** Removing any level shift *** 
ITER      Energy       Delta-E        Grad      Rot      Max-DP    RMS-DP
  5  -1939.64579361  -0.0014702836  0.001411  0.001411  0.003207  0.000037
               *** Restarting incremental Fock matrix formation ***
  6  -1939.64545179   0.0003418293  0.001183  0.004885  0.022407  0.000230
  7  -1939.64551339  -0.0000616056  0.000293  0.002627  0.008611  0.000089
  8  -1939.64552602  -0.0000126245  0.000166  0.000576  0.007463  0.000076
  9  -1939.64553004  -0.0000040285  0.000032  0.000119  0.001161  0.000012
 10  -1939.64553039  -0.0000003457  0.000019  0.000079  0.000453  0.000005
 11  -1939.64553043  -0.0000000446  0.000006  0.000026  0.000466  0.000003
 12  -1939.64553045  -0.0000000115  0.000003  0.000013  0.000283  0.000001
                  ***Gradient check signals convergence***
              ***Rediagonalizing the Fockian in SOSCF/NRSCF***

               *****************************************************
               *                     SUCCESS                       *
               *           SCF CONVERGED AFTER  13 CYCLES          *
               *****************************************************

Old exchange energy                            =   -178.524992367 Eh
New exchange energy                            =   -178.524825079 Eh
Exchange energy change after final integration =      0.000167288 Eh
Total energy after final integration           =  -1939.645363308 Eh
Final COS-X integration done in                =   269.282 sec

SMD CDS free energy correction energy :                -7.58452     Kcal/mol
Total Energy after SMD CDS correction =             -1939.657450016 Eh

----------------
TOTAL SCF ENERGY
----------------

Total Energy       :        -1939.65745002 Eh          -52780.76254 eV

Components:
Nuclear Repulsion  :         5376.31903250 Eh          146297.07847 eV
Electronic Energy  :        -7315.97648252 Eh         -199077.84101 eV
One Electron Energy:       -13327.00183526 Eh         -362646.15651 eV
Two Electron Energy:         6011.02535274 Eh          163568.31550 eV
Max COSX asymmetry :            0.00000492 Eh               0.00013 eV
CPCM Dielectric    :           -0.04385370 Eh              -1.19332 eV
SMD CDS (Gcds)     :           -0.01208671 Eh              -0.32890 eV

Virial components:
Potential Energy   :        -3873.32760626 Eh         -105398.60253 eV
Kinetic Energy     :         1933.67015624 Eh           52617.83999 eV
Virial Ratio       :            2.00309634


DFT components:
N(Alpha)           :      168.999808884452 electrons
N(Beta)            :      168.999808884452 electrons
N(Total)           :      337.999617768904 electrons
E(X)               :      -96.225041312605 Eh       
E(C)               :       -7.330047196842 Eh       
E(XC)              :     -103.555088509446 Eh       
DFET-embed. en.    :        0.000000000000 Eh       
CPCM Solvation Model Properties:
Surface-charge          :           -0.10522988
Charge-correction       :            0.00048108 Eh               0.01309 eV
Free-energy (cav+disp)  :           -0.01208671 Eh              -0.32890 eV

---------------
SCF CONVERGENCE
---------------

  Last Energy change         ...   -1.5026e-07  Tolerance :   1.0000e-08
  Last MAX-Density change    ...    2.1094e-15  Tolerance :   1.0000e-07
  Last RMS-Density change    ...    1.0493e-17  Tolerance :   5.0000e-09
  Last Orbital Gradient      ...    1.2558e-06  Tolerance :   1.0000e-05
  Last Orbital Rotation      ...    7.2732e-06  Tolerance :   1.0000e-05

             **** THE GBW FILE WAS UPDATED (Me2-Acr_2_M06L_def2TZVP_coords.gbw) ****
             **** DENSITY Me2-Acr_2_M06L_def2TZVP_coords.scfp WAS UPDATED ****
             **** ENERGY FILE WAS UPDATED (Me2-Acr_2_M06L_def2TZVP_coords.en.tmp) ****
             **** THE GBW FILE WAS UPDATED (Me2-Acr_2_M06L_def2TZVP_coords.gbw) ****
             **** DENSITY Me2-Acr_2_M06L_def2TZVP_coords.scfp WAS UPDATED ****
----------------
ORBITAL ENERGIES
----------------

  NO   OCC          E(Eh)            E(eV) 
   0   2.0000     -15.058351      -409.7586 
   1   2.0000     -10.825001      -294.5632 
   2   2.0000     -10.824953      -294.5619 
   3   2.0000     -10.818705      -294.3919 
   4   2.0000     -10.792989      -293.6922 
   5   2.0000     -10.791242      -293.6446 
   6   2.0000     -10.790319      -293.6195 
   7   2.0000     -10.788668      -293.5746 
   8   2.0000     -10.788660      -293.5744 
   9   2.0000     -10.787714      -293.5486 
  10   2.0000     -10.787634      -293.5464 
  11   2.0000     -10.786156      -293.5062 
  12   2.0000     -10.786090      -293.5044 
  13   2.0000     -10.780962      -293.3649 
  14   2.0000     -10.780680      -293.3572 
  15   2.0000     -10.779383      -293.3219 
  16   2.0000     -10.779353      -293.3211 
  17   2.0000     -10.778990      -293.3112 
  18   2.0000     -10.778923      -293.3094 
  19   2.0000     -10.778745      -293.3046 
  20   2.0000     -10.778670      -293.3025 
  21   2.0000     -10.778645      -293.3018 
  22   2.0000     -10.777784      -293.2784 
  23   2.0000     -10.776865      -293.2534 
  24   2.0000     -10.775198      -293.2080 
  25   2.0000     -10.775141      -293.2065 
  26   2.0000     -10.775042      -293.2038 
  27   2.0000     -10.774989      -293.2024 
  28   2.0000     -10.774972      -293.2019 
  29   2.0000     -10.774905      -293.2001 
  30   2.0000     -10.774819      -293.1977 
  31   2.0000     -10.774760      -293.1961 
  32   2.0000     -10.774127      -293.1789 
  33   2.0000     -10.774081      -293.1777 
  34   2.0000     -10.774051      -293.1768 
  35   2.0000     -10.773980      -293.1749 
  36   2.0000     -10.773933      -293.1736 
  37   2.0000     -10.773910      -293.1730 
  38   2.0000     -10.773315      -293.1568 
  39   2.0000     -10.773251      -293.1551 
  40   2.0000     -10.773107      -293.1511 
  41   2.0000     -10.773098      -293.1509 
  42   2.0000     -10.773029      -293.1490 
  43   2.0000     -10.773024      -293.1489 
  44   2.0000     -10.772655      -293.1388 
  45   2.0000     -10.772603      -293.1374 
  46   2.0000     -10.769679      -293.0579 
  47   2.0000     -10.769587      -293.0553 
  48   2.0000     -10.751245      -292.5562 
  49   2.0000     -10.751129      -292.5531 
  50   2.0000      -1.165115       -31.7044 
  51   2.0000      -1.057797       -28.7841 
  52   2.0000      -1.050746       -28.5923 
  53   2.0000      -1.048823       -28.5399 
  54   2.0000      -1.036768       -28.2119 
  55   2.0000      -1.034231       -28.1429 
  56   2.0000      -1.019391       -27.7390 
  57   2.0000      -1.017587       -27.6899 
  58   2.0000      -0.992973       -27.0202 
  59   2.0000      -0.982695       -26.7405 
  60   2.0000      -0.955396       -25.9976 
  61   2.0000      -0.944627       -25.7046 
  62   2.0000      -0.934964       -25.4417 
  63   2.0000      -0.914971       -24.8976 
  64   2.0000      -0.909267       -24.7424 
  65   2.0000      -0.907814       -24.7029 
  66   2.0000      -0.903385       -24.5824 
  67   2.0000      -0.902282       -24.5523 
  68   2.0000      -0.898872       -24.4595 
  69   2.0000      -0.896452       -24.3937 
  70   2.0000      -0.895726       -24.3739 
  71   2.0000      -0.882720       -24.0200 
  72   2.0000      -0.869144       -23.6506 
  73   2.0000      -0.864843       -23.5336 
  74   2.0000      -0.841763       -22.9055 
  75   2.0000      -0.824515       -22.4362 
  76   2.0000      -0.784611       -21.3504 
  77   2.0000      -0.780793       -21.2464 
  78   2.0000      -0.763099       -20.7650 
  79   2.0000      -0.756117       -20.5750 
  80   2.0000      -0.755642       -20.5621 
  81   2.0000      -0.751333       -20.4448 
  82   2.0000      -0.746508       -20.3135 
  83   2.0000      -0.736512       -20.0415 
  84   2.0000      -0.734198       -19.9785 
  85   2.0000      -0.727754       -19.8032 
  86   2.0000      -0.714865       -19.4525 
  87   2.0000      -0.705614       -19.2007 
  88   2.0000      -0.705335       -19.1931 
  89   2.0000      -0.696286       -18.9469 
  90   2.0000      -0.690910       -18.8006 
  91   2.0000      -0.660281       -17.9672 
  92   2.0000      -0.657452       -17.8902 
  93   2.0000      -0.643365       -17.5069 
  94   2.0000      -0.638847       -17.3839 
  95   2.0000      -0.637282       -17.3413 
  96   2.0000      -0.630972       -17.1696 
  97   2.0000      -0.610554       -16.6140 
  98   2.0000      -0.604880       -16.4596 
  99   2.0000      -0.602235       -16.3876 
 100   2.0000      -0.592268       -16.1164 
 101   2.0000      -0.582560       -15.8522 
 102   2.0000      -0.577765       -15.7218 
 103   2.0000      -0.576646       -15.6913 
 104   2.0000      -0.568772       -15.4771 
 105   2.0000      -0.558608       -15.2005 
 106   2.0000      -0.556703       -15.1487 
 107   2.0000      -0.554727       -15.0949 
 108   2.0000      -0.542462       -14.7611 
 109   2.0000      -0.541588       -14.7374 
 110   2.0000      -0.539275       -14.6744 
 111   2.0000      -0.537456       -14.6249 
 112   2.0000      -0.532493       -14.4899 
 113   2.0000      -0.532059       -14.4781 
 114   2.0000      -0.531272       -14.4566 
 115   2.0000      -0.529258       -14.4019 
 116   2.0000      -0.526940       -14.3388 
 117   2.0000      -0.522167       -14.2089 
 118   2.0000      -0.520525       -14.1642 
 119   2.0000      -0.518824       -14.1179 
 120   2.0000      -0.517201       -14.0738 
 121   2.0000      -0.513508       -13.9733 
 122   2.0000      -0.512024       -13.9329 
 123   2.0000      -0.506507       -13.7828 
 124   2.0000      -0.506275       -13.7765 
 125   2.0000      -0.498436       -13.5631 
 126   2.0000      -0.490108       -13.3365 
 127   2.0000      -0.484985       -13.1971 
 128   2.0000      -0.481686       -13.1073 
 129   2.0000      -0.480222       -13.0675 
 130   2.0000      -0.478620       -13.0239 
 131   2.0000      -0.472392       -12.8544 
 132   2.0000      -0.471958       -12.8426 
 133   2.0000      -0.470853       -12.8126 
 134   2.0000      -0.465862       -12.6768 
 135   2.0000      -0.454953       -12.3799 
 136   2.0000      -0.453308       -12.3351 
 137   2.0000      -0.448957       -12.2167 
 138   2.0000      -0.448671       -12.2090 
 139   2.0000      -0.444473       -12.0947 
 140   2.0000      -0.437892       -11.9157 
 141   2.0000      -0.433993       -11.8095 
 142   2.0000      -0.433057       -11.7841 
 143   2.0000      -0.431932       -11.7535 
 144   2.0000      -0.426403       -11.6030 
 145   2.0000      -0.426342       -11.6013 
 146   2.0000      -0.424364       -11.5475 
 147   2.0000      -0.421428       -11.4676 
 148   2.0000      -0.413473       -11.2512 
 149   2.0000      -0.412949       -11.2369 
 150   2.0000      -0.408731       -11.1221 
 151   2.0000      -0.404075       -10.9954 
 152   2.0000      -0.399157       -10.8616 
 153   2.0000      -0.391394       -10.6504 
 154   2.0000      -0.357552        -9.7295 
 155   2.0000      -0.351478        -9.5642 
 156   2.0000      -0.339865        -9.2482 
 157   2.0000      -0.312026        -8.4907 
 158   2.0000      -0.311311        -8.4712 
 159   2.0000      -0.310890        -8.4597 
 160   2.0000      -0.308414        -8.3924 
 161   2.0000      -0.308322        -8.3899 
 162   2.0000      -0.305206        -8.3051 
 163   2.0000      -0.300387        -8.1739 
 164   2.0000      -0.297634        -8.0990 
 165   2.0000      -0.280371        -7.6293 
 166   2.0000      -0.268486        -7.3059 
 167   2.0000      -0.255764        -6.9597 
 168   2.0000      -0.222745        -6.0612 
 169   0.0000       0.010829         0.2947 
 170   0.0000       0.014990         0.4079 
 171   0.0000       0.020734         0.5642 
 172   0.0000       0.041621         1.1326 
 173   0.0000       0.046244         1.2584 
 174   0.0000       0.051455         1.4002 
 175   0.0000       0.057671         1.5693 
 176   0.0000       0.062654         1.7049 
 177   0.0000       0.065259         1.7758 
 178   0.0000       0.070479         1.9178 
 179   0.0000       0.077267         2.1025 
 180   0.0000       0.080362         2.1868 
 181   0.0000       0.093472         2.5435 
 182   0.0000       0.095196         2.5904 
 183   0.0000       0.113716         3.0944 
 184   0.0000       0.116328         3.1655 
 185   0.0000       0.117394         3.1944 
 186   0.0000       0.118829         3.2335 
 187   0.0000       0.120910         3.2901 
 188   0.0000       0.123444         3.3591 
 189   0.0000       0.125471         3.4142 
 190   0.0000       0.126698         3.4476 
 191   0.0000       0.129213         3.5161 
 192   0.0000       0.131749         3.5851 
 193   0.0000       0.134697         3.6653 
 194   0.0000       0.141316         3.8454 
 195   0.0000       0.143819         3.9135 
 196   0.0000       0.145654         3.9634 
 197   0.0000       0.147012         4.0004 
 198   0.0000       0.152095         4.1387 
 199   0.0000       0.152544         4.1509 
 200   0.0000       0.159717         4.3461 
 201   0.0000       0.161500         4.3946 
 202   0.0000       0.163846         4.4585 
 203   0.0000       0.164768         4.4836 
 204   0.0000       0.171978         4.6798 
 205   0.0000       0.173073         4.7096 
 206   0.0000       0.174307         4.7431 
 207   0.0000       0.174977         4.7614 
 208   0.0000       0.176826         4.8117 
 209   0.0000       0.178639         4.8610 
 210   0.0000       0.180797         4.9197 
 211   0.0000       0.183512         4.9936 
[...]
   167a -> 174a  :     0.019617 
   168a -> 173a  :     0.104329 
   168a -> 175a  :     0.042639 
   168a -> 178a  :     0.031490 

STATE 19:  E=   0.184441 au      5.019 eV    40480.2 cm**-1 <S**2> =   0.000000
   157a -> 171a  :     0.013478 
   157a -> 173a  :     0.011436 
   161a -> 169a  :     0.011056 
   162a -> 171a  :     0.016647 
   162a -> 173a  :     0.014361 
   163a -> 172a  :     0.021771 
   163a -> 179a  :     0.018482 
   165a -> 169a  :     0.062161 
   167a -> 171a  :     0.071284 
   167a -> 173a  :     0.030681 
   167a -> 180a  :     0.017079 
   168a -> 169a  :     0.149276 
   168a -> 172a  :     0.011675 
   168a -> 176a  :     0.281889 
   168a -> 177a  :     0.026872 
   168a -> 183a  :     0.048708 

STATE 20:  E=   0.208762 au      5.681 eV    45817.9 cm**-1 <S**2> =   0.000000
   154a -> 171a  :     0.011727 
   156a -> 169a  :     0.063121 
   157a -> 171a  :     0.069917 
   157a -> 173a  :     0.011172 
   158a -> 169a  :     0.031213 
   158a -> 174a  :     0.043500 
   159a -> 173a  :     0.016098 
   159a -> 175a  :     0.014482 
   160a -> 169a  :     0.014632 
   160a -> 171a  :     0.021776 
   160a -> 175a  :     0.016272 
   160a -> 178a  :     0.019322 
   161a -> 169a  :     0.055920 
   161a -> 177a  :     0.031673 
   162a -> 171a  :     0.039479 
   165a -> 176a  :     0.051084 
   165a -> 177a  :     0.015374 
   167a -> 171a  :     0.039840 
   167a -> 175a  :     0.022475 
   167a -> 180a  :     0.093188 
   168a -> 169a  :     0.017252 
   168a -> 172a  :     0.010848 
   168a -> 174a  :     0.047889 
   168a -> 179a  :     0.026799 
   168a -> 183a  :     0.029676 

STATE 21:  E=   0.187633 au      5.106 eV    41180.6 cm**-1 <S**2> =   0.000000
   155a -> 170a  :     0.012141 
   157a -> 170a  :     0.042085 
   159a -> 170a  :     0.044315 
   164a -> 170a  :     0.055925 
   164a -> 172a  :     0.012247 
   166a -> 169a  :     0.022841 
   166a -> 170a  :     0.023319 
   166a -> 172a  :     0.027066 
   167a -> 169a  :     0.014689 
   167a -> 170a  :     0.662292 

STATE 22:  E=   0.197969 au      5.387 eV    43449.1 cm**-1 <S**2> =   0.000000
   156a -> 171a  :     0.012278 
   157a -> 169a  :     0.039389 
   157a -> 176a  :     0.017186 
   160a -> 169a  :     0.080125 
   160a -> 171a  :     0.018155 
   161a -> 169a  :     0.021825 
   161a -> 171a  :     0.051045 
   162a -> 169a  :     0.098307 
   162a -> 176a  :     0.017294 
   163a -> 171a  :     0.050422 
   163a -> 180a  :     0.025102 
   164a -> 169a  :     0.043686 
   166a -> 169a  :     0.145600 
   166a -> 172a  :     0.012179 
   166a -> 176a  :     0.025274 
   167a -> 172a  :     0.017885 
   167a -> 174a  :     0.022976 
   168a -> 173a  :     0.011175 
   168a -> 175a  :     0.087757 

STATE 23:  E=   0.202467 au      5.509 eV    44436.4 cm**-1 <S**2> =   0.000000
   156a -> 169a  :     0.023726 
   157a -> 173a  :     0.012578 
   157a -> 180a  :     0.014697 
   158a -> 174a  :     0.021368 
   160a -> 169a  :     0.017375 
   160a -> 171a  :     0.081574 
   160a -> 178a  :     0.010220 
   161a -> 169a  :     0.082317 
   161a -> 171a  :     0.028161 
   162a -> 171a  :     0.031052 
   163a -> 169a  :     0.131499 
   163a -> 176a  :     0.043799 
   165a -> 169a  :     0.027948 
   165a -> 174a  :     0.015374 
   167a -> 171a  :     0.010738 
   167a -> 173a  :     0.028892 
   168a -> 177a  :     0.098720 
   168a -> 179a  :     0.102980 
   168a -> 183a  :     0.026826 

STATE 24:  E=   0.222173 au      6.046 eV    48761.3 cm**-1 <S**2> =   0.000000
   154a -> 169a  :     0.027821 
   156a -> 171a  :     0.042984 
   157a -> 169a  :     0.015448 
   157a -> 172a  :     0.010853 
   157a -> 174a  :     0.027910 
   158a -> 173a  :     0.042446 
   158a -> 175a  :     0.018480 
   159a -> 174a  :     0.022349 
   159a -> 177a  :     0.017313 
   160a -> 177a  :     0.028613 
   161a -> 175a  :     0.028115 
   161a -> 178a  :     0.021037 
   162a -> 172a  :     0.018213 
   162a -> 176a  :     0.028508 
   162a -> 179a  :     0.028533 
   163a -> 173a  :     0.114529 
   163a -> 175a  :     0.060701 
   163a -> 178a  :     0.017954 
   164a -> 169a  :     0.012021 
   164a -> 172a  :     0.052578 
   165a -> 173a  :     0.013834 
   165a -> 180a  :     0.046702 
   167a -> 183a  :     0.029031 
   168a -> 188a  :     0.011342 
   168a -> 190a  :     0.028129 

STATE 25:  E=   0.194128 au      5.283 eV    42606.3 cm**-1 <S**2> =   0.000000
   160a -> 169a  :     0.011141 
   162a -> 169a  :     0.037635 
   163a -> 171a  :     0.010584 
   164a -> 169a  :     0.011083 
   164a -> 172a  :     0.025464 
   166a -> 169a  :     0.548058 
   166a -> 170a  :     0.016216 
   166a -> 176a  :     0.070002 
   166a -> 181a  :     0.027506 
   167a -> 172a  :     0.030799 
   168a -> 173a  :     0.012116 
   168a -> 180a  :     0.014117 

STATE 26:  E=   0.209389 au      5.698 eV    45955.6 cm**-1 <S**2> =   0.000000
   164a -> 172a  :     0.041504 
   165a -> 174a  :     0.016341 
   165a -> 182a  :     0.023564 
   167a -> 173a  :     0.025605 
   168a -> 177a  :     0.028884 
   168a -> 179a  :     0.013848 
   168a -> 182a  :     0.504171 
   168a -> 184a  :     0.030470 
   168a -> 185a  :     0.012483 
   168a -> 191a  :     0.031704 

STATE 27:  E=   0.216969 au      5.904 eV    47619.2 cm**-1 <S**2> =   0.000000
   157a -> 172a  :     0.013144 
   158a -> 173a  :     0.017763 
   158a -> 175a  :     0.010303 
   158a -> 178a  :     0.010780 
   159a -> 169a  :     0.016038 
   159a -> 174a  :     0.031905 
   160a -> 169a  :     0.013457 
   161a -> 169a  :     0.010295 
   161a -> 171a  :     0.018655 
   162a -> 169a  :     0.019936 
   162a -> 177a  :     0.013299 
   163a -> 171a  :     0.020050 
   163a -> 173a  :     0.018796 
   164a -> 172a  :     0.299540 
   164a -> 174a  :     0.027876 
   165a -> 175a  :     0.011734 
   166a -> 169a  :     0.014976 
   166a -> 170a  :     0.028639 
   166a -> 172a  :     0.011506 
   166a -> 181a  :     0.010214 
   167a -> 169a  :     0.013622 
   167a -> 172a  :     0.025550 
   167a -> 177a  :     0.011693 
   168a -> 175a  :     0.020659 
   168a -> 182a  :     0.045258 

STATE 28:  E=   0.212418 au      5.780 eV    46620.3 cm**-1 <S**2> =   0.000000
   157a -> 173a  :     0.019031 
   157a -> 175a  :     0.011815 
   157a -> 178a  :     0.014273 
   159a -> 171a  :     0.020109 
   160a -> 175a  :     0.016880 
   161a -> 174a  :     0.011501 
   162a -> 173a  :     0.132016 
   162a -> 175a  :     0.036661 
   163a -> 172a  :     0.096120 
   163a -> 174a  :     0.018252 
   163a -> 177a  :     0.034534 
   163a -> 179a  :     0.065929 
   164a -> 173a  :     0.038285 
   164a -> 175a  :     0.012777 
   165a -> 169a  :     0.056570 
   166a -> 173a  :     0.012060 
   168a -> 176a  :     0.122563 
   168a -> 182a  :     0.039101 

STATE 29:  E=   0.208123 au      5.663 eV    45677.8 cm**-1 <S**2> =   0.000000
   157a -> 169a  :     0.075195 
   158a -> 169a  :     0.010257 
   158a -> 171a  :     0.117339 
   159a -> 169a  :     0.070793 
   160a -> 169a  :     0.025507 
   160a -> 171a  :     0.022516 
   160a -> 176a  :     0.024061 
   161a -> 171a  :     0.020306 
   162a -> 169a  :     0.018120 
   164a -> 172a  :     0.020515 
   165a -> 175a  :     0.039579 
   167a -> 174a  :     0.014030 
   167a -> 176a  :     0.011502 
   167a -> 177a  :     0.068987 
   168a -> 177a  :     0.010085 
   168a -> 178a  :     0.251116 
   168a -> 179a  :     0.011748 

STATE 30:  E=   0.207440 au      5.645 eV    45527.9 cm**-1 <S**2> =   0.000000
   157a -> 171a  :     0.032702 
   158a -> 169a  :     0.124998 
   159a -> 171a  :     0.080697 
   160a -> 171a  :     0.014974 
   161a -> 169a  :     0.020303 
   161a -> 171a  :     0.011725 
   161a -> 176a  :     0.014868 
   162a -> 173a  :     0.021109 
   165a -> 177a  :     0.024375 
   167a -> 173a  :     0.024869 
   167a -> 175a  :     0.080636 
   167a -> 178a  :     0.037743 
   168a -> 174a  :     0.016300 
   168a -> 176a  :     0.010125 
   168a -> 177a  :     0.054186 
   168a -> 178a  :     0.013097 
   168a -> 179a  :     0.163263 
   168a -> 181a  :     0.013359 
   168a -> 182a  :     0.064725 


-------------------------
TD-DFT-EXCITATION SPECTRA
-------------------------

Center of mass = (  0.0000,  0.0369, -0.0082)
Calculating the Dipole integrals                  ... done
Transforming integrals                            ... done
Calculating the Linear Momentum integrals         ... done
Transforming integrals                            ... done
Calculating angular momentum integrals            ... done
Transforming integrals                            ... done

-----------------------------------------------------------------------------
         ABSORPTION SPECTRUM VIA TRANSITION ELECTRIC DIPOLE MOMENTS
-----------------------------------------------------------------------------
State   Energy    Wavelength  fosc         T2        TX        TY        TZ  
        (cm-1)      (nm)                 (au**2)    (au)      (au)      (au) 
-----------------------------------------------------------------------------
   1   28196.1    354.7   1.890303104  22.07079  -4.69781   0.02917  -0.02229
   2   32518.5    307.5   0.611319271   6.18889   0.04016   2.47706  -0.22678
   3   27278.5    366.6   0.001188975   0.01435  -0.03948  -0.11285   0.00742
   4   32903.8    303.9   0.213709654   2.13823  -0.03526  -1.45604   0.13009
   5   35852.9    278.9   0.003058230   0.02808  -0.01098   0.16714   0.00490
   6   32948.3    303.5   0.122941987   1.22841  -1.10629   0.03814  -0.05541
   7   34905.2    286.5   0.000267065   0.00252  -0.01720  -0.02081  -0.04231
   8   37776.3    264.7   0.240550486   2.09634  -1.44778  -0.01632   0.00059
   9   36432.1    274.5   0.016661691   0.15056   0.00883  -0.38443   0.05190
  10   36336.8    275.2   0.000087146   0.00079  -0.01496   0.00323   0.02357
  11   39006.6    256.4   0.005954409   0.05025   0.00134   0.09037   0.20515
  12   39084.5    255.9   0.000044908   0.00038   0.00288  -0.00742   0.01775
  13   39350.6    254.1   0.001122132   0.00939  -0.00098   0.06822   0.06879
  14   36168.0    276.5   0.001839152   0.01674  -0.12853   0.00275  -0.01461
  15   40300.5    248.1   0.000589025   0.00481  -0.00669  -0.01021  -0.06828
  16   43480.3    230.0   1.034156123   7.83013  -0.01834   0.84085   2.66885
  17   42934.9    232.9   0.070542478   0.54090   0.39686   0.14315   0.60242
  18   42777.4    233.8   0.009565667   0.07362  -0.06008  -0.26376   0.02086
  19   40480.2    247.0   0.091276547   0.74232   0.85784  -0.03409  -0.07259
  20   45817.9    218.3   0.015056793   0.10819   0.24048  -0.06370  -0.21516
  21   41180.6    242.8   0.170055441   1.35948  -0.02065   0.44429   1.07780
  22   43449.1    230.2   0.140252947   1.06269  -0.00095  -1.01005  -0.20615
  23   44436.4    225.0   0.203109057   1.50476  -1.19192  -0.03707  -0.28760
  24   48761.3    205.1   0.073471345   0.49604  -0.01985  -0.55432   0.43403
  25   42606.3    234.7   0.045559442   0.35203   0.22381   0.36567   0.41015
  26   45955.6    217.6   0.180762116   1.29492  -0.37265   0.56175  -0.91678
  27   47619.2    210.0   0.613857182   4.24386   0.32881  -1.98836   0.42681
  28   46620.3    214.5   1.452980405  10.26030   3.16197   0.23185  -0.45660
  29   45677.8    218.9   0.668933895   4.82118   0.32138  -2.16928  -0.11003
  30   45527.9    219.6   0.313128592   2.26423  -0.13153  -0.43651   1.43401

-----------------------------------------------------------------------------
         ABSORPTION SPECTRUM VIA TRANSITION VELOCITY DIPOLE MOMENTS
-----------------------------------------------------------------------------
State   Energy    Wavelength   fosc        P2         PX        PY        PZ  
        (cm-1)      (nm)                 (au**2)     (au)      (au)      (au) 
-----------------------------------------------------------------------------
   1   28196.1    354.7   2.291955152   0.44167   0.66457  -0.00412   0.00309
   2   32518.5    307.5   0.690557765   0.15348  -0.00625  -0.39007   0.03582
   3   27278.5    366.6   0.002008851   0.00037   0.00697   0.01801  -0.00117
   4   32903.8    303.9   0.271709771   0.06110   0.00596   0.24612  -0.02218
   5   35852.9    278.9   0.003712345   0.00091   0.00184  -0.03010  -0.00041
   6   32948.3    303.5   0.162985292   0.03670   0.19121  -0.00653   0.00982
   7   34905.2    286.5   0.000243236   0.00006   0.00304   0.00328   0.00617
   8   37776.3    264.7   0.272027741   0.07023   0.26500   0.00297  -0.00021
   9   36432.1    274.5   0.021224292   0.00528  -0.00161   0.07203  -0.00969
  10   36336.8    275.2   0.000091112   0.00002   0.00167  -0.00057  -0.00442
  11   39006.6    256.4   0.007388077   0.00197  -0.00022  -0.01820  -0.04048
  12   39084.5    255.9   0.000080059   0.00002   0.00005   0.00139  -0.00441
  13   39350.6    254.1   0.001414711   0.00038   0.00025  -0.01386  -0.01372
  14   36168.0    276.5   0.002408218   0.00060   0.02422  -0.00058   0.00286
  15   40300.5    248.1   0.000757570   0.00021   0.00137   0.00177   0.01427
  16   43480.3    230.0   1.209887275   0.35954   0.00385  -0.18033  -0.57184
  17   42934.9    232.9   0.085497358   0.02509  -0.08541  -0.03094  -0.12975
  18   42777.4    233.8   0.011950345   0.00349   0.01305   0.05747  -0.00459
  19   40480.2    247.0   0.127780941   0.03535  -0.18720   0.00749   0.01587
  20   45817.9    218.3   0.016700964   0.00523  -0.05331   0.01391   0.04684
  21   41180.6    242.8   0.236364386   0.06652   0.00457  -0.09871  -0.23825
  22   43449.1    230.2   0.180269003   0.05353   0.00028   0.22667   0.04637
  23   44436.4    225.0   0.251181028   0.07628   0.26818   0.00835   0.06551
  24   48761.3    205.1   0.075485960   0.02516   0.00454   0.12478  -0.09781
  25   42606.3    234.7   0.063798223   0.01858  -0.05104  -0.08481  -0.09370
  26   45955.6    217.6   0.215053480   0.06754   0.08493  -0.12915   0.20893
  27   47619.2    210.0   0.692560717   0.22540  -0.07577   0.45824  -0.09834
  28   46620.3    214.5   1.706031021   0.54359  -0.72782  -0.05340   0.10494
  29   45677.8    218.9   0.836312222   0.26108  -0.07475   0.50479   0.02621
  30   45527.9    219.6   0.400784438   0.12471   0.03090   0.10149  -0.33683

-------------------------------------------------------------------
                             CD SPECTRUM
-------------------------------------------------------------------
State  Energy     Wavelength     R         MX        MY        MZ   
       (cm-1)       (nm)     (1e40*cgs)   (au)      (au)      (au)  
-------------------------------------------------------------------
   1   28196.1    354.7     77.98926  -0.03972   0.40464   1.48010
   2   32518.5    307.5     41.03219   0.14462   0.03017  -0.02860
   3   27278.5    366.6      8.92078  -0.00644  -0.16730  -0.02856
   4   32903.8    303.9    -26.55571  -0.00837   0.03882  -0.00071
   5   35852.9    278.9      1.21511  -0.20697   0.00175   0.00248
   6   32948.3    303.5      5.56596  -0.00744   0.05182  -0.02881
   7   34905.2    286.5      0.41510  -0.05104   0.00047  -0.00029
   8   37776.3    264.7     13.86124  -0.02128   0.09315   0.19029
   9   36432.1    274.5    -32.10914  -0.01636   0.17397  -0.02087
  10   36336.8    275.2      4.13770  -0.08850   0.04240   0.31044
  11   39006.6    256.4     -3.37319   0.24049  -0.13032   0.02096
  12   39084.5    255.9     -2.41104  -0.14398  -0.07582  -0.29649
  13   39350.6    254.1      4.28013   0.06040   0.20662  -0.07208
  14   36168.0    276.5     -2.71128   0.02384   0.05035   0.19342
  15   40300.5    248.1      0.17441  -0.05829  -0.01553   0.00262
  16   43480.3    230.0    188.70877   3.10702   0.01640   0.16616
  17   42934.9    232.9    -18.73934   0.57893  -0.06998  -0.43073
  18   42777.4    233.8    -26.29502   0.00235   0.21162   0.00876
  19   40480.2    247.0    -52.38447  -0.12609  -0.03337   0.05624
  20   45817.9    218.3    -119.27120  -0.35398   0.09348   0.75247
  21   41180.6    242.8     20.27594   0.91693   0.04889   0.03732
  22   43449.1    230.2    -394.26166  -0.57725   0.84915  -0.10120
  23   44436.4    225.0    -259.59650   0.47755   0.12638  -0.08086
  24   48761.3    205.1     55.80709   0.55547  -0.18997   0.05551
  25   42606.3    234.7     86.80719   0.57378   0.39532  -0.21662
  26   45955.6    217.6    -432.26054   0.10846   0.33065   1.15862
  27   47619.2    210.0    -1125.92384   0.62158   1.32080   0.07878
  28   46620.3    214.5    267.37165   0.06298  -0.38557  -1.00172
  29   45677.8    218.9    3277.93736   0.37713  -3.22443   1.48168
  30   45527.9    219.6    -2072.20888  -1.04768  -1.34400  -3.57031

Total run time:   479557.815 sec

           *** ORCA-CIS/TD-DFT FINISHED WITHOUT ERROR ***

Maximum memory used throughout the entire CIS-calculation: 13225.2 MB

-----------------------
CIS/TD-DFT TOTAL ENERGY
-----------------------

    E(SCF)  =  -1939.657450016 Eh
    DE(CIS) =      0.128470890 Eh (Root  1)
    ----------------------------- ---------
    E(tot)  =  -1939.528979126 Eh


-------------------------   --------------------
FINAL SINGLE POINT ENERGY     -1939.528979126415
-------------------------   --------------------


                            ***************************************
                            *     ORCA property calculations      *
                            ***************************************


  WARNING: The energy has been calculated at the MP2 level but the densities
           used in the property calculations are still SCF densities
           MP2 response densities have not been calculated 
           use %mp2 Density relaxed end
           or  %mp2 Density unrelaxed end

                                    ---------------------
                                    Active property flags
                                    ---------------------
   (+) Dipole Moment


------------------------------------------------------------------------------
                       ORCA ELECTRIC PROPERTIES CALCULATION
------------------------------------------------------------------------------

Dipole Moment Calculation                       ... on
Quadrupole Moment Calculation                   ... off
Polarizability Calculation                      ... off
GBWName                                         ... Me2-Acr_2_M06L_def2TZVP_coords.gbw
Electron density                                ... Me2-Acr_2_M06L_def2TZVP_coords.scfp
The origin for moment calculation is the CENTER OF MASS  = ( 0.000001,  0.036926 -0.008161)

-------------
DIPOLE MOMENT
-------------
                                X             Y             Z
Electronic contribution:      0.00177      13.14566      -2.77452
Nuclear contribution   :     -0.00023     -12.48099       2.75842
                        -----------------------------------------
Total Dipole Moment    :      0.00154       0.66467      -0.01610
                        -----------------------------------------
Magnitude (a.u.)       :      0.66486
Magnitude (Debye)      :      1.68995



--------------------
Rotational spectrum 
--------------------
 
Rotational constants in cm-1:     0.002521     0.000716     0.000583 
Rotational constants in MHz :    75.585985    21.461045    17.478918 

 Dipole components along the rotational axes: 
x,y,z [a.u.] :     0.001571    -0.664664    -0.016212 
x,y,z [Debye]:     0.003993    -1.689441    -0.041208 

 

Timings for individual modules:

Sum of individual times         ...   494364.656 sec (=8239.411 min)
GTO integral calculation        ...        8.560 sec (=   0.143 min)   0.0 %
SCF iterations                  ...     2114.974 sec (=  35.250 min)   0.4 %
MP2 module                      ...    12680.998 sec (= 211.350 min)   2.6 %
CIS module                      ...   479560.123 sec (=7992.669 min)  97.0 %
                             ****ORCA TERMINATED NORMALLY****
TOTAL RUN TIME: 5 days 17 hours 20 minutes 31 seconds 986 msec
