 Entering Gaussian System, Link 0=g09
 Input=/home/png4rjv/fotokatalizis/benchmark/OPCs/Me2-Acr_2_M06_def2TZVP.gjf
 Output=/home/png4rjv/fotokatalizis/benchmark/OPCs/Me2-Acr_2_M06_def2TZVP.log
 Initial command:
 /opt/nce/packages/global/g09/l1.exe "/home/png4rjv/fotokatalizis/benchmark/OPCs/Me2-Acr_2_M06_def2TZVP/Gau-25333.inp" -scrdir="/home/png4rjv/fotokatalizis/benchmark/OPCs/Me2-Acr_2_M06_def2TZVP/"
 Default is to use a total of  12 processors:
                               12 via shared-memory
                                1 via Linda
 Entering Link 1 = /opt/nce/packages/global/g09/l1.exe PID=     25334.
  
 Copyright (c) 1988,1990,1992,1993,1995,1998,2003,2009,2015,
            Gaussian, Inc.  All Rights Reserved.
  
 This is part of the Gaussian(R) 09 program.  It is based on
 the Gaussian(R) 03 system (copyright 2003, Gaussian, Inc.),
 the Gaussian(R) 98 system (copyright 1998, Gaussian, Inc.),
 the Gaussian(R) 94 system (copyright 1995, Gaussian, Inc.),
 the Gaussian 92(TM) system (copyright 1992, Gaussian, Inc.),
 the Gaussian 90(TM) system (copyright 1990, Gaussian, Inc.),
 the Gaussian 88(TM) system (copyright 1988, Gaussian, Inc.),
 the Gaussian 86(TM) system (copyright 1986, Carnegie Mellon
 University), and the Gaussian 82(TM) system (copyright 1983,
 Carnegie Mellon University). Gaussian is a federally registered
 trademark of Gaussian, Inc.
  
 This software contains proprietary and confidential information,
 including trade secrets, belonging to Gaussian, Inc.
  
 This software is provided under written license and may be
 used, copied, transmitted, or stored only in accord with that
 written license.
  
 The following legend is applicable only to US Government
 contracts under FAR:
  
                    RESTRICTED RIGHTS LEGEND
  
 Use, reproduction and disclosure by the US Government is
 subject to restrictions as set forth in subparagraphs (a)
 and (c) of the Commercial Computer Software - Restricted
 Rights clause in FAR 52.227-19.
  
 Gaussian, Inc.
 340 Quinnipiac St., Bldg. 40, Wallingford CT 06492
  
  
 ---------------------------------------------------------------
 Warning -- This program may not be used in any manner that
 competes with the business of Gaussian, Inc. or will provide
 assistance to any competitor of Gaussian, Inc.  The licensee
 of this program is prohibited from giving any competitor of
 Gaussian, Inc. access to this program.  By using this program,
 the user acknowledges that Gaussian, Inc. is engaged in the
 business of creating and licensing software in the field of
 computational chemistry and represents and warrants to the
 licensee that it is not a competitor of Gaussian, Inc. and that
 it will not use this program in any manner prohibited above.
 ---------------------------------------------------------------
  

 Cite this work as:
 Gaussian 09, Revision E.01,
 M. J. Frisch, G. W. Trucks, H. B. Schlegel, G. E. Scuseria, 
 M. A. Robb, J. R. Cheeseman, G. Scalmani, V. Barone, B. Mennucci, 
 G. A. Petersson, H. Nakatsuji, M. Caricato, X. Li, H. P. Hratchian, 
 A. F. Izmaylov, J. Bloino, G. Zheng, J. L. Sonnenberg, M. Hada, 
 M. Ehara, K. Toyota, R. Fukuda, J. Hasegawa, M. Ishida, T. Nakajima, 
 Y. Honda, O. Kitao, H. Nakai, T. Vreven, J. A. Montgomery, Jr., 
 J. E. Peralta, F. Ogliaro, M. Bearpark, J. J. Heyd, E. Brothers, 
 K. N. Kudin, V. N. Staroverov, T. Keith, R. Kobayashi, J. Normand, 
 K. Raghavachari, A. Rendell, J. C. Burant, S. S. Iyengar, J. Tomasi, 
 M. Cossi, N. Rega, J. M. Millam, M. Klene, J. E. Knox, J. B. Cross, 
 V. Bakken, C. Adamo, J. Jaramillo, R. Gomperts, R. E. Stratmann, 
 O. Yazyev, A. J. Austin, R. Cammi, C. Pomelli, J. W. Ochterski, 
 R. L. Martin, K. Morokuma, V. G. Zakrzewski, G. A. Voth, 
 P. Salvador, J. J. Dannenberg, S. Dapprich, A. D. Daniels, 
 O. Farkas, J. B. Foresman, J. V. Ortiz, J. Cioslowski, 
 and D. J. Fox, Gaussian, Inc., Wallingford CT, 2013.
 
 ******************************************
 Gaussian 09:  ES64L-G09RevE.01 30-Nov-2015
                20-Feb-2021 
 ******************************************
 %chk=cp.chk
 Default route:  MaxDisk=500GB
 ----------------------------------------------------------------------
 #p m06/def2TZVP opt freq=noraman nosymm int=ultrafine scrf=(SMD,solven
 t=n,n-DiMethylFormamide)
 ----------------------------------------------------------------------
 1/14=-1,18=20,19=15,26=4,38=1/1,3;
 2/9=110,12=2,15=1,17=6,18=5,40=1/2;
 3/5=44,7=101,11=2,16=1,25=1,30=1,70=32201,71=1,72=148,74=-54,75=-5/1,2,3;
 4//1;
 5/5=2,38=5,53=148/2;
 6/7=2,8=2,9=2,10=2,28=1/1;
 7/30=1/1,2,3,16;
 1/14=-1,18=20,19=15,26=4/3(2);
 2/9=110,15=1/2;
 99//99;
 2/9=110,15=1/2;
 3/5=44,7=101,11=2,16=1,25=1,30=1,70=32205,71=1,72=148,74=-54,75=-5/1,2,3;
 4/5=5,16=3,69=1/1;
 5/5=2,38=5,53=148/2;
 7/30=1/1,2,3,16;
 1/14=-1,18=20,19=15,26=4/3(-5);
 2/9=110,15=1/2;
 6/7=2,8=2,9=2,10=2,19=2,28=1/1;
 99/9=1/99;
 Leave Link    1 at Sat Feb 20 05:14:27 2021, MaxMem=           0 cpu:         1.0
 (Enter /opt/nce/packages/global/g09/l101.exe)
 -----
 Title
 -----
 Symbolic Z-matrix:
 Charge =  0 Multiplicity = 1
 C                     3.65747   1.48426  -0.45366 
 C                     2.4332    2.12677  -0.57148 
 C                     1.22329   1.40427  -0.52127 
 C                     1.26521   0.00553  -0.34127 
 C                     2.51662  -0.60811  -0.22825 
 C                     3.73113   0.09217  -0.27846 
 C                     0.00043  -0.85757  -0.30158 
 C                    -1.2646    0.00458  -0.35386 
 C                    -1.22157   1.4047   -0.52241 
 C                    -2.43086   2.12863  -0.56577 
 H                    -2.40486   3.20862  -0.70042 
 C                    -3.65559   1.48633  -0.45181 
 C                    -3.73052   0.09231  -0.2936 
 C                    -2.5166   -0.60944  -0.24981 
 H                     2.40737   3.20823  -0.69373 
 H                     2.55288  -1.69295  -0.12273 
 H                    -4.57032   2.07883  -0.51441 
 N                     0.00106   2.07698  -0.64228 
 C                     0.00135   3.49964  -0.79202 
 C                     0.00156   4.32369   0.37429 
 C                     0.00124   4.0598   -2.05218 
 C                     0.00197   3.78094   1.68748 
 C                     0.00155   5.74799   0.20619 
 C                     0.00125   5.46627  -2.21314 
 H                     0.00088   3.40045  -2.92196 
 C                     0.00235   4.61131   2.78775 
 H                     0.00218   2.69729   1.80979 
 C                     0.00184   6.57375   1.36437 
 C                     0.00137   6.29044  -1.10845 
 H                     0.00101   5.89239  -3.21873 
 C                     0.00224   6.01969   2.62624 
 H                     0.00294   4.18318   3.79275 
 H                     0.00188   7.65899   1.23466 
 H                     0.00132   7.37674  -1.22804 
 H                     0.00267   6.66488   3.50784 
 H                    -2.55236  -1.68965  -0.10471 
 H                     4.57106   2.08157  -0.47084 
 C                     0.00519  -1.80741  -1.52476 
 H                     0.00807  -1.2297   -2.46094 
 H                     0.89535  -2.45441  -1.51923 
 H                    -0.88543  -2.45397  -1.52426 
 C                    -0.00394  -1.69123   1.00224 
 H                     0.88343  -2.3377    1.06322 
 H                    -0.0086   -1.03147   1.8826 
 H                    -0.88892  -2.34138   1.05724 
 C                     5.02893  -0.60767  -0.1502 
 C                     5.16934  -1.74862   0.66155 
 C                     6.17313  -0.15786  -0.83472 
 C                     6.39034  -2.40714   0.7809 
 H                     4.30922  -2.1172    1.22433 
 C                     7.39465  -0.81528  -0.71396 
 H                     6.10052   0.71467  -1.48718 
 C                     7.53313  -1.95645   0.09625 
 H                     6.45599  -3.29916   1.40742 
 H                     8.26438  -0.42634  -1.24766 
 C                     8.83375  -2.65692   0.2244 
 C                     9.22532  -3.2405    1.44353 
 C                     9.71333  -2.75789  -0.86937 
 C                     10.44901  -3.90015   1.56462 
 H                     8.572    -3.15336   2.31417 
 C                     10.93759  -3.41664  -0.74897 
 H                     9.42136  -2.33581  -1.83323 
 C                     11.31187  -3.99153   0.46883 
 H                     10.73456  -4.33816   2.52427 
 H                     11.60007  -3.48917  -1.6151 
 H                     12.27018  -4.50764   0.56334 
 C                    -5.02927  -0.60819  -0.1784 
 C                    -5.2112   -1.90533  -0.69285 
 C                    -6.13287  -0.00278   0.45067 
 C                    -6.43295  -2.56401  -0.58202 
 H                    -4.38436  -2.40151  -1.20523 
 C                    -7.35511  -0.66078   0.56007 
 H                    -6.02653   0.9968    0.87706 
 C                    -7.53505  -1.95783   0.04704 
 H                    -6.53058  -3.57666  -0.97896 
 H                    -8.19336  -0.15176   1.04049 
 C                    -8.83637  -2.65889   0.16428 
 C                    -9.29753  -3.50657  -0.85992 
 C                    -9.64702  -2.49646   1.30298 
 C                    -10.52187  -4.16696  -0.74991 
 H                    -8.69903  -3.62897  -1.76505 
 C                    -10.87189  -3.15581   1.41348 
 H                    -9.29974  -1.86432   2.12289 
 C                    -11.31576  -3.99487   0.38753 
 H                    -10.86238  -4.81362  -1.56244 
 H                    -11.4799  -3.02021   2.31141 
 H                    -12.27456  -4.51149   0.47387 
 
 NAtoms=     87 NQM=       87 NQMF=       0 NMMI=      0 NMMIF=      0
                NMic=       0 NMicF=      0.
                    Isotopes and Nuclear Properties:
 (Nuclear quadrupole moments (NQMom) in fm**2, nuclear magnetic moments (NMagM)
  in nuclear magnetons)

  Atom         1           2           3           4           5           6           7           8           9          10
 IAtWgt=          12          12          12          12          12          12          12          12          12          12
 AtmWgt=  12.0000000  12.0000000  12.0000000  12.0000000  12.0000000  12.0000000  12.0000000  12.0000000  12.0000000  12.0000000
 NucSpn=           0           0           0           0           0           0           0           0           0           0
 AtZEff=   0.0000000   0.0000000   0.0000000   0.0000000   0.0000000   0.0000000   0.0000000   0.0000000   0.0000000   0.0000000
 NQMom=    0.0000000   0.0000000   0.0000000   0.0000000   0.0000000   0.0000000   0.0000000   0.0000000   0.0000000   0.0000000
 NMagM=    0.0000000   0.0000000   0.0000000   0.0000000   0.0000000   0.0000000   0.0000000   0.0000000   0.0000000   0.0000000
 AtZNuc=   6.0000000   6.0000000   6.0000000   6.0000000   6.0000000   6.0000000   6.0000000   6.0000000   6.0000000   6.0000000

  Atom        11          12          13          14          15          16          17          18          19          20
 IAtWgt=           1          12          12          12           1           1           1          14          12          12
 AtmWgt=   1.0078250  12.0000000  12.0000000  12.0000000   1.0078250   1.0078250   1.0078250  14.0030740  12.0000000  12.0000000
 NucSpn=           1           0           0           0           1           1           1           2           0           0
 AtZEff=   0.0000000   0.0000000   0.0000000   0.0000000   0.0000000   0.0000000   0.0000000   0.0000000   0.0000000   0.0000000
 NQMom=    0.0000000   0.0000000   0.0000000   0.0000000   0.0000000   0.0000000   0.0000000   2.0440000   0.0000000   0.0000000
 NMagM=    2.7928460   0.0000000   0.0000000   0.0000000   2.7928460   2.7928460   2.7928460   0.4037610   0.0000000   0.0000000
 AtZNuc=   1.0000000   6.0000000   6.0000000   6.0000000   1.0000000   1.0000000   1.0000000   7.0000000   6.0000000   6.0000000

  Atom        21          22          23          24          25          26          27          28          29          30
 IAtWgt=          12          12          12          12           1          12           1          12          12           1
 AtmWgt=  12.0000000  12.0000000  12.0000000  12.0000000   1.0078250  12.0000000   1.0078250  12.0000000  12.0000000   1.0078250
 NucSpn=           0           0           0           0           1           0           1           0           0           1
 AtZEff=   0.0000000   0.0000000   0.0000000   0.0000000   0.0000000   0.0000000   0.0000000   0.0000000   0.0000000   0.0000000
 NQMom=    0.0000000   0.0000000   0.0000000   0.0000000   0.0000000   0.0000000   0.0000000   0.0000000   0.0000000   0.0000000
 NMagM=    0.0000000   0.0000000   0.0000000   0.0000000   2.7928460   0.0000000   2.7928460   0.0000000   0.0000000   2.7928460
 AtZNuc=   6.0000000   6.0000000   6.0000000   6.0000000   1.0000000   6.0000000   1.0000000   6.0000000   6.0000000   1.0000000

  Atom        31          32          33          34          35          36          37          38          39          40
 IAtWgt=          12           1           1           1           1           1           1          12           1           1
 AtmWgt=  12.0000000   1.0078250   1.0078250   1.0078250   1.0078250   1.0078250   1.0078250  12.0000000   1.0078250   1.0078250
 NucSpn=           0           1           1           1           1           1           1           0           1           1
 AtZEff=   0.0000000   0.0000000   0.0000000   0.0000000   0.0000000   0.0000000   0.0000000   0.0000000   0.0000000   0.0000000
 NQMom=    0.0000000   0.0000000   0.0000000   0.0000000   0.0000000   0.0000000   0.0000000   0.0000000   0.0000000   0.0000000
 NMagM=    0.0000000   2.7928460   2.7928460   2.7928460   2.7928460   2.7928460   2.7928460   0.0000000   2.7928460   2.7928460
 AtZNuc=   6.0000000   1.0000000   1.0000000   1.0000000   1.0000000   1.0000000   1.0000000   6.0000000   1.0000000   1.0000000

  Atom        41          42          43          44          45          46          47          48          49          50
 IAtWgt=           1          12           1           1           1          12          12          12          12           1
 AtmWgt=   1.0078250  12.0000000   1.0078250   1.0078250   1.0078250  12.0000000  12.0000000  12.0000000  12.0000000   1.0078250
 NucSpn=           1           0           1           1           1           0           0           0           0           1
 AtZEff=   0.0000000   0.0000000   0.0000000   0.0000000   0.0000000   0.0000000   0.0000000   0.0000000   0.0000000   0.0000000
 NQMom=    0.0000000   0.0000000   0.0000000   0.0000000   0.0000000   0.0000000   0.0000000   0.0000000   0.0000000   0.0000000
 NMagM=    2.7928460   0.0000000   2.7928460   2.7928460   2.7928460   0.0000000   0.0000000   0.0000000   0.0000000   2.7928460
 AtZNuc=   1.0000000   6.0000000   1.0000000   1.0000000   1.0000000   6.0000000   6.0000000   6.0000000   6.0000000   1.0000000

  Atom        51          52          53          54          55          56          57          58          59          60
 IAtWgt=          12           1          12           1           1          12          12          12          12           1
 AtmWgt=  12.0000000   1.0078250  12.0000000   1.0078250   1.0078250  12.0000000  12.0000000  12.0000000  12.0000000   1.0078250
 NucSpn=           0           1           0           1           1           0           0           0           0           1
 AtZEff=   0.0000000   0.0000000   0.0000000   0.0000000   0.0000000   0.0000000   0.0000000   0.0000000   0.0000000   0.0000000
 NQMom=    0.0000000   0.0000000   0.0000000   0.0000000   0.0000000   0.0000000   0.0000000   0.0000000   0.0000000   0.0000000
 NMagM=    0.0000000   2.7928460   0.0000000   2.7928460   2.7928460   0.0000000   0.0000000   0.0000000   0.0000000   2.7928460
 AtZNuc=   6.0000000   1.0000000   6.0000000   1.0000000   1.0000000   6.0000000   6.0000000   6.0000000   6.0000000   1.0000000

  Atom        61          62          63          64          65          66          67          68          69          70
 IAtWgt=          12           1          12           1           1           1          12          12          12          12
 AtmWgt=  12.0000000   1.0078250  12.0000000   1.0078250   1.0078250   1.0078250  12.0000000  12.0000000  12.0000000  12.0000000
 NucSpn=           0           1           0           1           1           1           0           0           0           0
 AtZEff=   0.0000000   0.0000000   0.0000000   0.0000000   0.0000000   0.0000000   0.0000000   0.0000000   0.0000000   0.0000000
 NQMom=    0.0000000   0.0000000   0.0000000   0.0000000   0.0000000   0.0000000   0.0000000   0.0000000   0.0000000   0.0000000
 NMagM=    0.0000000   2.7928460   0.0000000   2.7928460   2.7928460   2.7928460   0.0000000   0.0000000   0.0000000   0.0000000
 AtZNuc=   6.0000000   1.0000000   6.0000000   1.0000000   1.0000000   1.0000000   6.0000000   6.0000000   6.0000000   6.0000000

  Atom        71          72          73          74          75          76          77          78          79          80
 IAtWgt=           1          12           1          12           1           1          12          12          12          12
 AtmWgt=   1.0078250  12.0000000   1.0078250  12.0000000   1.0078250   1.0078250  12.0000000  12.0000000  12.0000000  12.0000000
 NucSpn=           1           0           1           0           1           1           0           0           0           0
 AtZEff=   0.0000000   0.0000000   0.0000000   0.0000000   0.0000000   0.0000000   0.0000000   0.0000000   0.0000000   0.0000000
 NQMom=    0.0000000   0.0000000   0.0000000   0.0000000   0.0000000   0.0000000   0.0000000   0.0000000   0.0000000   0.0000000
 NMagM=    2.7928460   0.0000000   2.7928460   0.0000000   2.7928460   2.7928460   0.0000000   0.0000000   0.0000000   0.0000000
 AtZNuc=   1.0000000   6.0000000   1.0000000   6.0000000   1.0000000   1.0000000   6.0000000   6.0000000   6.0000000   6.0000000

  Atom        81          82          83          84          85          86          87
 IAtWgt=           1          12           1          12           1           1           1
 AtmWgt=   1.0078250  12.0000000   1.0078250  12.0000000   1.0078250   1.0078250   1.0078250
 NucSpn=           1           0           1           0           1           1           1
 AtZEff=   0.0000000   0.0000000   0.0000000   0.0000000   0.0000000   0.0000000   0.0000000
 NQMom=    0.0000000   0.0000000   0.0000000   0.0000000   0.0000000   0.0000000   0.0000000
 NMagM=    2.7928460   0.0000000   2.7928460   0.0000000   2.7928460   2.7928460   2.7928460
 AtZNuc=   1.0000000   6.0000000   1.0000000   6.0000000   1.0000000   1.0000000   1.0000000
 Leave Link  101 at Sat Feb 20 05:14:27 2021, MaxMem=  5242880000 cpu:         4.5
 (Enter /opt/nce/packages/global/g09/l103.exe)

 GradGradGradGradGradGradGradGradGradGradGradGradGradGradGradGradGradGrad
 Berny optimization.
 Initialization pass.
                           ----------------------------
                           !    Initial Parameters    !
                           ! (Angstroms and Degrees)  !
 --------------------------                            --------------------------
 ! Name  Definition              Value          Derivative Info.                !
 --------------------------------------------------------------------------------
 ! R1    R(1,2)                  1.3876         estimate D2E/DX2                !
 ! R2    R(1,6)                  1.405          estimate D2E/DX2                !
 ! R3    R(1,37)                 1.0917         estimate D2E/DX2                !
 ! R4    R(2,3)                  1.4101         estimate D2E/DX2                !
 ! R5    R(2,15)                 1.0887         estimate D2E/DX2                !
 ! R6    R(3,4)                  1.4109         estimate D2E/DX2                !
 ! R7    R(3,18)                 1.4004         estimate D2E/DX2                !
 ! R8    R(4,5)                  1.3983         estimate D2E/DX2                !
 ! R9    R(4,7)                  1.5317         estimate D2E/DX2                !
 ! R10   R(5,6)                  1.4028         estimate D2E/DX2                !
 ! R11   R(5,16)                 1.0906         estimate D2E/DX2                !
 ! R12   R(6,46)                 1.48           estimate D2E/DX2                !
 ! R13   R(7,8)                  1.5318         estimate D2E/DX2                !
 ! R14   R(7,38)                 1.5487         estimate D2E/DX2                !
 ! R15   R(7,42)                 1.5476         estimate D2E/DX2                !
 ! R16   R(8,9)                  1.4109         estimate D2E/DX2                !
 ! R17   R(8,14)                 1.3983         estimate D2E/DX2                !
 ! R18   R(9,10)                 1.4101         estimate D2E/DX2                !
 ! R19   R(9,18)                 1.4004         estimate D2E/DX2                !
 ! R20   R(10,11)                1.0887         estimate D2E/DX2                !
 ! R21   R(10,12)                1.3876         estimate D2E/DX2                !
 ! R22   R(12,13)                1.405          estimate D2E/DX2                !
 ! R23   R(12,17)                1.0917         estimate D2E/DX2                !
 ! R24   R(13,14)                1.4028         estimate D2E/DX2                !
 ! R25   R(13,67)                1.4801         estimate D2E/DX2                !
 ! R26   R(14,36)                1.0905         estimate D2E/DX2                !
 ! R27   R(18,19)                1.4305         estimate D2E/DX2                !
 ! R28   R(19,20)                1.4281         estimate D2E/DX2                !
 ! R29   R(19,21)                1.379          estimate D2E/DX2                !
 ! R30   R(20,22)                1.4209         estimate D2E/DX2                !
 ! R31   R(20,23)                1.4342         estimate D2E/DX2                !
 ! R32   R(21,24)                1.4157         estimate D2E/DX2                !
 ! R33   R(21,25)                1.0914         estimate D2E/DX2                !
 ! R34   R(22,26)                1.3784         estimate D2E/DX2                !
 ! R35   R(22,27)                1.0905         estimate D2E/DX2                !
 ! R36   R(23,28)                1.4224         estimate D2E/DX2                !
 ! R37   R(23,29)                1.4222         estimate D2E/DX2                !
 ! R38   R(24,29)                1.3783         estimate D2E/DX2                !
 ! R39   R(24,30)                1.0921         estimate D2E/DX2                !
 ! R40   R(26,31)                1.4176         estimate D2E/DX2                !
 ! R41   R(26,32)                1.0924         estimate D2E/DX2                !
 ! R42   R(28,31)                1.3781         estimate D2E/DX2                !
 ! R43   R(28,33)                1.093          estimate D2E/DX2                !
 ! R44   R(29,34)                1.0929         estimate D2E/DX2                !
 ! R45   R(31,35)                1.0925         estimate D2E/DX2                !
 ! R46   R(38,39)                1.1001         estimate D2E/DX2                !
 ! R47   R(38,40)                1.1005         estimate D2E/DX2                !
 ! R48   R(38,41)                1.1006         estimate D2E/DX2                !
 ! R49   R(42,43)                1.0996         estimate D2E/DX2                !
 ! R50   R(42,44)                1.1001         estimate D2E/DX2                !
 ! R51   R(42,45)                1.0995         estimate D2E/DX2                !
 ! R52   R(46,47)                1.4073         estimate D2E/DX2                !
 ! R53   R(46,48)                1.4072         estimate D2E/DX2                !
 ! R54   R(47,49)                1.3924         estimate D2E/DX2                !
 ! R55   R(47,50)                1.092          estimate D2E/DX2                !
 ! R56   R(48,51)                1.3924         estimate D2E/DX2                !
 ! R57   R(48,52)                1.0919         estimate D2E/DX2                !
 ! R58   R(49,53)                1.4064         estimate D2E/DX2                !
 ! R59   R(49,54)                1.092          estimate D2E/DX2                !
 ! R60   R(51,53)                1.4064         estimate D2E/DX2                !
 ! R61   R(51,55)                1.092          estimate D2E/DX2                !
 ! R62   R(53,56)                1.4828         estimate D2E/DX2                !
 ! R63   R(56,57)                1.4072         estimate D2E/DX2                !
 ! R64   R(56,58)                1.4072         estimate D2E/DX2                !
 ! R65   R(57,59)                1.3954         estimate D2E/DX2                !
 ! R66   R(57,60)                1.092          estimate D2E/DX2                !
 ! R67   R(58,61)                1.3954         estimate D2E/DX2                !
 ! R68   R(58,62)                1.092          estimate D2E/DX2                !
 ! R69   R(59,63)                1.3977         estimate D2E/DX2                !
 ! R70   R(59,64)                1.0929         estimate D2E/DX2                !
 ! R71   R(61,63)                1.3977         estimate D2E/DX2                !
 ! R72   R(61,65)                1.0929         estimate D2E/DX2                !
 ! R73   R(63,66)                1.0925         estimate D2E/DX2                !
 ! R74   R(67,68)                1.4072         estimate D2E/DX2                !
 ! R75   R(67,69)                1.4072         estimate D2E/DX2                !
 ! R76   R(68,70)                1.3924         estimate D2E/DX2                !
 ! R77   R(68,71)                1.092          estimate D2E/DX2                !
 ! R78   R(69,72)                1.3924         estimate D2E/DX2                !
 ! R79   R(69,73)                1.0919         estimate D2E/DX2                !
 ! R80   R(70,74)                1.4063         estimate D2E/DX2                !
 ! R81   R(70,75)                1.092          estimate D2E/DX2                !
 ! R82   R(72,74)                1.4064         estimate D2E/DX2                !
 ! R83   R(72,76)                1.092          estimate D2E/DX2                !
 ! R84   R(74,77)                1.4828         estimate D2E/DX2                !
 ! R85   R(77,78)                1.4072         estimate D2E/DX2                !
 ! R86   R(77,79)                1.4072         estimate D2E/DX2                !
 ! R87   R(78,80)                1.3954         estimate D2E/DX2                !
 ! R88   R(78,81)                1.092          estimate D2E/DX2                !
 ! R89   R(79,82)                1.3954         estimate D2E/DX2                !
 ! R90   R(79,83)                1.092          estimate D2E/DX2                !
 ! R91   R(80,84)                1.3977         estimate D2E/DX2                !
 ! R92   R(80,85)                1.0928         estimate D2E/DX2                !
 ! R93   R(82,84)                1.3977         estimate D2E/DX2                !
 ! R94   R(82,86)                1.0929         estimate D2E/DX2                !
 ! R95   R(84,87)                1.0925         estimate D2E/DX2                !
 ! A1    A(2,1,6)              121.0384         estimate D2E/DX2                !
 ! A2    A(2,1,37)             118.9258         estimate D2E/DX2                !
 ! A3    A(6,1,37)             120.0139         estimate D2E/DX2                !
 ! A4    A(1,2,3)              121.1145         estimate D2E/DX2                !
 ! A5    A(1,2,15)             119.369          estimate D2E/DX2                !
 ! A6    A(3,2,15)             119.513          estimate D2E/DX2                !
 ! A7    A(2,3,4)              119.1439         estimate D2E/DX2                !
 ! A8    A(2,3,18)             119.9785         estimate D2E/DX2                !
 ! A9    A(4,3,18)             120.8768         estimate D2E/DX2                !
 ! A10   A(3,4,5)              118.1611         estimate D2E/DX2                !
 ! A11   A(3,4,7)              122.5069         estimate D2E/DX2                !
 ! A12   A(5,4,7)              119.3136         estimate D2E/DX2                !
 ! A13   A(4,5,6)              123.5613         estimate D2E/DX2                !
 ! A14   A(4,5,16)             118.301          estimate D2E/DX2                !
 ! A15   A(6,5,16)             118.1157         estimate D2E/DX2                !
 ! A16   A(1,6,5)              116.9797         estimate D2E/DX2                !
 ! A17   A(1,6,46)             121.6877         estimate D2E/DX2                !
 ! A18   A(5,6,46)             121.3326         estimate D2E/DX2                !
 ! A19   A(4,7,8)              111.3394         estimate D2E/DX2                !
 ! A20   A(4,7,38)             108.8197         estimate D2E/DX2                !
 ! A21   A(4,7,42)             109.1295         estimate D2E/DX2                !
 ! A22   A(8,7,38)             108.7107         estimate D2E/DX2                !
 ! A23   A(8,7,42)             109.2459         estimate D2E/DX2                !
 ! A24   A(38,7,42)            109.5751         estimate D2E/DX2                !
 ! A25   A(7,8,9)              122.5095         estimate D2E/DX2                !
 ! A26   A(7,8,14)             119.3236         estimate D2E/DX2                !
 ! A27   A(9,8,14)             118.1611         estimate D2E/DX2                !
 ! A28   A(8,9,10)             119.1434         estimate D2E/DX2                !
 ! A29   A(8,9,18)             120.8803         estimate D2E/DX2                !
 ! A30   A(10,9,18)            119.9762         estimate D2E/DX2                !
 ! A31   A(9,10,11)            119.5131         estimate D2E/DX2                !
 ! A32   A(9,10,12)            121.1154         estimate D2E/DX2                !
 ! A33   A(11,10,12)           119.3688         estimate D2E/DX2                !
 ! A34   A(10,12,13)           121.0365         estimate D2E/DX2                !
 ! A35   A(10,12,17)           118.9227         estimate D2E/DX2                !
 ! A36   A(13,12,17)           120.0197         estimate D2E/DX2                !
 ! A37   A(12,13,14)           116.9816         estimate D2E/DX2                !
 ! A38   A(12,13,67)           121.6779         estimate D2E/DX2                !
 ! A39   A(14,13,67)           121.3405         estimate D2E/DX2                !
 ! A40   A(8,14,13)            123.5587         estimate D2E/DX2                !
 ! A41   A(8,14,36)            118.3091         estimate D2E/DX2                !
 ! A42   A(13,14,36)           118.118          estimate D2E/DX2                !
 ! A43   A(3,18,9)             121.6003         estimate D2E/DX2                !
 ! A44   A(3,18,19)            119.1179         estimate D2E/DX2                !
 ! A45   A(9,18,19)            119.1144         estimate D2E/DX2                !
 ! A46   A(18,19,20)           119.2344         estimate D2E/DX2                !
 ! A47   A(18,19,21)           119.9744         estimate D2E/DX2                !
 ! A48   A(20,19,21)           120.7912         estimate D2E/DX2                !
 ! A49   A(19,20,22)           122.3017         estimate D2E/DX2                !
 ! A50   A(19,20,23)           118.5118         estimate D2E/DX2                !
 ! A51   A(22,20,23)           119.1865         estimate D2E/DX2                !
 ! A52   A(19,21,24)           120.4944         estimate D2E/DX2                !
 ! A53   A(19,21,25)           118.8698         estimate D2E/DX2                !
 ! A54   A(24,21,25)           120.6358         estimate D2E/DX2                !
 ! A55   A(20,22,26)           120.5029         estimate D2E/DX2                !
 ! A56   A(20,22,27)           118.8952         estimate D2E/DX2                !
 ! A57   A(26,22,27)           120.6019         estimate D2E/DX2                !
 ! A58   A(20,23,28)           118.7568         estimate D2E/DX2                !
 ! A59   A(20,23,29)           119.1528         estimate D2E/DX2                !
 ! A60   A(28,23,29)           122.0904         estimate D2E/DX2                !
 ! A61   A(21,24,29)           120.1969         estimate D2E/DX2                !
 ! A62   A(21,24,30)           119.4934         estimate D2E/DX2                !
 ! A63   A(29,24,30)           120.3097         estimate D2E/DX2                !
 ! A64   A(22,26,31)           120.4997         estimate D2E/DX2                !
 ! A65   A(22,26,32)           119.8845         estimate D2E/DX2                !
 ! A66   A(31,26,32)           119.6157         estimate D2E/DX2                !
 ! A67   A(23,28,31)           120.8072         estimate D2E/DX2                !
 ! A68   A(23,28,33)           118.6722         estimate D2E/DX2                !
 ! A69   A(31,28,33)           120.5206         estimate D2E/DX2                !
 ! A70   A(23,29,24)           120.8528         estimate D2E/DX2                !
 ! A71   A(23,29,34)           118.7036         estimate D2E/DX2                !
 ! A72   A(24,29,34)           120.4436         estimate D2E/DX2                !
 ! A73   A(26,31,28)           120.2469         estimate D2E/DX2                !
 ! A74   A(26,31,35)           119.656          estimate D2E/DX2                !
 ! A75   A(28,31,35)           120.0971         estimate D2E/DX2                !
 ! A76   A(7,38,39)            110.4911         estimate D2E/DX2                !
 ! A77   A(7,38,40)            111.0459         estimate D2E/DX2                !
 ! A78   A(7,38,41)            110.9447         estimate D2E/DX2                !
 ! A79   A(39,38,40)           108.1145         estimate D2E/DX2                !
 ! A80   A(39,38,41)           108.1203         estimate D2E/DX2                !
 ! A81   A(40,38,41)           108.0105         estimate D2E/DX2                !
 ! A82   A(7,42,43)            111.1708         estimate D2E/DX2                !
 ! A83   A(7,42,44)            110.5571         estimate D2E/DX2                !
 ! A84   A(7,42,45)            111.2815         estimate D2E/DX2                !
 ! A85   A(43,42,44)           108.1569         estimate D2E/DX2                !
 ! A86   A(43,42,45)           107.4051         estimate D2E/DX2                !
 ! A87   A(44,42,45)           108.1305         estimate D2E/DX2                !
 ! A88   A(6,46,47)            121.3889         estimate D2E/DX2                !
 ! A89   A(6,46,48)            121.3124         estimate D2E/DX2                !
 ! A90   A(47,46,48)           117.2988         estimate D2E/DX2                !
 ! A91   A(46,47,49)           121.3572         estimate D2E/DX2                !
 ! A92   A(46,47,50)           119.4955         estimate D2E/DX2                !
 ! A93   A(49,47,50)           119.1385         estimate D2E/DX2                !
 ! A94   A(46,48,51)           121.3464         estimate D2E/DX2                !
 ! A95   A(46,48,52)           119.474          estimate D2E/DX2                !
 ! A96   A(51,48,52)           119.1721         estimate D2E/DX2                !
 ! A97   A(47,49,53)           121.2844         estimate D2E/DX2                !
 ! A98   A(47,49,54)           119.2228         estimate D2E/DX2                !
 ! A99   A(53,49,54)           119.4867         estimate D2E/DX2                !
 ! A100  A(48,51,53)           121.2953         estimate D2E/DX2                !
 ! A101  A(48,51,55)           119.2178         estimate D2E/DX2                !
 ! A102  A(53,51,55)           119.4801         estimate D2E/DX2                !
 ! A103  A(49,53,51)           117.4178         estimate D2E/DX2                !
 ! A104  A(49,53,56)           121.2849         estimate D2E/DX2                !
 ! A105  A(51,53,56)           121.2973         estimate D2E/DX2                !
 ! A106  A(53,56,57)           120.9882         estimate D2E/DX2                !
 ! A107  A(53,56,58)           120.9966         estimate D2E/DX2                !
 ! A108  A(57,56,58)           118.0152         estimate D2E/DX2                !
 ! A109  A(56,57,59)           121.0135         estimate D2E/DX2                !
 ! A110  A(56,57,60)           119.4177         estimate D2E/DX2                !
 ! A111  A(59,57,60)           119.5506         estimate D2E/DX2                !
 ! A112  A(56,58,61)           121.0104         estimate D2E/DX2                !
 ! A113  A(56,58,62)           119.4201         estimate D2E/DX2                !
 ! A114  A(61,58,62)           119.5515         estimate D2E/DX2                !
 ! A115  A(57,59,63)           120.2803         estimate D2E/DX2                !
 ! A116  A(57,59,64)           119.6557         estimate D2E/DX2                !
 ! A117  A(63,59,64)           120.0617         estimate D2E/DX2                !
 ! A118  A(58,61,63)           120.283          estimate D2E/DX2                !
 ! A119  A(58,61,65)           119.6548         estimate D2E/DX2                !
 ! A120  A(63,61,65)           120.0599         estimate D2E/DX2                !
 ! A121  A(59,63,61)           119.3976         estimate D2E/DX2                !
 ! A122  A(59,63,66)           120.3013         estimate D2E/DX2                !
 ! A123  A(61,63,66)           120.3011         estimate D2E/DX2                !
 ! A124  A(13,67,68)           121.4148         estimate D2E/DX2                !
 ! A125  A(13,67,69)           121.2882         estimate D2E/DX2                !
 ! A126  A(68,67,69)           117.297          estimate D2E/DX2                !
 ! A127  A(67,68,70)           121.3574         estimate D2E/DX2                !
 ! A128  A(67,68,71)           119.504          estimate D2E/DX2                !
 ! A129  A(70,68,71)           119.1301         estimate D2E/DX2                !
 ! A130  A(67,69,72)           121.3476         estimate D2E/DX2                !
 ! A131  A(67,69,73)           119.4748         estimate D2E/DX2                !
 ! A132  A(72,69,73)           119.1698         estimate D2E/DX2                !
 ! A133  A(68,70,74)           121.2862         estimate D2E/DX2                !
 ! A134  A(68,70,75)           119.2205         estimate D2E/DX2                !
 ! A135  A(74,70,75)           119.4871         estimate D2E/DX2                !
 ! A136  A(69,72,74)           121.2967         estimate D2E/DX2                !
 ! A137  A(69,72,76)           119.2147         estimate D2E/DX2                !
 ! A138  A(74,72,76)           119.482          estimate D2E/DX2                !
 ! A139  A(70,74,72)           117.415          estimate D2E/DX2                !
 ! A140  A(70,74,77)           121.2869         estimate D2E/DX2                !
 ! A141  A(72,74,77)           121.2981         estimate D2E/DX2                !
 ! A142  A(74,77,78)           120.9889         estimate D2E/DX2                !
 ! A143  A(74,77,79)           120.9956         estimate D2E/DX2                !
 ! A144  A(78,77,79)           118.0155         estimate D2E/DX2                !
 ! A145  A(77,78,80)           121.0131         estimate D2E/DX2                !
 ! A146  A(77,78,81)           119.4189         estimate D2E/DX2                !
 ! A147  A(80,78,81)           119.55           estimate D2E/DX2                !
 ! A148  A(77,79,82)           121.0104         estimate D2E/DX2                !
 ! A149  A(77,79,83)           119.4196         estimate D2E/DX2                !
 ! A150  A(82,79,83)           119.5521         estimate D2E/DX2                !
 ! A151  A(78,80,84)           120.2806         estimate D2E/DX2                !
 ! A152  A(78,80,85)           119.6558         estimate D2E/DX2                !
 ! A153  A(84,80,85)           120.0613         estimate D2E/DX2                !
 ! A154  A(79,82,84)           120.2829         estimate D2E/DX2                !
 ! A155  A(79,82,86)           119.655          estimate D2E/DX2                !
 ! A156  A(84,82,86)           120.0598         estimate D2E/DX2                !
 ! A157  A(80,84,82)           119.3976         estimate D2E/DX2                !
 ! A158  A(80,84,87)           120.3015         estimate D2E/DX2                !
 ! A159  A(82,84,87)           120.3009         estimate D2E/DX2                !
 ! D1    D(6,1,2,3)             -0.0928         estimate D2E/DX2                !
 ! D2    D(6,1,2,15)           179.2286         estimate D2E/DX2                !
 ! D3    D(37,1,2,3)          -178.3889         estimate D2E/DX2                !
 ! D4    D(37,1,2,15)            0.9325         estimate D2E/DX2                !
 ! D5    D(2,1,6,5)             -0.0424         estimate D2E/DX2                !
 ! D6    D(2,1,6,46)          -179.9532         estimate D2E/DX2                !
 ! D7    D(37,1,6,5)           178.2353         estimate D2E/DX2                !
 ! D8    D(37,1,6,46)           -1.6755         estimate D2E/DX2                !
 ! D9    D(1,2,3,4)              0.3211         estimate D2E/DX2                !
 ! D10   D(1,2,3,18)           179.9789         estimate D2E/DX2                !
 ! D11   D(15,2,3,4)          -178.9994         estimate D2E/DX2                !
 ! D12   D(15,2,3,18)            0.6585         estimate D2E/DX2                !
 ! D13   D(2,3,4,5)             -0.4042         estimate D2E/DX2                !
 ! D14   D(2,3,4,7)           -178.8322         estimate D2E/DX2                !
 ! D15   D(18,3,4,5)           179.9411         estimate D2E/DX2                !
 ! D16   D(18,3,4,7)             1.5131         estimate D2E/DX2                !
 ! D17   D(2,3,18,9)          -176.3652         estimate D2E/DX2                !
 ! D18   D(2,3,18,19)           -1.1116         estimate D2E/DX2                !
 ! D19   D(4,3,18,9)             3.2867         estimate D2E/DX2                !
 ! D20   D(4,3,18,19)          178.5403         estimate D2E/DX2                !
 ! D21   D(3,4,5,6)              0.2816         estimate D2E/DX2                !
 ! D22   D(3,4,5,16)          -177.9767         estimate D2E/DX2                !
 ! D23   D(7,4,5,6)            178.7612         estimate D2E/DX2                !
 ! D24   D(7,4,5,16)             0.5029         estimate D2E/DX2                !
 ! D25   D(3,4,7,8)             -5.0663         estimate D2E/DX2                !
 ! D26   D(3,4,7,38)           114.7355         estimate D2E/DX2                !
 ! D27   D(3,4,7,42)          -125.7353         estimate D2E/DX2                !
 ! D28   D(5,4,7,8)            176.5232         estimate D2E/DX2                !
 ! D29   D(5,4,7,38)           -63.675          estimate D2E/DX2                !
 ! D30   D(5,4,7,42)            55.8541         estimate D2E/DX2                !
 ! D31   D(4,5,6,1)             -0.0561         estimate D2E/DX2                !
 ! D32   D(4,5,6,46)           179.8551         estimate D2E/DX2                !
 ! D33   D(16,5,6,1)           178.2052         estimate D2E/DX2                !
 ! D34   D(16,5,6,46)           -1.8836         estimate D2E/DX2                !
 ! D35   D(1,6,46,47)          146.6631         estimate D2E/DX2                !
 ! D36   D(1,6,46,48)          -33.2829         estimate D2E/DX2                !
 ! D37   D(5,6,46,47)          -33.2439         estimate D2E/DX2                !
 ! D38   D(5,6,46,48)          146.8101         estimate D2E/DX2                !
 ! D39   D(4,7,8,9)              4.5306         estimate D2E/DX2                !
 ! D40   D(4,7,8,14)          -176.3569         estimate D2E/DX2                !
 ! D41   D(38,7,8,9)          -115.3357         estimate D2E/DX2                !
 ! D42   D(38,7,8,14)           63.7768         estimate D2E/DX2                !
 ! D43   D(42,7,8,9)           125.1313         estimate D2E/DX2                !
 ! D44   D(42,7,8,14)          -55.7563         estimate D2E/DX2                !
 ! D45   D(4,7,38,39)          -60.7638         estimate D2E/DX2                !
 ! D46   D(4,7,38,40)           59.199          estimate D2E/DX2                !
 ! D47   D(4,7,38,41)          179.332          estimate D2E/DX2                !
 ! D48   D(8,7,38,39)           60.6574         estimate D2E/DX2                !
 ! D49   D(8,7,38,40)         -179.3797         estimate D2E/DX2                !
 ! D50   D(8,7,38,41)          -59.2468         estimate D2E/DX2                !
 ! D51   D(42,7,38,39)         179.9849         estimate D2E/DX2                !
 ! D52   D(42,7,38,40)         -60.0523         estimate D2E/DX2                !
 ! D53   D(42,7,38,41)          60.0807         estimate D2E/DX2                !
 ! D54   D(4,7,42,43)          -59.1337         estimate D2E/DX2                !
 ! D55   D(4,7,42,44)           61.0081         estimate D2E/DX2                !
 ! D56   D(4,7,42,45)         -178.8104         estimate D2E/DX2                !
 ! D57   D(8,7,42,43)          178.9243         estimate D2E/DX2                !
 ! D58   D(8,7,42,44)          -60.9339         estimate D2E/DX2                !
 ! D59   D(8,7,42,45)           59.2476         estimate D2E/DX2                !
 ! D60   D(38,7,42,43)          59.9266         estimate D2E/DX2                !
 ! D61   D(38,7,42,44)        -179.9316         estimate D2E/DX2                !
 ! D62   D(38,7,42,45)         -59.75           estimate D2E/DX2                !
 ! D63   D(7,8,9,10)           179.7544         estimate D2E/DX2                !
 ! D64   D(7,8,9,18)            -0.425          estimate D2E/DX2                !
 ! D65   D(14,8,9,10)            0.6322         estimate D2E/DX2                !
 ! D66   D(14,8,9,18)         -179.5473         estimate D2E/DX2                !
 ! D67   D(7,8,14,13)         -179.6614         estimate D2E/DX2                !
 ! D68   D(7,8,14,36)            1.7379         estimate D2E/DX2                !
 ! D69   D(9,8,14,13)           -0.5103         estimate D2E/DX2                !
 ! D70   D(9,8,14,36)         -179.1111         estimate D2E/DX2                !
 ! D71   D(8,9,10,11)         -179.7058         estimate D2E/DX2                !
 ! D72   D(8,9,10,12)           -0.2973         estimate D2E/DX2                !
 ! D73   D(18,9,10,11)           0.472          estimate D2E/DX2                !
 ! D74   D(18,9,10,12)         179.8805         estimate D2E/DX2                !
 ! D75   D(8,9,18,3)            -3.8312         estimate D2E/DX2                !
 ! D76   D(8,9,18,19)         -179.085          estimate D2E/DX2                !
 ! D77   D(10,9,18,3)          175.9879         estimate D2E/DX2                !
 ! D78   D(10,9,18,19)           0.7341         estimate D2E/DX2                !
 ! D79   D(9,10,12,13)          -0.2004         estimate D2E/DX2                !
 ! D80   D(9,10,12,17)        -178.5322         estimate D2E/DX2                !
 ! D81   D(11,10,12,13)        179.209          estimate D2E/DX2                !
 ! D82   D(11,10,12,17)          0.8772         estimate D2E/DX2                !
 ! D83   D(10,12,13,14)          0.3332         estimate D2E/DX2                !
 ! D84   D(10,12,13,67)       -179.6476         estimate D2E/DX2                !
 ! D85   D(17,12,13,14)        178.6469         estimate D2E/DX2                !
 ! D86   D(17,12,13,67)         -1.3339         estimate D2E/DX2                !
 ! D87   D(12,13,14,8)           0.027          estimate D2E/DX2                !
 ! D88   D(12,13,14,36)        178.6303         estimate D2E/DX2                !
 ! D89   D(67,13,14,8)        -179.9921         estimate D2E/DX2                !
 ! D90   D(67,13,14,36)         -1.3889         estimate D2E/DX2                !
 ! D91   D(12,13,67,68)        146.6371         estimate D2E/DX2                !
 ! D92   D(12,13,67,69)        -33.3574         estimate D2E/DX2                !
 ! D93   D(14,13,67,68)        -33.3428         estimate D2E/DX2                !
 ! D94   D(14,13,67,69)        146.6627         estimate D2E/DX2                !
 ! D95   D(3,18,19,20)         -87.6577         estimate D2E/DX2                !
 ! D96   D(3,18,19,21)          92.351          estimate D2E/DX2                !
 ! D97   D(9,18,19,20)          87.7152         estimate D2E/DX2                !
 ! D98   D(9,18,19,21)         -92.276          estimate D2E/DX2                !
 ! D99   D(18,19,20,22)          0.0229         estimate D2E/DX2                !
 ! D100  D(18,19,20,23)       -179.9867         estimate D2E/DX2                !
 ! D101  D(21,19,20,22)       -179.9859         estimate D2E/DX2                !
 ! D102  D(21,19,20,23)          0.0045         estimate D2E/DX2                !
 ! D103  D(18,19,21,24)        179.9872         estimate D2E/DX2                !
 ! D104  D(18,19,21,25)          0.003          estimate D2E/DX2                !
 ! D105  D(20,19,21,24)         -0.0039         estimate D2E/DX2                !
 ! D106  D(20,19,21,25)       -179.9881         estimate D2E/DX2                !
 ! D107  D(19,20,22,26)        179.9911         estimate D2E/DX2                !
 ! D108  D(19,20,22,27)          0.0027         estimate D2E/DX2                !
 ! D109  D(23,20,22,26)          0.0007         estimate D2E/DX2                !
 ! D110  D(23,20,22,27)       -179.9876         estimate D2E/DX2                !
 ! D111  D(19,20,23,28)       -179.9966         estimate D2E/DX2                !
 ! D112  D(19,20,23,29)         -0.0014         estimate D2E/DX2                !
 ! D113  D(22,20,23,28)         -0.0059         estimate D2E/DX2                !
 ! D114  D(22,20,23,29)        179.9893         estimate D2E/DX2                !
 ! D115  D(19,21,24,29)          0.0001         estimate D2E/DX2                !
 ! D116  D(19,21,24,30)       -179.991          estimate D2E/DX2                !
 ! D117  D(25,21,24,29)        179.984          estimate D2E/DX2                !
 ! D118  D(25,21,24,30)         -0.0071         estimate D2E/DX2                !
 ! D119  D(20,22,26,31)          0.0041         estimate D2E/DX2                !
 ! D120  D(20,22,26,32)       -179.9832         estimate D2E/DX2                !
 ! D121  D(27,22,26,31)        179.9923         estimate D2E/DX2                !
 ! D122  D(27,22,26,32)          0.005          estimate D2E/DX2                !
 ! D123  D(20,23,28,31)          0.0063         estimate D2E/DX2                !
 ! D124  D(20,23,28,33)        179.9969         estimate D2E/DX2                !
 ! D125  D(29,23,28,31)       -179.9887         estimate D2E/DX2                !
 ! D126  D(29,23,28,33)          0.0019         estimate D2E/DX2                !
 ! D127  D(20,23,29,24)         -0.0023         estimate D2E/DX2                !
 ! D128  D(20,23,29,34)        179.9972         estimate D2E/DX2                !
 ! D129  D(28,23,29,24)        179.9927         estimate D2E/DX2                !
 ! D130  D(28,23,29,34)         -0.0078         estimate D2E/DX2                !
 ! D131  D(21,24,29,23)          0.003          estimate D2E/DX2                !
 ! D132  D(21,24,29,34)       -179.9965         estimate D2E/DX2                !
 ! D133  D(30,24,29,23)        179.9941         estimate D2E/DX2                !
 ! D134  D(30,24,29,34)         -0.0054         estimate D2E/DX2                !
 ! D135  D(22,26,31,28)         -0.0038         estimate D2E/DX2                !
 ! D136  D(22,26,31,35)       -179.9925         estimate D2E/DX2                !
 ! D137  D(32,26,31,28)        179.9836         estimate D2E/DX2                !
 ! D138  D(32,26,31,35)         -0.0051         estimate D2E/DX2                !
 ! D139  D(23,28,31,26)         -0.0015         estimate D2E/DX2                !
 ! D140  D(23,28,31,35)        179.9872         estimate D2E/DX2                !
 ! D141  D(33,28,31,26)       -179.992          estimate D2E/DX2                !
 ! D142  D(33,28,31,35)         -0.0033         estimate D2E/DX2                !
 ! D143  D(6,46,47,49)         179.9482         estimate D2E/DX2                !
 ! D144  D(6,46,47,50)          -1.1399         estimate D2E/DX2                !
 ! D145  D(48,46,47,49)         -0.1037         estimate D2E/DX2                !
 ! D146  D(48,46,47,50)        178.8082         estimate D2E/DX2                !
 ! D147  D(6,46,48,51)         179.9626         estimate D2E/DX2                !
 ! D148  D(6,46,48,52)          -1.0421         estimate D2E/DX2                !
 ! D149  D(47,46,48,51)          0.0144         estimate D2E/DX2                !
 ! D150  D(47,46,48,52)        179.0097         estimate D2E/DX2                !
 ! D151  D(46,47,49,53)          0.1115         estimate D2E/DX2                !
 ! D152  D(46,47,49,54)       -178.989          estimate D2E/DX2                !
 ! D153  D(50,47,49,53)       -178.8042         estimate D2E/DX2                !
 ! D154  D(50,47,49,54)          2.0953         estimate D2E/DX2                !
 ! D155  D(46,48,51,53)          0.0697         estimate D2E/DX2                !
 ! D156  D(46,48,51,55)       -178.9792         estimate D2E/DX2                !
 ! D157  D(52,48,51,53)       -178.9286         estimate D2E/DX2                !
 ! D158  D(52,48,51,55)          2.0225         estimate D2E/DX2                !
 ! D159  D(47,49,53,51)         -0.0258         estimate D2E/DX2                !
 ! D160  D(47,49,53,56)        179.9384         estimate D2E/DX2                !
 ! D161  D(54,49,53,51)        179.0725         estimate D2E/DX2                !
 ! D162  D(54,49,53,56)         -0.9633         estimate D2E/DX2                !
 ! D163  D(48,51,53,49)         -0.0635         estimate D2E/DX2                !
 ! D164  D(48,51,53,56)        179.9723         estimate D2E/DX2                !
 ! D165  D(55,51,53,49)        178.9829         estimate D2E/DX2                !
 ! D166  D(55,51,53,56)         -0.9813         estimate D2E/DX2                !
 ! D167  D(49,53,56,57)        -35.5708         estimate D2E/DX2                !
 ! D168  D(49,53,56,58)        144.4331         estimate D2E/DX2                !
 ! D169  D(51,53,56,57)        144.392          estimate D2E/DX2                !
 ! D170  D(51,53,56,58)        -35.6041         estimate D2E/DX2                !
 ! D171  D(53,56,57,59)        179.9814         estimate D2E/DX2                !
 ! D172  D(53,56,57,60)         -1.5746         estimate D2E/DX2                !
 ! D173  D(58,56,57,59)         -0.0224         estimate D2E/DX2                !
 ! D174  D(58,56,57,60)        178.4217         estimate D2E/DX2                !
 ! D175  D(53,56,58,61)        179.978          estimate D2E/DX2                !
 ! D176  D(53,56,58,62)         -1.5736         estimate D2E/DX2                !
 ! D177  D(57,56,58,61)         -0.0183         estimate D2E/DX2                !
 ! D178  D(57,56,58,62)        178.4302         estimate D2E/DX2                !
 ! D179  D(56,57,59,63)          0.0418         estimate D2E/DX2                !
 ! D180  D(56,57,59,64)        179.4906         estimate D2E/DX2                !
 ! D181  D(60,57,59,63)       -178.4002         estimate D2E/DX2                !
 ! D182  D(60,57,59,64)          1.0486         estimate D2E/DX2                !
 ! D183  D(56,58,61,63)          0.0399         estimate D2E/DX2                !
 ! D184  D(56,58,61,65)        179.4907         estimate D2E/DX2                !
 ! D185  D(62,58,61,63)       -178.4066         estimate D2E/DX2                !
 ! D186  D(62,58,61,65)          1.0443         estimate D2E/DX2                !
 ! D187  D(57,59,63,61)         -0.02           estimate D2E/DX2                !
 ! D188  D(57,59,63,66)        179.9791         estimate D2E/DX2                !
 ! D189  D(64,59,63,61)       -179.4665         estimate D2E/DX2                !
 ! D190  D(64,59,63,66)          0.5326         estimate D2E/DX2                !
 ! D191  D(58,61,63,59)         -0.0204         estimate D2E/DX2                !
 ! D192  D(58,61,63,66)        179.9805         estimate D2E/DX2                !
 ! D193  D(65,61,63,59)       -179.469          estimate D2E/DX2                !
 ! D194  D(65,61,63,66)          0.5319         estimate D2E/DX2                !
 ! D195  D(13,67,68,70)        179.9014         estimate D2E/DX2                !
 ! D196  D(13,67,68,71)         -1.1683         estimate D2E/DX2                !
 ! D197  D(69,67,68,70)         -0.1039         estimate D2E/DX2                !
 ! D198  D(69,67,68,71)        178.8265         estimate D2E/DX2                !
 ! D199  D(13,67,69,72)       -179.9817         estimate D2E/DX2                !
 ! D200  D(13,67,69,73)         -1.0012         estimate D2E/DX2                !
 ! D201  D(68,67,69,72)          0.0236         estimate D2E/DX2                !
 ! D202  D(68,67,69,73)        179.004          estimate D2E/DX2                !
 ! D203  D(67,68,70,74)          0.1024         estimate D2E/DX2                !
 ! D204  D(67,68,70,75)       -178.9835         estimate D2E/DX2                !
 ! D205  D(71,68,70,74)       -178.8318         estimate D2E/DX2                !
 ! D206  D(71,68,70,75)          2.0822         estimate D2E/DX2                !
 ! D207  D(67,69,72,74)          0.0605         estimate D2E/DX2                !
 ! D208  D(67,69,72,76)       -178.9922         estimate D2E/DX2                !
 ! D209  D(73,69,72,74)       -178.923          estimate D2E/DX2                !
 ! D210  D(73,69,72,76)          2.0243         estimate D2E/DX2                !
 ! D211  D(68,70,74,72)         -0.0166         estimate D2E/DX2                !
 ! D212  D(68,70,74,77)        179.9587         estimate D2E/DX2                !
 ! D213  D(75,70,74,72)        179.0669         estimate D2E/DX2                !
 ! D214  D(75,70,74,77)         -0.9577         estimate D2E/DX2                !
 ! D215  D(69,72,74,70)         -0.0636         estimate D2E/DX2                !
 ! D216  D(69,72,74,77)        179.9611         estimate D2E/DX2                !
 ! D217  D(76,72,74,70)        178.9866         estimate D2E/DX2                !
 ! D218  D(76,72,74,77)         -0.9887         estimate D2E/DX2                !
 ! D219  D(70,74,77,78)        -35.5868         estimate D2E/DX2                !
 ! D220  D(70,74,77,79)        144.412          estimate D2E/DX2                !
 ! D221  D(72,74,77,78)        144.3876         estimate D2E/DX2                !
 ! D222  D(72,74,77,79)        -35.6136         estimate D2E/DX2                !
 ! D223  D(74,77,78,80)        179.9766         estimate D2E/DX2                !
 ! D224  D(74,77,78,81)         -1.5778         estimate D2E/DX2                !
 ! D225  D(79,77,78,80)         -0.0223         estimate D2E/DX2                !
 ! D226  D(79,77,78,81)        178.4234         estimate D2E/DX2                !
 ! D227  D(74,77,79,82)        179.9834         estimate D2E/DX2                !
 ! D228  D(74,77,79,83)         -1.5657         estimate D2E/DX2                !
 ! D229  D(78,77,79,82)         -0.0178         estimate D2E/DX2                !
 ! D230  D(78,77,79,83)        178.4331         estimate D2E/DX2                !
 ! D231  D(77,78,80,84)          0.0407         estimate D2E/DX2                !
 ! D232  D(77,78,80,85)        179.4908         estimate D2E/DX2                !
 ! D233  D(81,78,80,84)       -178.4029         estimate D2E/DX2                !
 ! D234  D(81,78,80,85)          1.0472         estimate D2E/DX2                !
 ! D235  D(77,79,82,84)          0.0397         estimate D2E/DX2                !
 ! D236  D(77,79,82,86)        179.491          estimate D2E/DX2                !
 ! D237  D(83,79,82,84)       -178.4092         estimate D2E/DX2                !
 ! D238  D(83,79,82,86)          1.0421         estimate D2E/DX2                !
 ! D239  D(78,80,84,82)         -0.0186         estimate D2E/DX2                !
 ! D240  D(78,80,84,87)        179.9796         estimate D2E/DX2                !
 ! D241  D(85,80,84,82)       -179.4665         estimate D2E/DX2                !
 ! D242  D(85,80,84,87)          0.5317         estimate D2E/DX2                !
 ! D243  D(79,82,84,80)         -0.0211         estimate D2E/DX2                !
 ! D244  D(79,82,84,87)        179.9807         estimate D2E/DX2                !
 ! D245  D(86,82,84,80)       -179.4702         estimate D2E/DX2                !
 ! D246  D(86,82,84,87)          0.5315         estimate D2E/DX2                !
 --------------------------------------------------------------------------------
 Trust Radius=3.00D-01 FncErr=1.00D-07 GrdErr=1.00D-06
 Number of steps in this run=    510 maximum allowed number of steps=    522.
 GradGradGradGradGradGradGradGradGradGradGradGradGradGradGradGradGradGrad

 Leave Link  103 at Sat Feb 20 05:14:27 2021, MaxMem=  5242880000 cpu:         2.1
 (Enter /opt/nce/packages/global/g09/l202.exe)
 Symmetry turned off by external request.
 Stoichiometry    C49H37N
 Framework group  C1[X(C49H37N)]
 Deg. of freedom   255
 Full point group                 C1      NOp   1
                          Input orientation:                          
 ---------------------------------------------------------------------
 Center     Atomic      Atomic             Coordinates (Angstroms)
 Number     Number       Type             X           Y           Z
 ---------------------------------------------------------------------
      1          6           0        3.657466    1.484259   -0.453658
      2          6           0        2.433199    2.126765   -0.571476
      3          6           0        1.223292    1.404272   -0.521272
      4          6           0        1.265209    0.005532   -0.341271
      5          6           0        2.516624   -0.608110   -0.228253
      6          6           0        3.731131    0.092174   -0.278459
      7          6           0        0.000426   -0.857571   -0.301580
      8          6           0       -1.264602    0.004579   -0.353864
      9          6           0       -1.221572    1.404702   -0.522410
     10          6           0       -2.430861    2.128633   -0.565767
     11          1           0       -2.404856    3.208616   -0.700421
     12          6           0       -3.655594    1.486334   -0.451814
     13          6           0       -3.730517    0.092313   -0.293600
     14          6           0       -2.516595   -0.609438   -0.249810
     15          1           0        2.407367    3.208230   -0.693731
     16          1           0        2.552880   -1.692948   -0.122734
     17          1           0       -4.570324    2.078834   -0.514413
     18          7           0        0.001059    2.076977   -0.642283
     19          6           0        0.001347    3.499636   -0.792024
     20          6           0        0.001557    4.323686    0.374288
     21          6           0        0.001237    4.059796   -2.052181
     22          6           0        0.001970    3.780939    1.687480
     23          6           0        0.001552    5.747994    0.206188
     24          6           0        0.001247    5.466269   -2.213137
     25          1           0        0.000878    3.400449   -2.921964
     26          6           0        0.002346    4.611307    2.787750
     27          1           0        0.002178    2.697294    1.809791
     28          6           0        0.001835    6.573745    1.364369
     29          6           0        0.001370    6.290436   -1.108455
     30          1           0        0.001010    5.892389   -3.218727
     31          6           0        0.002239    6.019692    2.626240
     32          1           0        0.002939    4.183181    3.792751
     33          1           0        0.001883    7.658985    1.234662
     34          1           0        0.001321    7.376737   -1.228035
     35          1           0        0.002665    6.664880    3.507844
     36          1           0       -2.552358   -1.689651   -0.104707
     37          1           0        4.571061    2.081567   -0.470842
     38          6           0        0.005193   -1.807414   -1.524758
     39          1           0        0.008066   -1.229698   -2.460944
     40          1           0        0.895346   -2.454407   -1.519229
     41          1           0       -0.885427   -2.453970   -1.524259
     42          6           0       -0.003943   -1.691228    1.002244
     43          1           0        0.883430   -2.337702    1.063217
     44          1           0       -0.008595   -1.031469    1.882599
     45          1           0       -0.888919   -2.341384    1.057242
     46          6           0        5.028927   -0.607666   -0.150200
     47          6           0        5.169336   -1.748623    0.661549
     48          6           0        6.173131   -0.157861   -0.834719
     49          6           0        6.390342   -2.407136    0.780897
     50          1           0        4.309221   -2.117196    1.224331
     51          6           0        7.394646   -0.815281   -0.713961
     52          1           0        6.100516    0.714668   -1.487177
     53          6           0        7.533133   -1.956451    0.096249
     54          1           0        6.455988   -3.299161    1.407423
     55          1           0        8.264379   -0.426341   -1.247655
     56          6           0        8.833745   -2.656920    0.224398
     57          6           0        9.225321   -3.240495    1.443534
     58          6           0        9.713326   -2.757894   -0.869370
     59          6           0       10.449013   -3.900153    1.564618
     60          1           0        8.572003   -3.153358    2.314170
     61          6           0       10.937590   -3.416638   -0.748967
     62          1           0        9.421356   -2.335807   -1.833229
     63          6           0       11.311866   -3.991534    0.468827
     64          1           0       10.734556   -4.338159    2.524274
     65          1           0       11.600066   -3.489165   -1.615103
     66          1           0       12.270181   -4.507635    0.563339
     67          6           0       -5.029273   -0.608185   -0.178397
     68          6           0       -5.211202   -1.905330   -0.692852
     69          6           0       -6.132866   -0.002780    0.450673
     70          6           0       -6.432950   -2.564013   -0.582020
     71          1           0       -4.384363   -2.401506   -1.205231
     72          6           0       -7.355114   -0.660778    0.560070
     73          1           0       -6.026535    0.996804    0.877057
     74          6           0       -7.535052   -1.957826    0.047041
     75          1           0       -6.530578   -3.576659   -0.978957
     76          1           0       -8.193356   -0.151763    1.040491
     77          6           0       -8.836370   -2.658894    0.164276
     78          6           0       -9.297528   -3.506568   -0.859919
     79          6           0       -9.647016   -2.496457    1.302981
     80          6           0      -10.521873   -4.166960   -0.749905
     81          1           0       -8.699034   -3.628966   -1.765046
     82          6           0      -10.871890   -3.155809    1.413481
     83          1           0       -9.299745   -1.864319    2.122885
     84          6           0      -11.315758   -3.994868    0.387527
     85          1           0      -10.862380   -4.813615   -1.562440
     86          1           0      -11.479898   -3.020207    2.311405
     87          1           0      -12.274563   -4.511491    0.473872
 ---------------------------------------------------------------------
 Rotational constants (GHZ):      0.0751697      0.0211837      0.0173596
 Leave Link  202 at Sat Feb 20 05:14:27 2021, MaxMem=  5242880000 cpu:         0.1
 (Enter /opt/nce/packages/global/g09/l301.exe)
 Standard basis: def2TZVP (5D, 7F)
 Ernie: Thresh=  0.10000D-02 Tol=  0.10000D-05 Strict=F.
  1772 basis functions,  2846 primitive gaussians,  2022 cartesian basis functions
   169 alpha electrons      169 beta electrons
       nuclear repulsion energy      5345.7346803807 Hartrees.
 IExCor= 4235 DFT=T Ex+Corr=M06 ExCW=0 ScaHFX=  0.270000
 ScaDFX=  1.000000  1.000000  1.000000  1.000000 ScalE2=  1.000000  1.000000
 IRadAn=      5 IRanWt=     -1 IRanGd=            0 ICorTp=0 IEmpDi=  4
 NAtoms=   87 NActive=   87 NUniq=   87 SFac= 1.00D+00 NAtFMM=   60 NAOKFM=T Big=T
 Integral buffers will be    131072 words long.
 Raffenetti 2 integral format.
 Two-electron integral symmetry is turned off.
 ------------------------------------------------------------------------------
 Polarizable Continuum Model (PCM)
 =================================
 Model                : PCM (using non-symmetric T matrix).
 Atomic radii         : SMD-Coulomb.
 Polarization charges : Total charges.
 Charge compensation  : None.
 Solution method      : On-the-fly selection.
 Cavity type          : VdW (van der Waals Surface) (Alpha=1.000).
 Cavity algorithm     : GePol (No added spheres)
                        Default sphere list used, NSphG=   87.
                        Lebedev-Laikov grids with approx.  5.0 points / Ang**2.
                        Smoothing algorithm: York/Karplus (Gamma=1.0000).
                        Polarization charges: spherical gaussians, with
                                              point-specific exponents (IZeta= 3).
                        Self-potential: point-specific (ISelfS= 7).
                        Self-field    : sphere-specific E.n sum rule (ISelfD= 2).
 1st derivatives      : Analytical E(r).r(x)/FMM algorithm (CHGder, D1EAlg=3).
                        Cavity 1st derivative terms included.
 Solvent              : n,n-DiMethylFormamide, Eps=  37.219000 Eps(inf)=   2.046330
 ------------------------------------------------------------------------------
 GePol: Number of generator spheres                  =      87
 GePol: Total number of spheres                      =      87
 GePol: Number of exposed spheres                    =      87 (100.00%)
 GePol: Number of points                             =    6419
 GePol: Average weight of points                     =       0.11
 GePol: Minimum weight of points                     =   0.37D-09
 GePol: Maximum weight of points                     =    0.17992
 GePol: Number of points with low weight             =     457
 GePol: Fraction of low-weight points (<1% of avg)   =       7.12%
 GePol: Cavity surface area                          =    678.627 Ang**2
 GePol: Cavity volume                                =    672.574 Ang**3
 ------------------------------------------------------------------------------
 Atomic radii for non-electrostatic terms: SMD-CDS.
 ------------------------------------------------------------------------------
 PCM non-electrostatic energy =        -0.0114296404 Hartrees.
 Nuclear repulsion after PCM non-electrostatic terms =     5345.7232507404 Hartrees.
 Leave Link  301 at Sat Feb 20 05:14:27 2021, MaxMem=  5242880000 cpu:         2.8
 (Enter /opt/nce/packages/global/g09/l302.exe)
 NPDir=0 NMtPBC=     1 NCelOv=     1 NCel=       1 NClECP=     1 NCelD=      1
         NCelK=      1 NCelE2=     1 NClLst=     1 CellRange=     0.0.
 One-electron integrals computed using PRISM.
   1 Symmetry operations used in ECPInt.
 ECPInt:  NShTT=  243951 NPrTT=  748464 LenC2=  144433 LenP2D=  290132.
 LDataN:  DoStor=T MaxTD1= 6 Len=  172
 NBasis=  1772 RedAO= T EigKep=  3.46D-06  NBF=  1772
 NBsUse=  1772 1.00D-06 EigRej= -1.00D+00 NBFU=  1772
 Precomputing XC quadrature grid using
 IXCGrd= 4 IRadAn=           5 IRanWt=          -1 IRanGd=           0 AccXCQ= 0.00D+00.
 Generated NRdTot=       0 NPtTot=           0 NUsed=           0 NTot=          32
 NSgBfM=  1596  1599  1599  1599  1599 MxSgAt=    87 MxSgA2=    87.
 Leave Link  302 at Sat Feb 20 05:14:36 2021, MaxMem=  5242880000 cpu:       104.0
 (Enter /opt/nce/packages/global/g09/l303.exe)
 DipDrv:  MaxL=1.
 Leave Link  303 at Sat Feb 20 05:14:37 2021, MaxMem=  5242880000 cpu:         7.3
 (Enter /opt/nce/packages/global/g09/l401.exe)
 ExpMin= 9.52D-02 ExpMax= 1.97D+04 ExpMxC= 6.73D+02 IAcc=3 IRadAn=         5 AccDes= 0.00D+00
 Harris functional with IExCor= 1009 and IRadAn=       5 diagonalized for initial guess.
 HarFok:  IExCor= 1009 AccDes= 0.00D+00 IRadAn=         5 IDoV= 1 UseB2=F ITyADJ=14
 ICtDFT=  3500011 ScaDFX=  1.000000  1.000000  1.000000  1.000000
 FoFCou: FMM=F IPFlag=           0 FMFlag=      100000 FMFlg1=        2001
         NFxFlg=           0 DoJE=T BraDBF=F KetDBF=T FulRan=T
         wScrn=  0.000000 ICntrl=     500 IOpCl=  0 I1Cent=   200000004 NGrid=           0
         NMat0=    1 NMatS0=      1 NMatT0=    0 NMatD0=    1 NMtDS0=    0 NMtDT0=    0
 Symmetry not used in FoFCou.
 Harris En= -1943.32429017304    
 JPrj=0 DoOrth=F DoCkMO=F.
 Leave Link  401 at Sat Feb 20 05:15:01 2021, MaxMem=  5242880000 cpu:       280.1
 (Enter /opt/nce/packages/global/g09/l502.exe)
 Closed shell SCF:
 Using DIIS extrapolation, IDIIS=  1040.
 Two-electron integral symmetry not used.
 IVT=    12320572 IEndB=    12320572 NGot=  5242880000 MDV=  5234666575
 LenX=  5234666575 LenY=  5230576069
 Requested convergence on RMS density matrix=1.00D-08 within 128 cycles.
 Requested convergence on MAX density matrix=1.00D-06.
 Requested convergence on             energy=1.00D-06.
 No special actions if energy rises.
 Fock matrices will be formed incrementally for  20 cycles.

 Cycle   1  Pass 1  IDiag  1:
 FoFJK:  IHMeth= 1 ICntrl=       0 DoSepK=F KAlg= 0 I1Cent=   0 FoldK=F
 IRaf= 530000000 NMat=   1 IRICut=       1 DoRegI=T DoRafI=F ISym2E= 0.
 FoFCou: FMM=T IPFlag=           0 FMFlag=      100000 FMFlg1=        2001
         NFxFlg=           0 DoJE=F BraDBF=F KetDBF=F FulRan=T
         wScrn=  0.000000 ICntrl=       0 IOpCl=  0 I1Cent=           0 NGrid=           0
         NMat0=    1 NMatS0=      1 NMatT0=    0 NMatD0=    1 NMtDS0=    0 NMtDT0=    0
 Symmetry not used in FoFCou.
 FMM levels:  10  Number of levels for PrismC:   9
 Inv3:  Mode=1 IEnd=   123610683.
 Iteration    1 A*A^-1 deviation from unit magnitude is 7.55D-15 for   6402.
 Iteration    1 A*A^-1 deviation from orthogonality  is 5.77D-15 for   6404   5353.
 Iteration    1 A^-1*A deviation from unit magnitude is 7.77D-15 for   6402.
 Iteration    1 A^-1*A deviation from orthogonality  is 2.31D-09 for   5373   5362.
 Iteration    2 A*A^-1 deviation from unit magnitude is 2.78D-15 for    228.
 Iteration    2 A*A^-1 deviation from orthogonality  is 3.55D-15 for   6406   3226.
 Iteration    2 A^-1*A deviation from unit magnitude is 9.99D-16 for   5665.
 Iteration    2 A^-1*A deviation from orthogonality  is 5.55D-16 for   6391   3239.
 E= -1942.57051256644    
 DIIS: error= 1.90D-02 at cycle   1 NSaved=   1.
 NSaved= 1 IEnMin= 1 EnMin= -1942.57051256644     IErMin= 1 ErrMin= 1.90D-02
 ErrMax= 1.90D-02  0.00D+00 EMaxC= 1.00D-01 BMatC= 8.71D-01 BMatP= 8.71D-01
 IDIUse=3 WtCom= 8.10D-01 WtEn= 1.90D-01
 Coeff-Com:  0.100D+01
 Coeff-En:   0.100D+01
 Coeff:      0.100D+01
 Gap=     0.183 Goal=   None    Shift=    0.000
 GapD=    0.183 DampG=1.000 DampE=0.500 DampFc=0.5000 IDamp=-1.
 Damping current iteration by 5.00D-01
 RMSDP=2.62D-03 MaxDP=5.95D-01              OVMax= 1.98D-01

 Cycle   2  Pass 1  IDiag  1:
 RMSU=  1.31D-03    CP:  9.99D-01
 E= -1943.00522035959     Delta-E=       -0.434707793148 Rises=F Damp=T
 DIIS: error= 3.28D-03 at cycle   2 NSaved=   2.
 NSaved= 2 IEnMin= 2 EnMin= -1943.00522035959     IErMin= 2 ErrMin= 3.28D-03
 ErrMax= 3.28D-03  0.00D+00 EMaxC= 1.00D-01 BMatC= 5.59D-02 BMatP= 8.71D-01
 IDIUse=3 WtCom= 9.67D-01 WtEn= 3.28D-02
 Coeff-Com:  0.928D-02 0.991D+00
 Coeff-En:   0.134D-02 0.999D+00
 Coeff:      0.902D-02 0.991D+00
 Gap=     0.158 Goal=   None    Shift=    0.000
 RMSDP=1.13D-03 MaxDP=1.30D-01 DE=-4.35D-01 OVMax= 2.32D-01

 Cycle   3  Pass 1  IDiag  1:
 RMSU=  1.12D-03    CP:  1.00D+00  8.80D-01
 E= -1943.43478620089     Delta-E=       -0.429565841308 Rises=F Damp=F
 DIIS: error= 4.51D-03 at cycle   3 NSaved=   3.
 NSaved= 3 IEnMin= 3 EnMin= -1943.43478620089     IErMin= 2 ErrMin= 3.28D-03
 ErrMax= 4.51D-03  0.00D+00 EMaxC= 1.00D-01 BMatC= 5.92D-02 BMatP= 5.59D-02
 IDIUse=3 WtCom= 9.55D-01 WtEn= 4.51D-02
 Coeff-Com: -0.439D-01 0.533D+00 0.511D+00
 Coeff-En:   0.000D+00 0.000D+00 0.100D+01
 Coeff:     -0.420D-01 0.509D+00 0.533D+00
 Gap=     0.158 Goal=   None    Shift=    0.000
 RMSDP=2.72D-04 MaxDP=3.62D-02 DE=-4.30D-01 OVMax= 1.10D-01

 Cycle   4  Pass 1  IDiag  1:
 RMSU=  2.68D-04    CP:  1.00D+00  8.58D-01  9.67D-01
 E= -1943.48214498888     Delta-E=       -0.047358787985 Rises=F Damp=F
 DIIS: error= 1.98D-03 at cycle   4 NSaved=   4.
 NSaved= 4 IEnMin= 4 EnMin= -1943.48214498888     IErMin= 4 ErrMin= 1.98D-03
 ErrMax= 1.98D-03  0.00D+00 EMaxC= 1.00D-01 BMatC= 1.32D-02 BMatP= 5.59D-02
 IDIUse=3 WtCom= 9.80D-01 WtEn= 1.98D-02
 Coeff-Com: -0.207D-01 0.124D+00 0.337D+00 0.560D+00
 Coeff-En:   0.000D+00 0.000D+00 0.212D+00 0.788D+00
 Coeff:     -0.203D-01 0.121D+00 0.334D+00 0.565D+00
 Gap=     0.147 Goal=   None    Shift=    0.000
 RMSDP=9.77D-05 MaxDP=1.15D-02 DE=-4.74D-02 OVMax= 3.61D-02

 Cycle   5  Pass 1  IDiag  1:
 RMSU=  7.58D-05    CP:  1.00D+00  8.62D-01  9.69D-01  7.71D-01
 E= -1943.49514016990     Delta-E=       -0.012995181016 Rises=F Damp=F
 DIIS: error= 3.58D-04 at cycle   5 NSaved=   5.
 NSaved= 5 IEnMin= 5 EnMin= -1943.49514016990     IErMin= 5 ErrMin= 3.58D-04
 ErrMax= 3.58D-04  0.00D+00 EMaxC= 1.00D-01 BMatC= 4.27D-04 BMatP= 1.32D-02
 IDIUse=3 WtCom= 9.96D-01 WtEn= 3.58D-03
 Coeff-Com: -0.519D-02 0.194D-01 0.118D+00 0.249D+00 0.620D+00
 Coeff-En:   0.000D+00 0.000D+00 0.000D+00 0.000D+00 0.100D+01
 Coeff:     -0.517D-02 0.193D-01 0.117D+00 0.248D+00 0.621D+00
 Gap=     0.145 Goal=   None    Shift=    0.000
 RMSDP=2.75D-05 MaxDP=8.31D-03 DE=-1.30D-02 OVMax= 5.54D-03

 Cycle   6  Pass 1  IDiag  1:
 RMSU=  2.69D-05    CP:  1.00D+00  8.64D-01  9.65D-01  7.67D-01  1.02D+00
 E= -1943.49550367890     Delta-E=       -0.000363509007 Rises=F Damp=F
 DIIS: error= 1.66D-04 at cycle   6 NSaved=   6.
 NSaved= 6 IEnMin= 6 EnMin= -1943.49550367890     IErMin= 6 ErrMin= 1.66D-04
 ErrMax= 1.66D-04  0.00D+00 EMaxC= 1.00D-01 BMatC= 7.39D-05 BMatP= 4.27D-04
 IDIUse=3 WtCom= 9.98D-01 WtEn= 1.66D-03
 Coeff-Com: -0.468D-03-0.330D-04 0.283D-01 0.662D-01 0.329D+00 0.577D+00
 Coeff-En:   0.000D+00 0.000D+00 0.000D+00 0.000D+00 0.115D+00 0.885D+00
 Coeff:     -0.467D-03-0.330D-04 0.282D-01 0.661D-01 0.329D+00 0.577D+00
 Gap=     0.146 Goal=   None    Shift=    0.000
 RMSDP=1.11D-05 MaxDP=1.19D-03 DE=-3.64D-04 OVMax= 1.81D-03

 Cycle   7  Pass 1  IDiag  1:
 RMSU=  8.37D-06    CP:  1.00D+00  8.62D-01  9.66D-01  7.75D-01  1.11D+00
                    CP:  1.02D+00
 E= -1943.49557715232     Delta-E=       -0.000073473416 Rises=F Damp=F
 DIIS: error= 3.32D-05 at cycle   7 NSaved=   7.
 NSaved= 7 IEnMin= 7 EnMin= -1943.49557715232     IErMin= 7 ErrMin= 3.32D-05
 ErrMax= 3.32D-05  0.00D+00 EMaxC= 1.00D-01 BMatC= 4.02D-06 BMatP= 7.39D-05
 IDIUse=1 WtCom= 1.00D+00 WtEn= 0.00D+00
 Coeff-Com:  0.493D-03-0.211D-02-0.252D-03 0.139D-03 0.748D-01 0.230D+00
 Coeff-Com:  0.697D+00
 Coeff:      0.493D-03-0.211D-02-0.252D-03 0.139D-03 0.748D-01 0.230D+00
 Coeff:      0.697D+00
 Gap=     0.146 Goal=   None    Shift=    0.000
 RMSDP=6.01D-06 MaxDP=7.23D-04 DE=-7.35D-05 OVMax= 5.32D-04

 Cycle   8  Pass 1  IDiag  1:
 RMSU=  3.26D-06    CP:  1.00D+00  8.61D-01  9.66D-01  7.82D-01  1.15D+00
                    CP:  1.10D+00  1.31D+00
 E= -1943.49558032080     Delta-E=       -0.000003168479 Rises=F Damp=F
 DIIS: error= 1.76D-05 at cycle   8 NSaved=   8.
 NSaved= 8 IEnMin= 8 EnMin= -1943.49558032080     IErMin= 8 ErrMin= 1.76D-05
 ErrMax= 1.76D-05  0.00D+00 EMaxC= 1.00D-01 BMatC= 8.42D-07 BMatP= 4.02D-06
 IDIUse=1 WtCom= 1.00D+00 WtEn= 0.00D+00
 Coeff-Com:  0.379D-03-0.123D-02-0.357D-02-0.873D-02-0.315D-02 0.423D-01
 Coeff-Com:  0.356D+00 0.618D+00
[...]
 Alpha virt. eigenvalues --    2.79474   2.79866   2.80058   2.80314   2.80540
 Alpha virt. eigenvalues --    2.80732   2.80971   2.81164   2.81516   2.81746
 Alpha virt. eigenvalues --    2.81981   2.82269   2.82305   2.82536   2.82599
 Alpha virt. eigenvalues --    2.82843   2.83006   2.83183   2.83632   2.83827
 Alpha virt. eigenvalues --    2.83872   2.84442   2.84523   2.84986   2.85277
 Alpha virt. eigenvalues --    2.85669   2.85720   2.85802   2.86100   2.86161
 Alpha virt. eigenvalues --    2.86272   2.86466   2.86929   2.87235   2.87409
 Alpha virt. eigenvalues --    2.87586   2.87934   2.88114   2.88266   2.89177
 Alpha virt. eigenvalues --    2.89632   2.89866   2.90285   2.90396   2.91298
 Alpha virt. eigenvalues --    2.91611   2.91694   2.91917   2.92088   2.92604
 Alpha virt. eigenvalues --    2.92972   2.93239   2.93603   2.93882   2.94128
 Alpha virt. eigenvalues --    2.94283   2.94579   2.95298   2.95780   2.96245
 Alpha virt. eigenvalues --    2.96994   2.97395   2.97598   2.97682   2.97712
 Alpha virt. eigenvalues --    2.98080   2.98562   2.98789   2.98807   2.99160
 Alpha virt. eigenvalues --    2.99300   2.99449   2.99609   3.00000   3.00177
 Alpha virt. eigenvalues --    3.00313   3.00605   3.01313   3.01918   3.02299
 Alpha virt. eigenvalues --    3.02427   3.02555   3.02972   3.03122   3.03157
 Alpha virt. eigenvalues --    3.03596   3.03653   3.04000   3.04259   3.04581
 Alpha virt. eigenvalues --    3.05124   3.05357   3.05507   3.06019   3.06233
 Alpha virt. eigenvalues --    3.06709   3.07150   3.07637   3.07876   3.07968
 Alpha virt. eigenvalues --    3.08761   3.09071   3.09436   3.09705   3.10115
 Alpha virt. eigenvalues --    3.10477   3.10693   3.10970   3.11072   3.11147
 Alpha virt. eigenvalues --    3.11278   3.11410   3.11653   3.11843   3.12194
 Alpha virt. eigenvalues --    3.12305   3.12746   3.13086   3.13271   3.13345
 Alpha virt. eigenvalues --    3.13500   3.13639   3.13796   3.13930   3.14248
 Alpha virt. eigenvalues --    3.14637   3.15096   3.15358   3.15638   3.15917
 Alpha virt. eigenvalues --    3.16532   3.16661   3.16783   3.17057   3.17104
 Alpha virt. eigenvalues --    3.17330   3.17449   3.17908   3.18026   3.18191
 Alpha virt. eigenvalues --    3.18450   3.18910   3.19072   3.19585   3.20079
 Alpha virt. eigenvalues --    3.20368   3.20624   3.20947   3.21117   3.21638
 Alpha virt. eigenvalues --    3.22036   3.22306   3.22812   3.23072   3.23334
 Alpha virt. eigenvalues --    3.23442   3.23710   3.23760   3.23961   3.24159
 Alpha virt. eigenvalues --    3.24357   3.24810   3.24998   3.25409   3.25905
 Alpha virt. eigenvalues --    3.25987   3.26247   3.26442   3.26628   3.27311
 Alpha virt. eigenvalues --    3.27384   3.27636   3.27980   3.28247   3.28312
 Alpha virt. eigenvalues --    3.28784   3.28794   3.29009   3.29467   3.29882
 Alpha virt. eigenvalues --    3.29987   3.30241   3.30666   3.30971   3.31099
 Alpha virt. eigenvalues --    3.31310   3.31698   3.32003   3.32440   3.32579
 Alpha virt. eigenvalues --    3.32872   3.33191   3.33339   3.33407   3.33850
 Alpha virt. eigenvalues --    3.33951   3.34219   3.34349   3.34470   3.34667
 Alpha virt. eigenvalues --    3.34745   3.35060   3.35275   3.35464   3.35689
 Alpha virt. eigenvalues --    3.35839   3.35995   3.36189   3.36478   3.36666
 Alpha virt. eigenvalues --    3.36923   3.37100   3.37736   3.38135   3.38343
 Alpha virt. eigenvalues --    3.38359   3.38587   3.38864   3.39174   3.39447
 Alpha virt. eigenvalues --    3.39538   3.40023   3.40183   3.40439   3.40611
 Alpha virt. eigenvalues --    3.40931   3.41080   3.41470   3.41619   3.41972
 Alpha virt. eigenvalues --    3.42149   3.42368   3.42664   3.42887   3.43175
 Alpha virt. eigenvalues --    3.43505   3.44420   3.44441   3.44524   3.44807
 Alpha virt. eigenvalues --    3.45159   3.45575   3.45630   3.46012   3.46101
 Alpha virt. eigenvalues --    3.46385   3.46664   3.47094   3.47282   3.47584
 Alpha virt. eigenvalues --    3.48011   3.48304   3.48673   3.48980   3.49281
 Alpha virt. eigenvalues --    3.49651   3.50088   3.50281   3.50675   3.51051
 Alpha virt. eigenvalues --    3.51329   3.51576   3.51905   3.52013   3.52332
 Alpha virt. eigenvalues --    3.52437   3.53089   3.53169   3.53480   3.53627
 Alpha virt. eigenvalues --    3.53960   3.54168   3.54450   3.54807   3.55024
 Alpha virt. eigenvalues --    3.55451   3.55517   3.55676   3.55807   3.55975
 Alpha virt. eigenvalues --    3.56389   3.56735   3.56958   3.57374   3.57801
 Alpha virt. eigenvalues --    3.58292   3.58589   3.59137   3.59384   3.59522
 Alpha virt. eigenvalues --    3.59787   3.61034   3.61260   3.61563   3.61873
 Alpha virt. eigenvalues --    3.62608   3.62971   3.63901   3.64106   3.64476
 Alpha virt. eigenvalues --    3.64711   3.65140   3.66061   3.66206   3.66582
 Alpha virt. eigenvalues --    3.67141   3.67546   3.68120   3.68463   3.68808
 Alpha virt. eigenvalues --    3.68974   3.69430   3.69897   3.70093   3.70340
 Alpha virt. eigenvalues --    3.70793   3.71795   3.72459   3.73417   3.73770
 Alpha virt. eigenvalues --    3.74046   3.74555   3.74654   3.76098   3.76378
 Alpha virt. eigenvalues --    3.76691   3.77689   3.78723   3.78819   3.79106
 Alpha virt. eigenvalues --    3.79394   3.81379   3.81503   3.81643   3.82375
 Alpha virt. eigenvalues --    3.82601   3.82921   3.83345   3.83791   3.84196
 Alpha virt. eigenvalues --    3.85040   3.85683   3.86182   3.86425   3.86647
 Alpha virt. eigenvalues --    3.86857   3.87597   3.88134   3.88384   3.88683
 Alpha virt. eigenvalues --    3.88734   3.89655   3.89804   3.89972   3.90476
 Alpha virt. eigenvalues --    3.91238   3.92030   3.92402   3.93431   3.93687
 Alpha virt. eigenvalues --    3.93999   3.94066   3.94579   3.95489   3.95582
 Alpha virt. eigenvalues --    3.95763   3.96211   3.96686   3.97434   3.97627
 Alpha virt. eigenvalues --    3.97924   3.98427   3.99981   4.00188   4.00563
 Alpha virt. eigenvalues --    4.01552   4.01840   4.03997   4.04543   4.05064
 Alpha virt. eigenvalues --    4.05333   4.05956   4.06807   4.07409   4.08150
 Alpha virt. eigenvalues --    4.08197   4.08869   4.09066   4.09676   4.09933
 Alpha virt. eigenvalues --    4.10549   4.10643   4.10787   4.11161   4.11216
 Alpha virt. eigenvalues --    4.12219   4.12725   4.12976   4.13558   4.13709
 Alpha virt. eigenvalues --    4.13892   4.14364   4.14495   4.14835   4.15095
 Alpha virt. eigenvalues --    4.15225   4.15322   4.16032   4.16144   4.16398
 Alpha virt. eigenvalues --    4.16677   4.16935   4.17333   4.17484   4.17719
 Alpha virt. eigenvalues --    4.18241   4.18605   4.18697   4.18969   4.19095
 Alpha virt. eigenvalues --    4.19261   4.19847   4.19938   4.20250   4.20511
 Alpha virt. eigenvalues --    4.20791   4.20943   4.21135   4.21383   4.21615
 Alpha virt. eigenvalues --    4.21891   4.22542   4.23224   4.23760   4.24017
 Alpha virt. eigenvalues --    4.24208   4.24340   4.24891   4.25573   4.26213
 Alpha virt. eigenvalues --    4.26687   4.26723   4.26897   4.27177   4.27432
 Alpha virt. eigenvalues --    4.28206   4.28320   4.28383   4.28916   4.29242
 Alpha virt. eigenvalues --    4.31008   4.31418   4.31982   4.32238   4.33691
 Alpha virt. eigenvalues --    4.34245   4.34793   4.35829   4.36190   4.36486
 Alpha virt. eigenvalues --    4.37198   4.38089   4.38367   4.38437   4.39033
 Alpha virt. eigenvalues --    4.39770   4.39968   4.40896   4.41839   4.41889
 Alpha virt. eigenvalues --    4.42675   4.44016   4.44455   4.45927   4.46221
 Alpha virt. eigenvalues --    4.46536   4.46829   4.48017   4.49472   4.49778
 Alpha virt. eigenvalues --    4.50625   4.51348   4.51860   4.53080   4.53338
 Alpha virt. eigenvalues --    4.53935   4.54949   4.55254   4.57032   4.57226
 Alpha virt. eigenvalues --    4.58303   4.59210   4.59491   4.60978   4.60988
 Alpha virt. eigenvalues --    4.61253   4.61903   4.62095   4.63131   4.63380
 Alpha virt. eigenvalues --    4.64325   4.64668   4.65254   4.65459   4.67156
 Alpha virt. eigenvalues --    4.67982   4.68323   4.69011   4.69925   4.70585
 Alpha virt. eigenvalues --    4.71128   4.72076   4.72565   4.72690   4.73531
 Alpha virt. eigenvalues --    4.73723   4.74421   4.74797   4.75173   4.76247
 Alpha virt. eigenvalues --    4.77426   4.78238   4.78359   4.79750   4.79858
 Alpha virt. eigenvalues --    4.80506   4.81362   4.82688   4.83649   4.86956
 Alpha virt. eigenvalues --    4.87266   4.91159   4.92250   4.92352   4.92618
 Alpha virt. eigenvalues --    4.92983   4.93812   4.94460   4.94478   4.95387
 Alpha virt. eigenvalues --    4.96370   4.97990   4.99126   4.99327   5.00319
 Alpha virt. eigenvalues --    5.00734   5.01669   5.02405   5.03403   5.04144
 Alpha virt. eigenvalues --    5.04262   5.04588   5.05793   5.06183   5.07727
 Alpha virt. eigenvalues --    5.11254   5.13701   5.13912   5.15026   5.15274
 Alpha virt. eigenvalues --    5.15772   5.17647   5.18112   5.18879   5.19494
 Alpha virt. eigenvalues --    5.20282   5.23139   5.23948   5.24971   5.26078
 Alpha virt. eigenvalues --    5.27461   5.28267   5.30334   5.34317   5.34512
 Alpha virt. eigenvalues --    5.36195   5.38858   5.39453   5.40591   5.41576
 Alpha virt. eigenvalues --    5.42035   5.43663   5.43693   5.44231   5.44898
 Alpha virt. eigenvalues --    5.45034   5.47222   5.50078   5.51946   5.52532
 Alpha virt. eigenvalues --    5.53909   5.54470   5.56496   5.58094   5.59163
 Alpha virt. eigenvalues --    5.59797   5.61243   5.64920   5.65781   5.66502
 Alpha virt. eigenvalues --    5.66715   5.69166   5.73729   5.74319   5.75046
 Alpha virt. eigenvalues --    5.81174   5.84239   5.94187   6.00546   6.01279
 Alpha virt. eigenvalues --    6.21323   6.26284   6.31840  22.02135  22.04535
 Alpha virt. eigenvalues --   22.26645  22.34535  22.36990  22.46300  22.46931
 Alpha virt. eigenvalues --   22.50533  22.50827  22.58592  22.58621  22.59934
 Alpha virt. eigenvalues --   22.61856  22.61872  22.66306  22.70240  22.72133
 Alpha virt. eigenvalues --   22.72908  22.75293  22.75367  22.76199  22.76987
 Alpha virt. eigenvalues --   22.77221  22.79612  22.80323  22.80426  22.83043
 Alpha virt. eigenvalues --   22.85063  22.85310  22.85886  22.89360  22.93029
 Alpha virt. eigenvalues --   22.93401  22.95887  22.96146  23.00067  23.03725
 Alpha virt. eigenvalues --   23.05995  23.10357  23.13731  23.16093  23.26025
 Alpha virt. eigenvalues --   23.27374  23.27990  23.45672  23.47873  23.59688
 Alpha virt. eigenvalues --   23.61059  23.69102  33.42543
          Condensed to atoms (all electrons):
 Mulliken charges:
               1
     1  C   -0.175703
     2  C   -0.271773
     3  C    0.277218
     4  C   -0.196200
     5  C   -0.237348
     6  C    0.088362
     7  C    0.072350
     8  C   -0.208664
     9  C    0.282184
    10  C   -0.271594
    11  H    0.162115
    12  C   -0.177357
    13  C    0.082468
    14  C   -0.223894
    15  H    0.163061
    16  H    0.192023
    17  H    0.133647
    18  N    0.086794
    19  C   -0.021688
    20  C   -0.234264
    21  C   -0.169605
    22  C   -0.188873
    23  C    0.021615
    24  C   -0.019442
    25  H    0.121619
    26  C   -0.122159
    27  H    0.192266
    28  C   -0.030334
    29  C   -0.059522
    30  H    0.124054
    31  C   -0.130668
    32  H    0.126424
    33  H    0.118922
    34  H    0.115470
    35  H    0.127308
    36  H    0.193170
    37  H    0.133809
    38  C   -0.377539
    39  H    0.132534
    40  H    0.127384
    41  H    0.128843
    42  C   -0.372817
    43  H    0.129651
    44  H    0.131911
    45  H    0.127583
    46  C    0.099235
    47  C   -0.222551
    48  C   -0.213792
    49  C   -0.218273
    50  H    0.160217
    51  C   -0.214517
    52  H    0.143133
    53  C    0.166163
    54  H    0.143013
    55  H    0.143351
    56  C    0.123261
    57  C   -0.212990
    58  C   -0.213485
    59  C   -0.149080
    60  H    0.147822
    61  C   -0.148441
    62  H    0.147474
    63  C   -0.122879
    64  H    0.129427
    65  H    0.129414
    66  H    0.131464
    67  C    0.098846
    68  C   -0.224723
    69  C   -0.209502
    70  C   -0.214608
    71  H    0.159900
    72  C   -0.218963
    73  H    0.143352
    74  C    0.165346
    75  H    0.143072
    76  H    0.143716
    77  C    0.123238
    78  C   -0.212018
    79  C   -0.213944
    80  C   -0.149190
    81  H    0.147642
    82  C   -0.149244
    83  H    0.147952
    84  C   -0.122594
    85  H    0.129433
    86  H    0.129497
    87  H    0.131483
 Sum of Mulliken charges =  -0.00000
 Mulliken charges with hydrogens summed into heavy atoms:
               1
     1  C   -0.041894
     2  C   -0.108713
     3  C    0.277218
     4  C   -0.196200
     5  C   -0.045325
     6  C    0.088362
     7  C    0.072350
     8  C   -0.208664
     9  C    0.282184
    10  C   -0.109479
    12  C   -0.043710
    13  C    0.082468
    14  C   -0.030724
    18  N    0.086794
    19  C   -0.021688
    20  C   -0.234264
    21  C   -0.047987
    22  C    0.003394
    23  C    0.021615
    24  C    0.104612
    26  C    0.004266
    28  C    0.088588
    29  C    0.055948
    31  C   -0.003360
    38  C    0.011222
    42  C    0.016328
    46  C    0.099235
    47  C   -0.062334
    48  C   -0.070659
    49  C   -0.075260
    51  C   -0.071166
    53  C    0.166163
    56  C    0.123261
    57  C   -0.065168
    58  C   -0.066011
    59  C   -0.019653
    61  C   -0.019027
    63  C    0.008585
    67  C    0.098846
    68  C   -0.064823
    69  C   -0.066150
    70  C   -0.071536
    72  C   -0.075246
    74  C    0.165346
    77  C    0.123238
    78  C   -0.064376
    79  C   -0.065992
    80  C   -0.019756
    82  C   -0.019747
    84  C    0.008889
 Electronic spatial extent (au):  <R**2>=          56755.9256
 Charge=             -0.0000 electrons
 Dipole moment (field-independent basis, Debye):
    X=              0.0144    Y=              1.8751    Z=              0.1254  Tot=              1.8793
 Quadrupole moment (field-independent basis, Debye-Ang):
   XX=           -281.4238   YY=           -253.2537   ZZ=           -277.1349
   XY=             -0.8561   XZ=             -6.3255   YZ=             -2.9558
 Traceless Quadrupole moment (field-independent basis, Debye-Ang):
   XX=            -10.8197   YY=             17.3505   ZZ=             -6.5308
   XY=             -0.8561   XZ=             -6.3255   YZ=             -2.9558
 Octapole moment (field-independent basis, Debye-Ang**2):
  XXX=              5.9747  YYY=            202.1932  ZZZ=             22.4063  XYY=            -29.0779
  XXY=           -171.1675  XXZ=             22.3122  XZZ=             29.4906  YZZ=             31.5134
  YYZ=            -13.6484  XYZ=            -76.7089
 Hexadecapole moment (field-independent basis, Debye-Ang**3):
 XXXX=         -56771.2040 YYYY=         -14506.5967 ZZZZ=          -2190.9479 XXXY=           -196.6883
 XXXZ=          -1318.8233 YYYX=            228.8068 YYYZ=             54.7309 ZZZX=             -3.5112
 ZZZY=             24.7523 XXYY=         -12181.7488 XXZZ=         -10235.0186 YYZZ=          -2734.9049
 XXYZ=            -77.3227 YYXZ=            405.5336 ZZXY=           -102.1454
 N-N= 5.388034909923D+03 E-N=-1.528756926202D+04  KE= 1.933976801029D+03
 Leave Link  601 at Wed Feb 24 19:06:06 2021, MaxMem=  5242880000 cpu:        27.1
 (Enter /opt/nce/packages/global/g09/l9999.exe)
 1\1\GINC-CN043\SP\RM06 TD-FC\Gen\C49H37N1\PNG4RJV\24-Feb-2021\0\\#p m0
 6 chkbasis geom=allcheck Guess=Read int=ultrafine scrf=(SMD,solvent=n,
 n-DiMethylFormamide) td=(NStates=30)\\Title\\0,1\C,0,3.6335864996,1.45
 22797849,-0.5743706645\C,0,2.4195484512,2.0915275322,-0.6815885933\C,0
 ,1.2162818617,1.3861746591,-0.5755192322\C,0,1.25580346,0.006017072,-0
 .3501986516\C,0,2.4975649755,-0.6054903395,-0.2456067093\C,0,3.7038504
 912,0.0791396162,-0.3513099436\C,0,-0.0004032485,-0.8375943265,-0.2024
 772902\C,0,-1.2549779583,0.0060425603,-0.3635312352\C,0,-1.2124657648,
 1.3874474027,-0.5807941079\C,0,-2.4143954504,2.0951585886,-0.686536325
 \H,0,-2.3949139123,3.1629046961,-0.8647426084\C,0,-3.6294583803,1.4579
 802491,-0.5808674705\C,0,-3.7029989704,0.0828696108,-0.3706382979\C,0,
 -2.4979692902,-0.6048636254,-0.269124998\H,0,2.4019828955,3.1616835797
 ,-0.8449712753\H,0,2.5296423779,-1.6784490709,-0.0878892313\H,0,-4.536
 7351048,2.0426210064,-0.6870176239\N,0,0.0024168238,2.0601786144,-0.68
 9200116\C,0,0.0032336873,3.4842909757,-0.779853941\C,0,-0.000488565,4.
 2500715732,0.412544148\C,0,0.0073883723,4.0898136906,-2.0036385009\C,0
 ,-0.0043752421,3.6623823367,1.696155758\C,0,-0.0002440475,5.666040089,
 0.3027482167\C,0,0.0077734851,5.4915579616,-2.1055248679\H,0,0.0101216
 924,3.4723888105,-2.8957328372\C,0,-0.0079341296,4.443594295,2.8170450
 337\H,0,-0.0044848987,2.5805037189,1.7851369233\C,0,-0.0040863651,6.44
 1497624,1.4820663308\C,0,0.0039254827,6.2602279749,-0.9775482736\H,0,0
 .0109885046,5.9551973064,-3.0849906999\C,0,-0.0078459694,5.8462961163,
 2.7107223911\H,0,-0.0108314617,3.9814975971,3.7976804494\H,0,-0.003910
 7921,7.5228480874,1.3890361369\H,0,0.0040243114,7.3433853095,-1.045069
 3019\H,0,-0.0107066213,6.4520065509,3.6097066264\H,0,-2.5310336075,-1.
 6720787528,-0.0764084754\H,0,4.5419440838,2.0409527069,-0.6415912368\C
 ,0,0.0034919347,-1.9435658171,-1.262926143\H,0,0.0102510524,-1.5157063
 85,-2.2690055872\H,0,0.8812511374,-2.5849881747,-1.160447556\H,0,-0.87
 90110325,-2.5800224513,-1.170330867\C,0,-0.0058200517,-1.4697567273,1.
 1944670697\H,0,0.8772317804,-2.0945990311,1.3461558777\H,0,-0.01173662
 22,-0.6952395949,1.9672358826\H,0,-0.8860166955,-2.1003828116,1.338025
 8696\C,0,4.9950302383,-0.6155257529,-0.2227519236\C,0,5.1434456748,-1.
 7273861165,0.607030859\C,0,6.1225524424,-0.1837741486,-0.9220510792\C,
 0,6.3578766771,-2.3723713611,0.7331985785\H,0,4.2954448173,-2.08763081
 88,1.1797859186\C,0,7.3365022967,-0.8302132414,-0.7973679991\H,0,6.046
 7104167,0.6690021625,-1.5883061107\C,0,7.484280752,-1.9391472383,0.034
 8278185\H,0,6.4286123738,-3.239475443,1.3812385459\H,0,8.1922238369,-0
 .4549915387,-1.3485437661\C,0,8.7815752924,-2.6249935062,0.1745347246\
 C,0,9.16208085,-3.1988984901,1.3880071123\C,0,9.6658394321,-2.71825977
 19,-0.9007326963\C,0,10.3800014842,-3.8416153227,1.5216177896\H,0,8.50
 31301025,-3.1228447647,2.2463443518\C,0,10.8835361758,-3.3618239042,-0
 .7679129974\H,0,9.3871749912,-2.2984495863,-1.8614250997\C,0,11.247261
 1325,-3.9266339413,0.4440989011\H,0,10.6566065665,-4.2728090206,2.4773
 771147\H,0,11.5504473907,-3.4281830616,-1.6204049473\H,0,12.2015300164
 ,-4.4302939306,0.5484910085\C,0,-4.996235696,-0.6096170556,-0.25131990
 54\C,0,-5.1616292868,-1.9282701345,-0.6764454762\C,0,-6.1089081326,0.0
 303625004,0.2957952137\C,0,-6.3765191286,-2.5743674108,-0.5575580169\H
 ,0,-4.3268554679,-2.4577098277,-1.1232708207\C,0,-7.3229007333,-0.6161
 139881,0.4160945032\H,0,-6.0201464488,1.052008244,0.6493436912\C,0,-7.
 4862709714,-1.9348540897,-0.0064195822\H,0,-6.4596031086,-3.6043331335
 ,-0.8881369747\H,0,-8.1659945451,-0.078888662,0.8372559187\C,0,-8.7820
 388412,-2.6250668009,0.1263501718\C,0,-9.1991040193,-3.5614852694,-0.8
 199583406\C,0,-9.6282589101,-2.3604833585,1.2037186095\C,0,-10.4160689
 34,-4.2080183686,-0.6942915178\H,0,-8.5705296449,-3.7715967814,-1.6787
 257729\C,0,-10.844809005,-3.0072789241,1.3303231528\H,0,-9.319767845,-
 1.653141495,1.9661358181\C,0,-11.2454133113,-3.9344115229,0.3816514633
 \H,0,-10.7219549759,-4.9257144027,-1.4474524526\H,0,-11.4811953507,-2.
 7901739083,2.1810878953\H,0,-12.1986597828,-4.441151403,0.4802992665\\
 Version=ES64L-G09RevE.01\State=1-A\HF=-1943.5038885\RMSD=8.832e-09\PG=
 C01 [X(C49H37N1)]\\@


 YOU KNOW YOU'VE SPOKEN TOO LONG WHEN THE AUDIENCE STOPS LOOKING AT
 THEIR WATCHES AND STARTS SHAKING THEM.
 Job cpu time:       8 days  1 hours 47 minutes  4.9 seconds.
 File lengths (MBytes):  RWF=  13938 Int=      0 D2E=      0 Chk=   2767 Scr=      1
 Normal termination of Gaussian 09 at Wed Feb 24 19:06:18 2021.
