 Entering Gaussian System, Link 0=g09
 Input=/home/png4rjv/fotokatalizis/benchmark/OPCs/RESTART_extended/Eos_3_TDHF_def2TZVP.gjf
 Output=/home/png4rjv/fotokatalizis/benchmark/OPCs/RESTART_extended/Eos_3_TDHF_def2TZVP.log
 Initial command:
 /opt/nce/packages/global/g09/l1.exe "/home/png4rjv/fotokatalizis/benchmark/OPCs/RESTART_extended/Eos_3_TDHF_def2TZVP/Gau-11665.inp" -scrdir="/home/png4rjv/fotokatalizis/benchmark/OPCs/RESTART_extended/Eos_3_TDHF_def2TZVP/"
 Default is to use a total of  12 processors:
                               12 via shared-memory
                                1 via Linda
 Entering Link 1 = /opt/nce/packages/global/g09/l1.exe PID=     11666.
  
 Copyright (c) 1988,1990,1992,1993,1995,1998,2003,2009,2015,
            Gaussian, Inc.  All Rights Reserved.
  
 This is part of the Gaussian(R) 09 program.  It is based on
 the Gaussian(R) 03 system (copyright 2003, Gaussian, Inc.),
 the Gaussian(R) 98 system (copyright 1998, Gaussian, Inc.),
 the Gaussian(R) 94 system (copyright 1995, Gaussian, Inc.),
 the Gaussian 92(TM) system (copyright 1992, Gaussian, Inc.),
 the Gaussian 90(TM) system (copyright 1990, Gaussian, Inc.),
 the Gaussian 88(TM) system (copyright 1988, Gaussian, Inc.),
 the Gaussian 86(TM) system (copyright 1986, Carnegie Mellon
 University), and the Gaussian 82(TM) system (copyright 1983,
 Carnegie Mellon University). Gaussian is a federally registered
 trademark of Gaussian, Inc.
  
 This software contains proprietary and confidential information,
 including trade secrets, belonging to Gaussian, Inc.
  
 This software is provided under written license and may be
 used, copied, transmitted, or stored only in accord with that
 written license.
  
 The following legend is applicable only to US Government
 contracts under FAR:
  
                    RESTRICTED RIGHTS LEGEND
  
 Use, reproduction and disclosure by the US Government is
 subject to restrictions as set forth in subparagraphs (a)
 and (c) of the Commercial Computer Software - Restricted
 Rights clause in FAR 52.227-19.
  
 Gaussian, Inc.
 340 Quinnipiac St., Bldg. 40, Wallingford CT 06492
  
  
 ---------------------------------------------------------------
 Warning -- This program may not be used in any manner that
 competes with the business of Gaussian, Inc. or will provide
 assistance to any competitor of Gaussian, Inc.  The licensee
 of this program is prohibited from giving any competitor of
 Gaussian, Inc. access to this program.  By using this program,
 the user acknowledges that Gaussian, Inc. is engaged in the
 business of creating and licensing software in the field of
 computational chemistry and represents and warrants to the
 licensee that it is not a competitor of Gaussian, Inc. and that
 it will not use this program in any manner prohibited above.
 ---------------------------------------------------------------
  

 Cite this work as:
 Gaussian 09, Revision E.01,
 M. J. Frisch, G. W. Trucks, H. B. Schlegel, G. E. Scuseria, 
 M. A. Robb, J. R. Cheeseman, G. Scalmani, V. Barone, B. Mennucci, 
 G. A. Petersson, H. Nakatsuji, M. Caricato, X. Li, H. P. Hratchian, 
 A. F. Izmaylov, J. Bloino, G. Zheng, J. L. Sonnenberg, M. Hada, 
 M. Ehara, K. Toyota, R. Fukuda, J. Hasegawa, M. Ishida, T. Nakajima, 
 Y. Honda, O. Kitao, H. Nakai, T. Vreven, J. A. Montgomery, Jr., 
 J. E. Peralta, F. Ogliaro, M. Bearpark, J. J. Heyd, E. Brothers, 
 K. N. Kudin, V. N. Staroverov, T. Keith, R. Kobayashi, J. Normand, 
 K. Raghavachari, A. Rendell, J. C. Burant, S. S. Iyengar, J. Tomasi, 
 M. Cossi, N. Rega, J. M. Millam, M. Klene, J. E. Knox, J. B. Cross, 
 V. Bakken, C. Adamo, J. Jaramillo, R. Gomperts, R. E. Stratmann, 
 O. Yazyev, A. J. Austin, R. Cammi, C. Pomelli, J. W. Ochterski, 
 R. L. Martin, K. Morokuma, V. G. Zakrzewski, G. A. Voth, 
 P. Salvador, J. J. Dannenberg, S. Dapprich, A. D. Daniels, 
 O. Farkas, J. B. Foresman, J. V. Ortiz, J. Cioslowski, 
 and D. J. Fox, Gaussian, Inc., Wallingford CT, 2013.
 
 ******************************************
 Gaussian 09:  ES64L-G09RevE.01 30-Nov-2015
                18-Feb-2022 
 ******************************************
 %chk=cp.chk
 Default route:  MaxDisk=500GB
 ----------------------------------------------------------------------
 #p hf/def2TZVP freq=noraman nosymm int=(Acc2E=11,ultrafine) scrf=(SMD,
 solvent=Acetonitrile)
 ----------------------------------------------------------------------
 1/10=4,30=1,38=1/1,3;
 2/12=2,15=1,17=6,18=5,40=1/2;
 3/5=44,7=101,11=9,16=1,25=1,30=1,70=32201,71=2,72=2,75=-5,140=1/1,2,3;
 4//1;
 5/5=2,38=5,53=2,87=11,98=1/2;
 8/6=4,10=90,11=11,87=11/1;
 11/6=1,8=1,9=11,15=111,16=1,31=1,87=11/1,2,10;
 10/6=1,31=1,87=11/2;
 6/7=2,8=2,9=2,10=2,18=1,28=1/1;
 7/8=1,10=1,25=1,30=1,87=11/1,2,3,16;
 1/10=4,30=1/3;
 99//99;
 Leave Link    1 at Fri Feb 18 11:09:19 2022, MaxMem=           0 cpu:         5.0
 (Enter /opt/nce/packages/global/g09/l101.exe)
 -----
 Title
 -----
 Symbolic Z-matrix:
 Charge = -2 Multiplicity = 1
 C                    -7.42584  -3.9337   -8.55779 
 C                    -6.1699   -3.77018  -7.85341 
 C                    -5.57652  -2.53866  -7.82462 
 C                    -6.11677  -1.38909  -8.4566 
 C                    -7.35733  -1.55839  -9.13334 
 C                    -7.98046  -2.74583  -9.18348 
 C                    -5.43187  -0.17982  -8.37106 
 C                    -4.21425  -0.12165  -7.69239 
 C                    -3.72143  -1.28574  -7.05637 
 C                    -2.55389  -1.30533  -6.35069 
 C                    -1.75209  -0.10351  -6.2424 
 C                    -2.25923   1.10352  -6.90243 
 C                    -3.43135   1.05433  -7.56974 
 H                    -7.80137  -0.70832  -9.61356 
 H                    -8.91583  -2.85941  -9.69994 
 H                    -3.79452   1.9433   -8.046 
 O                    -4.41884  -2.43025  -7.15122 
 O                    -0.70389  -0.09874  -5.60838 
 O                    -8.00477  -5.01175  -8.64232 
 C                    -5.91926   1.01272  -9.14222 
 C                    -5.46977   1.09181  -10.45583 
 C                    -6.75842   2.00518  -8.63967 
 C                    -5.83845   2.13682  -11.27671 
 H                    -4.82248   0.32372  -10.83685 
 C                    -7.1182    3.05017  -9.48435 
 C                    -6.67091   3.12555  -10.78664 
 H                    -5.47794   2.17595  -12.28789 
 H                    -7.76317   3.8102   -9.0928 
 H                    -6.96773   3.94658  -11.4128 
 C                    -7.30763   2.00815  -7.20351 
 O                    -8.02698   2.96     -6.90234 
 O                    -6.98185   1.0653   -6.48767 
 C                    -5.54738  -4.96793  -7.21451 
 C                    -6.12207  -5.57688  -6.14429 
 C                    -4.36262  -5.53517  -7.75818 
 C                    -5.57817  -6.75632  -5.5766 
 H                    -7.02171  -5.17437  -5.71654 
 C                    -3.81572  -6.66061  -7.23818 
 H                    -3.90051  -5.06146  -8.60433 
 C                    -4.41218  -7.3102   -6.12924 
 H                    -2.92183  -7.07623  -7.66658 
 C                    -2.05049  -2.52952  -5.658 
 C                    -2.6242   -2.99027  -4.51728 
 C                    -0.91495  -3.21696  -6.17067 
 C                    -2.11659  -4.12601  -3.83324 
 H                    -3.48     -2.48847  -4.10379 
 C                    -0.40699  -4.30418  -5.54434 
 H                    -0.45559  -2.8579   -7.07274 
 C                    -0.99254  -4.79097  -4.34725 
 H                     0.45137  -4.81095  -5.94688 
 C                    -1.50211   2.38534  -6.82449 
 C                    -2.19546   3.59382  -6.533 
 C                    -0.16069   2.45514  -7.05251 
 C                    -1.55484   4.78767  -6.49319 
 H                    -3.24887   3.55424  -6.32946 
 C                     0.53698   3.68679  -7.019 
 H                     0.39515   1.56382  -7.26593 
 H                    -2.10006   5.6856   -6.26552 
 C                    -6.18585  -7.40164  -4.46819 
 C                    -5.65348  -8.53649  -3.95082 
 H                    -6.1206   -9.01946  -3.11254 
 C                    -4.47875  -9.09408  -4.50948 
 H                    -4.06815  -9.9932   -4.08869 
 C                    -3.87613  -8.49686  -5.5674 
 H                    -2.98337  -8.91603  -5.99465 
 H                    -7.07804  -6.97664  -4.0457 
 C                    -2.70787  -4.60249  -2.6356 
 C                    -2.19616  -5.68224  -1.99279 
 H                    -2.64989  -6.03644  -1.08571 
 C                    -1.0631   -6.35102  -2.51139 
 H                    -0.66898  -7.20505  -1.99234 
 C                    -0.47946  -5.91741  -3.65693 
 H                     0.38137  -6.4227   -4.05576 
 H                    -3.56933  -4.09282  -2.24411 
 C                    -0.16317   4.87173  -6.73837 
 C                     0.54102   6.10267  -6.70582 
 C                     1.87488   6.1418   -6.94596 
 H                     2.40315   7.07683  -6.92084 
 C                     2.58246   4.94893  -7.23149 
 H                     3.63921   4.99418  -7.41965 
 C                     1.93388   3.75895  -7.26612 
 H                     2.4696    2.85238  -7.48133 
 H                    -0.00142   7.0047   -6.48788 
 
 NAtoms=     83 NQM=       83 NQMF=       0 NMMI=      0 NMMIF=      0
                NMic=       0 NMicF=      0.
                    Isotopes and Nuclear Properties:
 (Nuclear quadrupole moments (NQMom) in fm**2, nuclear magnetic moments (NMagM)
  in nuclear magnetons)

  Atom         1           2           3           4           5           6           7           8           9          10
 IAtWgt=          12          12          12          12          12          12          12          12          12          12
 AtmWgt=  12.0000000  12.0000000  12.0000000  12.0000000  12.0000000  12.0000000  12.0000000  12.0000000  12.0000000  12.0000000
 NucSpn=           0           0           0           0           0           0           0           0           0           0
 AtZEff=   0.0000000   0.0000000   0.0000000   0.0000000   0.0000000   0.0000000   0.0000000   0.0000000   0.0000000   0.0000000
 NQMom=    0.0000000   0.0000000   0.0000000   0.0000000   0.0000000   0.0000000   0.0000000   0.0000000   0.0000000   0.0000000
 NMagM=    0.0000000   0.0000000   0.0000000   0.0000000   0.0000000   0.0000000   0.0000000   0.0000000   0.0000000   0.0000000
 AtZNuc=   6.0000000   6.0000000   6.0000000   6.0000000   6.0000000   6.0000000   6.0000000   6.0000000   6.0000000   6.0000000

  Atom        11          12          13          14          15          16          17          18          19          20
 IAtWgt=          12          12          12           1           1           1          16          16          16          12
 AtmWgt=  12.0000000  12.0000000  12.0000000   1.0078250   1.0078250   1.0078250  15.9949146  15.9949146  15.9949146  12.0000000
 NucSpn=           0           0           0           1           1           1           0           0           0           0
 AtZEff=   0.0000000   0.0000000   0.0000000   0.0000000   0.0000000   0.0000000   0.0000000   0.0000000   0.0000000   0.0000000
 NQMom=    0.0000000   0.0000000   0.0000000   0.0000000   0.0000000   0.0000000   0.0000000   0.0000000   0.0000000   0.0000000
 NMagM=    0.0000000   0.0000000   0.0000000   2.7928460   2.7928460   2.7928460   0.0000000   0.0000000   0.0000000   0.0000000
 AtZNuc=   6.0000000   6.0000000   6.0000000   1.0000000   1.0000000   1.0000000   8.0000000   8.0000000   8.0000000   6.0000000

  Atom        21          22          23          24          25          26          27          28          29          30
 IAtWgt=          12          12          12           1          12          12           1           1           1          12
 AtmWgt=  12.0000000  12.0000000  12.0000000   1.0078250  12.0000000  12.0000000   1.0078250   1.0078250   1.0078250  12.0000000
 NucSpn=           0           0           0           1           0           0           1           1           1           0
 AtZEff=   0.0000000   0.0000000   0.0000000   0.0000000   0.0000000   0.0000000   0.0000000   0.0000000   0.0000000   0.0000000
 NQMom=    0.0000000   0.0000000   0.0000000   0.0000000   0.0000000   0.0000000   0.0000000   0.0000000   0.0000000   0.0000000
 NMagM=    0.0000000   0.0000000   0.0000000   2.7928460   0.0000000   0.0000000   2.7928460   2.7928460   2.7928460   0.0000000
 AtZNuc=   6.0000000   6.0000000   6.0000000   1.0000000   6.0000000   6.0000000   1.0000000   1.0000000   1.0000000   6.0000000

  Atom        31          32          33          34          35          36          37          38          39          40
 IAtWgt=          16          16          12          12          12          12           1          12           1          12
 AtmWgt=  15.9949146  15.9949146  12.0000000  12.0000000  12.0000000  12.0000000   1.0078250  12.0000000   1.0078250  12.0000000
 NucSpn=           0           0           0           0           0           0           1           0           1           0
 AtZEff=   0.0000000   0.0000000   0.0000000   0.0000000   0.0000000   0.0000000   0.0000000   0.0000000   0.0000000   0.0000000
 NQMom=    0.0000000   0.0000000   0.0000000   0.0000000   0.0000000   0.0000000   0.0000000   0.0000000   0.0000000   0.0000000
 NMagM=    0.0000000   0.0000000   0.0000000   0.0000000   0.0000000   0.0000000   2.7928460   0.0000000   2.7928460   0.0000000
 AtZNuc=   8.0000000   8.0000000   6.0000000   6.0000000   6.0000000   6.0000000   1.0000000   6.0000000   1.0000000   6.0000000

  Atom        41          42          43          44          45          46          47          48          49          50
 IAtWgt=           1          12          12          12          12           1          12           1          12           1
 AtmWgt=   1.0078250  12.0000000  12.0000000  12.0000000  12.0000000   1.0078250  12.0000000   1.0078250  12.0000000   1.0078250
 NucSpn=           1           0           0           0           0           1           0           1           0           1
 AtZEff=   0.0000000   0.0000000   0.0000000   0.0000000   0.0000000   0.0000000   0.0000000   0.0000000   0.0000000   0.0000000
 NQMom=    0.0000000   0.0000000   0.0000000   0.0000000   0.0000000   0.0000000   0.0000000   0.0000000   0.0000000   0.0000000
 NMagM=    2.7928460   0.0000000   0.0000000   0.0000000   0.0000000   2.7928460   0.0000000   2.7928460   0.0000000   2.7928460
 AtZNuc=   1.0000000   6.0000000   6.0000000   6.0000000   6.0000000   1.0000000   6.0000000   1.0000000   6.0000000   1.0000000

  Atom        51          52          53          54          55          56          57          58          59          60
 IAtWgt=          12          12          12          12           1          12           1           1          12          12
 AtmWgt=  12.0000000  12.0000000  12.0000000  12.0000000   1.0078250  12.0000000   1.0078250   1.0078250  12.0000000  12.0000000
 NucSpn=           0           0           0           0           1           0           1           1           0           0
 AtZEff=   0.0000000   0.0000000   0.0000000   0.0000000   0.0000000   0.0000000   0.0000000   0.0000000   0.0000000   0.0000000
 NQMom=    0.0000000   0.0000000   0.0000000   0.0000000   0.0000000   0.0000000   0.0000000   0.0000000   0.0000000   0.0000000
 NMagM=    0.0000000   0.0000000   0.0000000   0.0000000   2.7928460   0.0000000   2.7928460   2.7928460   0.0000000   0.0000000
 AtZNuc=   6.0000000   6.0000000   6.0000000   6.0000000   1.0000000   6.0000000   1.0000000   1.0000000   6.0000000   6.0000000

  Atom        61          62          63          64          65          66          67          68          69          70
 IAtWgt=           1          12           1          12           1           1          12          12           1          12
 AtmWgt=   1.0078250  12.0000000   1.0078250  12.0000000   1.0078250   1.0078250  12.0000000  12.0000000   1.0078250  12.0000000
 NucSpn=           1           0           1           0           1           1           0           0           1           0
 AtZEff=   0.0000000   0.0000000   0.0000000   0.0000000   0.0000000   0.0000000   0.0000000   0.0000000   0.0000000   0.0000000
 NQMom=    0.0000000   0.0000000   0.0000000   0.0000000   0.0000000   0.0000000   0.0000000   0.0000000   0.0000000   0.0000000
 NMagM=    2.7928460   0.0000000   2.7928460   0.0000000   2.7928460   2.7928460   0.0000000   0.0000000   2.7928460   0.0000000
 AtZNuc=   1.0000000   6.0000000   1.0000000   6.0000000   1.0000000   1.0000000   6.0000000   6.0000000   1.0000000   6.0000000

  Atom        71          72          73          74          75          76          77          78          79          80
 IAtWgt=           1          12           1           1          12          12          12           1          12           1
 AtmWgt=   1.0078250  12.0000000   1.0078250   1.0078250  12.0000000  12.0000000  12.0000000   1.0078250  12.0000000   1.0078250
 NucSpn=           1           0           1           1           0           0           0           1           0           1
 AtZEff=   0.0000000   0.0000000   0.0000000   0.0000000   0.0000000   0.0000000   0.0000000   0.0000000   0.0000000   0.0000000
 NQMom=    0.0000000   0.0000000   0.0000000   0.0000000   0.0000000   0.0000000   0.0000000   0.0000000   0.0000000   0.0000000
 NMagM=    2.7928460   0.0000000   2.7928460   2.7928460   0.0000000   0.0000000   0.0000000   2.7928460   0.0000000   2.7928460
 AtZNuc=   1.0000000   6.0000000   1.0000000   1.0000000   6.0000000   6.0000000   6.0000000   1.0000000   6.0000000   1.0000000

  Atom        81          82          83
 IAtWgt=          12           1           1
 AtmWgt=  12.0000000   1.0078250   1.0078250
 NucSpn=           0           1           1
 AtZEff=   0.0000000   0.0000000   0.0000000
 NQMom=    0.0000000   0.0000000   0.0000000
 NMagM=    0.0000000   2.7928460   2.7928460
 AtZNuc=   6.0000000   1.0000000   1.0000000
 Leave Link  101 at Fri Feb 18 11:09:19 2022, MaxMem=  5242880000 cpu:         1.7
 (Enter /opt/nce/packages/global/g09/l103.exe)

 GradGradGradGradGradGradGradGradGradGradGradGradGradGradGradGradGradGrad
 Berny optimization.
 Initialization pass.
 Trust Radius=3.00D-01 FncErr=1.00D-07 GrdErr=1.00D-07
 Number of steps in this run=      2 maximum allowed number of steps=      2.
 GradGradGradGradGradGradGradGradGradGradGradGradGradGradGradGradGradGrad

 Leave Link  103 at Fri Feb 18 11:09:19 2022, MaxMem=  5242880000 cpu:         0.2
 (Enter /opt/nce/packages/global/g09/l202.exe)
 Symmetry turned off by external request.
 Stoichiometry    C50H28O5(2-)
 Framework group  C1[X(C50H28O5)]
 Deg. of freedom   243
 Full point group                 C1      NOp   1
                          Input orientation:                          
 ---------------------------------------------------------------------
 Center     Atomic      Atomic             Coordinates (Angstroms)
 Number     Number       Type             X           Y           Z
 ---------------------------------------------------------------------
      1          6           0       -7.425836   -3.933700   -8.557790
      2          6           0       -6.169900   -3.770176   -7.853409
      3          6           0       -5.576518   -2.538655   -7.824619
      4          6           0       -6.116767   -1.389090   -8.456595
      5          6           0       -7.357325   -1.558393   -9.133343
      6          6           0       -7.980463   -2.745829   -9.183479
      7          6           0       -5.431869   -0.179824   -8.371062
      8          6           0       -4.214254   -0.121651   -7.692385
      9          6           0       -3.721425   -1.285737   -7.056366
     10          6           0       -2.553892   -1.305328   -6.350692
     11          6           0       -1.752091   -0.103514   -6.242401
     12          6           0       -2.259232    1.103524   -6.902427
     13          6           0       -3.431348    1.054329   -7.569737
     14          1           0       -7.801372   -0.708324   -9.613563
     15          1           0       -8.915828   -2.859409   -9.699938
     16          1           0       -3.794518    1.943301   -8.046005
     17          8           0       -4.418844   -2.430247   -7.151222
     18          8           0       -0.703892   -0.098737   -5.608380
     19          8           0       -8.004767   -5.011747   -8.642321
     20          6           0       -5.919263    1.012716   -9.142225
     21          6           0       -5.469773    1.091814  -10.455832
     22          6           0       -6.758416    2.005179   -8.639674
     23          6           0       -5.838450    2.136821  -11.276712
     24          1           0       -4.822478    0.323724  -10.836850
     25          6           0       -7.118198    3.050172   -9.484354
     26          6           0       -6.670914    3.125550  -10.786640
     27          1           0       -5.477940    2.175946  -12.287886
     28          1           0       -7.763168    3.810198   -9.092798
     29          1           0       -6.967730    3.946580  -11.412802
     30          6           0       -7.307627    2.008149   -7.203513
     31          8           0       -8.026979    2.960000   -6.902336
     32          8           0       -6.981849    1.065303   -6.487669
     33          6           0       -5.547382   -4.967928   -7.214512
     34          6           0       -6.122068   -5.576877   -6.144291
     35          6           0       -4.362621   -5.535170   -7.758175
     36          6           0       -5.578168   -6.756315   -5.576600
     37          1           0       -7.021709   -5.174372   -5.716544
     38          6           0       -3.815723   -6.660609   -7.238180
     39          1           0       -3.900512   -5.061457   -8.604329
     40          6           0       -4.412180   -7.310202   -6.129235
     41          1           0       -2.921830   -7.076233   -7.666579
     42          6           0       -2.050488   -2.529522   -5.658002
     43          6           0       -2.624202   -2.990270   -4.517280
     44          6           0       -0.914950   -3.216960   -6.170669
     45          6           0       -2.116589   -4.126012   -3.833239
     46          1           0       -3.480004   -2.488474   -4.103790
     47          6           0       -0.406988   -4.304182   -5.544335
     48          1           0       -0.455585   -2.857895   -7.072740
     49          6           0       -0.992543   -4.790973   -4.347254
     50          1           0        0.451374   -4.810953   -5.946876
     51          6           0       -1.502110    2.385342   -6.824493
     52          6           0       -2.195459    3.593818   -6.533004
     53          6           0       -0.160693    2.455136   -7.052505
     54          6           0       -1.554842    4.787669   -6.493187
     55          1           0       -3.248866    3.554240   -6.329456
     56          6           0        0.536978    3.686789   -7.018998
     57          1           0        0.395149    1.563818   -7.265932
     58          1           0       -2.100063    5.685600   -6.265522
     59          6           0       -6.185845   -7.401643   -4.468194
     60          6           0       -5.653481   -8.536485   -3.950816
     61          1           0       -6.120599   -9.019456   -3.112535
     62          6           0       -4.478753   -9.094081   -4.509475
     63          1           0       -4.068154   -9.993200   -4.088692
     64          6           0       -3.876128   -8.496864   -5.567395
     65          1           0       -2.983365   -8.916027   -5.994647
     66          1           0       -7.078039   -6.976635   -4.045698
     67          6           0       -2.707866   -4.602492   -2.635603
     68          6           0       -2.196160   -5.682239   -1.992787
     69          1           0       -2.649888   -6.036439   -1.085710
     70          6           0       -1.063099   -6.351017   -2.511387
     71          1           0       -0.668982   -7.205049   -1.992341
     72          6           0       -0.479461   -5.917405   -3.656930
     73          1           0        0.381371   -6.422696   -4.055755
     74          1           0       -3.569326   -4.092823   -2.244111
     75          6           0       -0.163166    4.871731   -6.738368
     76          6           0        0.541024    6.102672   -6.705816
     77          6           0        1.874880    6.141795   -6.945960
     78          1           0        2.403154    7.076827   -6.920842
     79          6           0        2.582455    4.948933   -7.231488
     80          1           0        3.639209    4.994183   -7.419654
     81          6           0        1.933877    3.758951   -7.266119
     82          1           0        2.469601    2.852378   -7.481325
     83          1           0       -0.001416    7.004700   -6.487879
 ---------------------------------------------------------------------
 Rotational constants (GHZ):      0.0686122      0.0352067      0.0254437
 Leave Link  202 at Fri Feb 18 11:09:19 2022, MaxMem=  5242880000 cpu:         0.1
 (Enter /opt/nce/packages/global/g09/l301.exe)
 Standard basis: def2TZVP (5D, 7F)
 Ernie: Thresh=  0.10000D-02 Tol=  0.10000D-05 Strict=F.
  1873 basis functions,  3029 primitive gaussians,  2148 cartesian basis functions
   185 alpha electrons      185 beta electrons
       nuclear repulsion energy      6790.5199267327 Hartrees.
 IExCor=    0 DFT=F Ex=HF Corr=None ExCW=0 ScaHFX=  1.000000
 ScaDFX=  1.000000  1.000000  1.000000  1.000000 ScalE2=  1.000000  1.000000
 IRadAn=      5 IRanWt=     -1 IRanGd=            0 ICorTp=0 IEmpDi=  4
 NAtoms=   83 NActive=   83 NUniq=   83 SFac= 1.00D+00 NAtFMM=   60 NAOKFM=T Big=T
 Integral buffers will be    131072 words long.
 Raffenetti 1 integral format.
 Two-electron integral symmetry is turned off.
 Force inversion solution in PCM.
 ------------------------------------------------------------------------------
 Polarizable Continuum Model (PCM)
 =================================
 Model                : PCM (using non-symmetric T matrix).
 Atomic radii         : SMD-Coulomb.
 Polarization charges : Total charges.
 Charge compensation  : None.
 Solution method      : Matrix inversion.
 Cavity type          : VdW (van der Waals Surface) (Alpha=1.000).
 Cavity algorithm     : GePol (No added spheres)
                        Default sphere list used, NSphG=   83.
                        Lebedev-Laikov grids with approx.  5.0 points / Ang**2.
                        Smoothing algorithm: York/Karplus (Gamma=1.0000).
                        Polarization charges: spherical gaussians, with
                                              point-specific exponents (IZeta= 3).
                        Self-potential: point-specific (ISelfS= 7).
                        Self-field    : sphere-specific E.n sum rule (ISelfD= 2).
 1st derivatives      : Analytical E(r).r(x)/FMM algorithm (CHGder, D1EAlg=3).
                        Cavity 1st derivative terms included.
 2nd derivatives      : Analytical E(r).r(xy)/FMM algorithm (CHGder, D2EAlg=3).
                        Cavity 2nd derivative terms included.
 Solvent              : Acetonitrile, Eps=  35.688000 Eps(inf)=   1.806874
 ------------------------------------------------------------------------------
 GePol: Number of generator spheres                  =      83
 GePol: Total number of spheres                      =      83
 GePol: Number of exposed spheres                    =      83 (100.00%)
 GePol: Number of points                             =    6279
 GePol: Average weight of points                     =       0.11
 GePol: Minimum weight of points                     =   0.30D-10
 GePol: Maximum weight of points                     =    0.21559
 GePol: Number of points with low weight             =     392
 GePol: Fraction of low-weight points (<1% of avg)   =       6.24%
 GePol: Cavity surface area                          =    715.907 Ang**2
 GePol: Cavity volume                                =    742.380 Ang**3
 ------------------------------------------------------------------------------
 Atomic radii for non-electrostatic terms: SMD-CDS.
 ------------------------------------------------------------------------------
 PCM non-electrostatic energy =        -0.0202115125 Hartrees.
 Nuclear repulsion after PCM non-electrostatic terms =     6790.4997152203 Hartrees.
 Leave Link  301 at Fri Feb 18 11:09:19 2022, MaxMem=  5242880000 cpu:         2.2
 (Enter /opt/nce/packages/global/g09/l302.exe)
 NPDir=0 NMtPBC=     1 NCelOv=     1 NCel=       1 NClECP=     1 NCelD=      1
         NCelK=      1 NCelE2=     1 NClLst=     1 CellRange=     0.0.
 One-electron integrals computed using PRISM.
   1 Symmetry operations used in ECPInt.
 ECPInt:  NShTT=  257403 NPrTT=  805840 LenC2=  174691 LenP2D=  351023.
 LDataN:  DoStor=T MaxTD1= 6 Len=  172
 NBasis=  1873 RedAO= T EigKep=  3.30D-06  NBF=  1873
 NBsUse=  1873 1.00D-06 EigRej= -1.00D+00 NBFU=  1873
 Leave Link  302 at Fri Feb 18 11:09:27 2022, MaxMem=  5242880000 cpu:        94.9
 (Enter /opt/nce/packages/global/g09/l303.exe)
 DipDrv:  MaxL=1.
 Leave Link  303 at Fri Feb 18 11:09:28 2022, MaxMem=  5242880000 cpu:         7.7
 (Enter /opt/nce/packages/global/g09/l401.exe)
 ExpMin= 9.52D-02 ExpMax= 2.70D+04 ExpMxC= 9.22D+02 IAcc=3 IRadAn=         5 AccDes= 0.00D+00
 Harris functional with IExCor=  205 and IRadAn=       5 diagonalized for initial guess.
 HarFok:  IExCor=  205 AccDes= 0.00D+00 IRadAn=         5 IDoV= 1 UseB2=F ITyADJ=14
 ICtDFT=  3500011 ScaDFX=  1.000000  1.000000  1.000000  1.000000
 FoFCou: FMM=F IPFlag=           0 FMFlag=      100000 FMFlg1=        2001
         NFxFlg=           0 DoJE=T BraDBF=F KetDBF=T FulRan=T
         wScrn=  0.000000 ICntrl=     500 IOpCl=  0 I1Cent=   200000004 NGrid=           0
         NMat0=    1 NMatS0=      1 NMatT0=    0 NMatD0=    1 NMtDS0=    0 NMtDT0=    0
 Symmetry not used in FoFCou.
 Harris En= -2288.20249517606    
 JPrj=0 DoOrth=F DoCkMO=F.
 Leave Link  401 at Fri Feb 18 11:09:44 2022, MaxMem=  5242880000 cpu:       193.6
 (Enter /opt/nce/packages/global/g09/l502.exe)
 Closed shell SCF:
 Using DIIS extrapolation, IDIIS=  1040.
 Two-electron integral symmetry not used.
 IVT=    13899092 IEndB=    13899092 NGot=  5242880000 MDV=  5233613601
 LenX=  5233613601 LenY=  5228997549
 Requested convergence on RMS density matrix=1.00D-08 within 128 cycles.
 Requested convergence on MAX density matrix=1.00D-06.
 Requested convergence on             energy=1.00D-06.
 No special actions if energy rises.
 Fock matrices will be formed incrementally for  20 cycles.

 Cycle   1  Pass 1  IDiag  1:
 FoFJK:  IHMeth= 1 ICntrl=       0 DoSepK=F KAlg= 0 I1Cent=   0 FoldK=F
 IRaf= 630000000 NMat=   1 IRICut=       1 DoRegI=T DoRafI=F ISym2E= 0.
 FoFCou: FMM=T IPFlag=           0 FMFlag=      100000 FMFlg1=        2001
         NFxFlg=           0 DoJE=F BraDBF=F KetDBF=F FulRan=T
         wScrn=  0.000000 ICntrl=       0 IOpCl=  0 I1Cent=           0 NGrid=           0
         NMat0=    1 NMatS0=      1 NMatT0=    0 NMatD0=    1 NMtDS0=    0 NMtDT0=    0
 Symmetry not used in FoFCou.
 FMM levels:  10  Number of levels for PrismC:   9
 Inv3:  Mode=1 IEnd=   118277523.
 Iteration    1 A*A^-1 deviation from unit magnitude is 8.22D-15 for   6264.
 Iteration    1 A*A^-1 deviation from orthogonality  is 4.66D-15 for   6002   2809.
 Iteration    1 A^-1*A deviation from unit magnitude is 7.99D-15 for   6264.
 Iteration    1 A^-1*A deviation from orthogonality  is 7.94D-09 for   2781   2744.
 Iteration    2 A*A^-1 deviation from unit magnitude is 3.11D-15 for   5330.
 Iteration    2 A*A^-1 deviation from orthogonality  is 3.34D-15 for   2842   1012.
 Iteration    2 A^-1*A deviation from unit magnitude is 9.99D-16 for   5554.
 Iteration    2 A^-1*A deviation from orthogonality  is 4.11D-16 for   6241   5531.
 E= -2282.90643726815    
 DIIS: error= 2.33D-02 at cycle   1 NSaved=   1.
 NSaved= 1 IEnMin= 1 EnMin= -2282.90643726815     IErMin= 1 ErrMin= 2.33D-02
 ErrMax= 2.33D-02  0.00D+00 EMaxC= 1.00D-01 BMatC= 4.57D+00 BMatP= 4.57D+00
 IDIUse=3 WtCom= 7.67D-01 WtEn= 2.33D-01
 Coeff-Com:  0.100D+01
 Coeff-En:   0.100D+01
 Coeff:      0.100D+01
 Gap=     0.270 Goal=   None    Shift=    0.000
 GapD=    0.270 DampG=1.000 DampE=0.500 DampFc=0.5000 IDamp=-1.
 Damping current iteration by 5.00D-01
 RMSDP=3.89D-03 MaxDP=6.23D-01              OVMax= 1.56D-01

 Cycle   2  Pass 1  IDiag  1:
 RMSU=  1.95D-03    CP:  1.01D+00
 E= -2284.07838346584     Delta-E=       -1.171946197688 Rises=F Damp=T
 DIIS: error= 1.04D-02 at cycle   2 NSaved=   2.
 NSaved= 2 IEnMin= 2 EnMin= -2284.07838346584     IErMin= 2 ErrMin= 1.04D-02
 ErrMax= 1.04D-02  0.00D+00 EMaxC= 1.00D-01 BMatC= 1.06D+00 BMatP= 4.57D+00
 IDIUse=3 WtCom= 8.96D-01 WtEn= 1.04D-01
 Coeff-Com: -0.766D+00 0.177D+01
 Coeff-En:   0.000D+00 0.100D+01
 Coeff:     -0.687D+00 0.169D+01
 Gap=     0.300 Goal=   None    Shift=    0.000
 RMSDP=1.05D-03 MaxDP=1.17D-01 DE=-1.17D+00 OVMax= 5.36D-02

 Cycle   3  Pass 1  IDiag  1:
 RMSU=  9.92D-04    CP:  9.46D-01  1.10D+00
 E= -2285.14241069210     Delta-E=       -1.064027226264 Rises=F Damp=F
 DIIS: error= 3.16D-03 at cycle   3 NSaved=   3.
 NSaved= 3 IEnMin= 3 EnMin= -2285.14241069210     IErMin= 3 ErrMin= 3.16D-03
 ErrMax= 3.16D-03  0.00D+00 EMaxC= 1.00D-01 BMatC= 3.89D-02 BMatP= 1.06D+00
 IDIUse=3 WtCom= 9.68D-01 WtEn= 3.16D-02
 Coeff-Com: -0.235D+00 0.440D+00 0.795D+00
 Coeff-En:   0.000D+00 0.000D+00 0.100D+01
 Coeff:     -0.227D+00 0.426D+00 0.801D+00
 Gap=     0.290 Goal=   None    Shift=    0.000
 RMSDP=5.20D-04 MaxDP=1.04D-01 DE=-1.06D+00 OVMax= 3.96D-02

 Cycle   4  Pass 1  IDiag  1:
 RMSU=  2.30D-04    CP:  9.65D-01  1.33D+00  8.96D-01
 E= -2285.17051221321     Delta-E=       -0.028101521104 Rises=F Damp=F
 DIIS: error= 7.28D-04 at cycle   4 NSaved=   4.
 NSaved= 4 IEnMin= 4 EnMin= -2285.17051221321     IErMin= 4 ErrMin= 7.28D-04
 ErrMax= 7.28D-04  0.00D+00 EMaxC= 1.00D-01 BMatC= 2.45D-03 BMatP= 3.89D-02
 IDIUse=3 WtCom= 9.93D-01 WtEn= 7.28D-03
 Coeff-Com: -0.361D-01 0.568D-01 0.229D+00 0.751D+00
 Coeff-En:   0.000D+00 0.000D+00 0.000D+00 0.100D+01
 Coeff:     -0.358D-01 0.564D-01 0.227D+00 0.753D+00
 Gap=     0.292 Goal=   None    Shift=    0.000
 RMSDP=1.72D-04 MaxDP=3.67D-02 DE=-2.81D-02 OVMax= 7.51D-03

 Cycle   5  Pass 1  IDiag  1:
 RMSU=  6.61D-05    CP:  9.57D-01  1.26D+00  9.61D-01  8.51D-01
 E= -2285.17296168283     Delta-E=       -0.002449469626 Rises=F Damp=F
 DIIS: error= 2.63D-04 at cycle   5 NSaved=   5.
 NSaved= 5 IEnMin= 5 EnMin= -2285.17296168283     IErMin= 5 ErrMin= 2.63D-04
 ErrMax= 2.63D-04  0.00D+00 EMaxC= 1.00D-01 BMatC= 1.57D-04 BMatP= 2.45D-03
 IDIUse=3 WtCom= 9.97D-01 WtEn= 2.63D-03
 Coeff-Com:  0.161D-01-0.301D-01-0.657D-01-0.106D-01 0.109D+01
 Coeff-En:   0.000D+00 0.000D+00 0.000D+00 0.000D+00 0.100D+01
 Coeff:      0.160D-01-0.301D-01-0.656D-01-0.106D-01 0.109D+01
 Gap=     0.295 Goal=   None    Shift=    0.000
 RMSDP=3.60D-05 MaxDP=4.80D-03 DE=-2.45D-03 OVMax= 9.39D-03

 Cycle   6  Pass 1  IDiag  1:
 RMSU=  2.05D-05    CP:  9.58D-01  1.25D+00  9.75D-01  9.53D-01  1.17D+00
 E= -2285.17342105209     Delta-E=       -0.000459369254 Rises=F Damp=F
 DIIS: error= 1.68D-04 at cycle   6 NSaved=   6.
 NSaved= 6 IEnMin= 6 EnMin= -2285.17342105209     IErMin= 6 ErrMin= 1.68D-04
 ErrMax= 1.68D-04  0.00D+00 EMaxC= 1.00D-01 BMatC= 3.21D-05 BMatP= 1.57D-04
 IDIUse=3 WtCom= 9.98D-01 WtEn= 1.68D-03
 Coeff-Com:  0.669D-02-0.114D-01-0.369D-01-0.933D-01 0.164D+00 0.971D+00
 Coeff-En:   0.000D+00 0.000D+00 0.000D+00 0.000D+00 0.000D+00 0.100D+01
 Coeff:      0.668D-02-0.114D-01-0.368D-01-0.932D-01 0.163D+00 0.971D+00
 Gap=     0.296 Goal=   None    Shift=    0.000
 RMSDP=2.67D-05 MaxDP=4.39D-03 DE=-4.59D-04 OVMax= 4.42D-03

 Cycle   7  Pass 1  IDiag  1:
 RMSU=  9.48D-06    CP:  9.57D-01  1.25D+00  9.85D-01  9.65D-01  1.36D+00
                    CP:  1.11D+00
 E= -2285.17353173566     Delta-E=       -0.000110683573 Rises=F Damp=F
 DIIS: error= 7.22D-05 at cycle   7 NSaved=   7.
 NSaved= 7 IEnMin= 7 EnMin= -2285.17353173566     IErMin= 7 ErrMin= 7.22D-05
 ErrMax= 7.22D-05  0.00D+00 EMaxC= 1.00D-01 BMatC= 6.84D-06 BMatP= 3.21D-05
 IDIUse=1 WtCom= 1.00D+00 WtEn= 0.00D+00
 Coeff-Com: -0.312D-02 0.588D-02 0.132D-01-0.341D-02-0.200D+00-0.258D-01
 Coeff-Com:  0.121D+01
 Coeff:     -0.312D-02 0.588D-02 0.132D-01-0.341D-02-0.200D+00-0.258D-01
 Coeff:      0.121D+01
 Gap=     0.297 Goal=   None    Shift=    0.000
 RMSDP=9.66D-06 MaxDP=1.64D-03 DE=-1.11D-04 OVMax= 3.44D-03

 Cycle   8  Pass 1  IDiag  1:
 RMSU=  3.92D-06    CP:  9.57D-01  1.24D+00  9.87D-01  9.66D-01  1.41D+00
                    CP:  1.32D+00  1.44D+00
 E= -2285.17356546080     Delta-E=       -0.000033725137 Rises=F Damp=F
 DIIS: error= 2.80D-05 at cycle   8 NSaved=   8.
 NSaved= 8 IEnMin= 8 EnMin= -2285.17356546080     IErMin= 8 ErrMin= 2.80D-05
 ErrMax= 2.80D-05  0.00D+00 EMaxC= 1.00D-01 BMatC= 1.20D-06 BMatP= 6.84D-06
 IDIUse=1 WtCom= 1.00D+00 WtEn= 0.00D+00
 Coeff-Com: -0.183D-02 0.322D-02 0.941D-02 0.174D-01-0.431D-01-0.218D+00
 Coeff-Com:  0.105D+00 0.113D+01
 Coeff:     -0.183D-02 0.322D-02 0.941D-02 0.174D-01-0.431D-01-0.218D+00
 Coeff:      0.105D+00 0.113D+01
 Gap=     0.298 Goal=   None    Shift=    0.000
 RMSDP=5.30D-06 MaxDP=1.18D-03 DE=-3.37D-05 OVMax= 1.56D-03

 Cycle   9  Pass 1  IDiag  1:
 RMSU=  1.57D-06    CP:  9.56D-01  1.24D+00  9.87D-01  9.60D-01  1.42D+00
                    CP:  1.39D+00  1.72D+00  1.50D+00
 E= -2285.17357106222     Delta-E=       -0.000005601423 Rises=F Damp=F
 DIIS: error= 6.34D-06 at cycle   9 NSaved=   9.
 NSaved= 9 IEnMin= 9 EnMin= -2285.17357106222     IErMin= 9 ErrMin= 6.34D-06
 ErrMax= 6.34D-06  0.00D+00 EMaxC= 1.00D-01 BMatC= 1.46D-07 BMatP= 1.20D-06
 IDIUse=1 WtCom= 1.00D+00 WtEn= 0.00D+00
 Coeff-Com:  0.188D-04-0.769D-04 0.331D-04 0.236D-02 0.173D-01-0.332D-01
 Coeff-Com: -0.129D+00 0.194D+00 0.948D+00
 Coeff:      0.188D-04-0.769D-04 0.331D-04 0.236D-02 0.173D-01-0.332D-01
 Coeff:     -0.129D+00 0.194D+00 0.948D+00
 Gap=     0.298 Goal=   None    Shift=    0.000
 RMSDP=1.59D-06 MaxDP=4.16D-04 DE=-5.60D-06 OVMax= 4.37D-04

 Cycle  10  Pass 1  IDiag  1:
 RMSU=  5.85D-07    CP:  9.56D-01  1.24D+00  9.87D-01  9.58D-01  1.42D+00
                    CP:  1.39D+00  1.78D+00  1.71D+00  1.31D+00
 E= -2285.17357161058     Delta-E=       -0.000000548360 Rises=F Damp=F
 DIIS: error= 3.10D-06 at cycle  10 NSaved=  10.
 NSaved=10 IEnMin=10 EnMin= -2285.17357161058     IErMin=10 ErrMin= 3.10D-06
 ErrMax= 3.10D-06  0.00D+00 EMaxC= 1.00D-01 BMatC= 2.77D-08 BMatP= 1.46D-07
 IDIUse=1 WtCom= 1.00D+00 WtEn= 0.00D+00
 Coeff-Com:  0.296D-03-0.523D-03-0.147D-02-0.312D-02 0.736D-02 0.345D-01
 Coeff-Com: -0.144D-01-0.190D+00-0.154D-01 0.118D+01
 Coeff:      0.296D-03-0.523D-03-0.147D-02-0.312D-02 0.736D-02 0.345D-01
 Coeff:     -0.144D-01-0.190D+00-0.154D-01 0.118D+01
 Gap=     0.298 Goal=   None    Shift=    0.000
 RMSDP=8.42D-07 MaxDP=2.79D-04 DE=-5.48D-07 OVMax= 2.35D-04

 Cycle  11  Pass 1  IDiag  1:
 RMSU=  2.77D-07    CP:  9.56D-01  1.24D+00  9.87D-01  9.57D-01  1.42D+00
                    CP:  1.39D+00  1.79D+00  1.79D+00  1.59D+00  1.45D+00
 E= -2285.17357174640     Delta-E=       -0.000000135822 Rises=F Damp=F
 DIIS: error= 1.38D-06 at cycle  11 NSaved=  11.
 NSaved=11 IEnMin=11 EnMin= -2285.17357174640     IErMin=11 ErrMin= 1.38D-06
 ErrMax= 1.38D-06  0.00D+00 EMaxC= 1.00D-01 BMatC= 5.40D-09 BMatP= 2.77D-08
 IDIUse=1 WtCom= 1.00D+00 WtEn= 0.00D+00
 Coeff-Com:  0.331D-04-0.504D-04-0.126D-03-0.893D-03-0.264D-02 0.994D-02
 Coeff-Com:  0.260D-01-0.566D-01-0.185D+00 0.977D-01 0.111D+01
 Coeff:      0.331D-04-0.504D-04-0.126D-03-0.893D-03-0.264D-02 0.994D-02
 Coeff:      0.260D-01-0.566D-01-0.185D+00 0.977D-01 0.111D+01
 Gap=     0.298 Goal=   None    Shift=    0.000
 RMSDP=3.84D-07 MaxDP=1.26D-04 DE=-1.36D-07 OVMax= 1.11D-04

 Cycle  12  Pass 1  IDiag  1:
 RMSU=  1.16D-07    CP:  9.56D-01  1.24D+00  9.87D-01  9.57D-01  1.42D+00
                    CP:  1.40D+00  1.79D+00  1.81D+00  1.67D+00  1.74D+00
                    CP:  1.54D+00
 E= -2285.17357177512     Delta-E=       -0.000000028715 Rises=F Damp=F
 DIIS: error= 7.45D-07 at cycle  12 NSaved=  12.
 NSaved=12 IEnMin=12 EnMin= -2285.17357177512     IErMin=12 ErrMin= 7.45D-07
 ErrMax= 7.45D-07  0.00D+00 EMaxC= 1.00D-01 BMatC= 1.04D-09 BMatP= 5.40D-09
 IDIUse=1 WtCom= 1.00D+00 WtEn= 0.00D+00
 Coeff-Com: -0.472D-04 0.851D-04 0.263D-03 0.438D-03-0.182D-02-0.477D-02
 Coeff-Com:  0.624D-02 0.277D-01-0.252D-01-0.206D+00 0.166D+00 0.104D+01
 Coeff:     -0.472D-04 0.851D-04 0.263D-03 0.438D-03-0.182D-02-0.477D-02
 Coeff:      0.624D-02 0.277D-01-0.252D-01-0.206D+00 0.166D+00 0.104D+01
 Gap=     0.298 Goal=   None    Shift=    0.000
 RMSDP=1.56D-07 MaxDP=3.91D-05 DE=-2.87D-08 OVMax= 4.71D-05

 Cycle  13  Pass 1  IDiag  1:
 RMSU=  4.74D-08    CP:  9.56D-01  1.24D+00  9.87D-01  9.57D-01  1.42D+00
                    CP:  1.40D+00  1.80D+00  1.81D+00  1.69D+00  1.80D+00
                    CP:  1.90D+00  1.34D+00
 E= -2285.17357178021     Delta-E=       -0.000000005097 Rises=F Damp=F
 DIIS: error= 5.46D-07 at cycle  13 NSaved=  13.
 NSaved=13 IEnMin=13 EnMin= -2285.17357178021     IErMin=13 ErrMin= 5.46D-07
 ErrMax= 5.46D-07  0.00D+00 EMaxC= 1.00D-01 BMatC= 2.06D-10 BMatP= 1.04D-09
 IDIUse=1 WtCom= 1.00D+00 WtEn= 0.00D+00
 Coeff-Com: -0.111D-04 0.185D-04 0.527D-04 0.205D-03 0.210D-03-0.215D-02
 Coeff-Com: -0.426D-02 0.129D-01 0.269D-01-0.361D-01-0.175D+00 0.824D-01
 Coeff-Com:  0.109D+01
 Coeff:     -0.111D-04 0.185D-04 0.527D-04 0.205D-03 0.210D-03-0.215D-02
 Coeff:     -0.426D-02 0.129D-01 0.269D-01-0.361D-01-0.175D+00 0.824D-01
 Coeff:      0.109D+01
 Gap=     0.298 Goal=   None    Shift=    0.000
 RMSDP=7.74D-08 MaxDP=1.91D-05 DE=-5.10D-09 OVMax= 2.19D-05

 Cycle  14  Pass 1  IDiag  1:
 RMSU=  2.17D-08    CP:  9.56D-01  1.24D+00  9.87D-01  9.57D-01  1.42D+00
                    CP:  1.40D+00  1.80D+00  1.81D+00  1.69D+00  1.82D+00
                    CP:  2.05D+00  1.62D+00  1.47D+00
 E= -2285.17357178145     Delta-E=       -0.000000001239 Rises=F Damp=F
 DIIS: error= 3.63D-07 at cycle  14 NSaved=  14.
 NSaved=14 IEnMin=14 EnMin= -2285.17357178145     IErMin=14 ErrMin= 3.63D-07
 ErrMax= 3.63D-07  0.00D+00 EMaxC= 1.00D-01 BMatC= 5.03D-11 BMatP= 2.06D-10
 IDIUse=1 WtCom= 1.00D+00 WtEn= 0.00D+00
 Coeff-Com:  0.114D-04-0.206D-04-0.658D-04-0.112D-03 0.454D-03 0.128D-02
 Coeff-Com: -0.176D-02-0.653D-02 0.673D-02 0.557D-01-0.456D-01-0.273D+00
 Coeff-Com:  0.331D-01 0.123D+01
 Coeff:      0.114D-04-0.206D-04-0.658D-04-0.112D-03 0.454D-03 0.128D-02
 Coeff:     -0.176D-02-0.653D-02 0.673D-02 0.557D-01-0.456D-01-0.273D+00
 Coeff:      0.331D-01 0.123D+01
 Gap=     0.298 Goal=   None    Shift=    0.000
 RMSDP=3.62D-08 MaxDP=5.63D-06 DE=-1.24D-09 OVMax= 1.09D-05

 Cycle  15  Pass 1  IDiag  1:
 RMSU=  9.81D-09    CP:  9.56D-01  1.24D+00  9.87D-01  9.57D-01  1.42D+00
                    CP:  1.40D+00  1.80D+00  1.81D+00  1.69D+00  1.82D+00
                    CP:  2.11D+00  1.74D+00  1.88D+00  1.68D+00
 E= -2285.17357178169     Delta-E=       -0.000000000235 Rises=F Damp=F
 DIIS: error= 1.91D-07 at cycle  15 NSaved=  15.
 NSaved=15 IEnMin=15 EnMin= -2285.17357178169     IErMin=15 ErrMin= 1.91D-07
 ErrMax= 1.91D-07  0.00D+00 EMaxC= 1.00D-01 BMatC= 8.68D-12 BMatP= 5.03D-11
 IDIUse=1 WtCom= 1.00D+00 WtEn= 0.00D+00
 Coeff-Com:  0.117D-05-0.187D-05-0.480D-05-0.244D-04-0.550D-04 0.301D-03
 Coeff-Com:  0.760D-03-0.171D-02-0.537D-02 0.291D-02 0.325D-01 0.382D-03
 Coeff-Com: -0.186D+00-0.627D-01 0.122D+01
 Coeff:      0.117D-05-0.187D-05-0.480D-05-0.244D-04-0.550D-04 0.301D-03
 Coeff:      0.760D-03-0.171D-02-0.537D-02 0.291D-02 0.325D-01 0.382D-03
 Coeff:     -0.186D+00-0.627D-01 0.122D+01
 Gap=     0.298 Goal=   None    Shift=    0.000
 RMSDP=1.68D-08 MaxDP=2.91D-06 DE=-2.35D-10 OVMax= 4.67D-06

 Cycle  16  Pass 1  IDiag  1:
 RMSU=  4.55D-09    CP:  9.56D-01  1.24D+00  9.87D-01  9.57D-01  1.42D+00
                    CP:  1.40D+00  1.80D+00  1.81D+00  1.69D+00  1.82D+00
                    CP:  2.13D+00  1.77D+00  1.98D+00  2.06D+00  1.60D+00
 E= -2285.17357178160     Delta-E=        0.000000000089 Rises=F Damp=F
 DIIS: error= 9.19D-08 at cycle  16 NSaved=  16.
 NSaved=16 IEnMin=15 EnMin= -2285.17357178169     IErMin=16 ErrMin= 9.19D-08
 ErrMax= 9.19D-08  0.00D+00 EMaxC= 1.00D-01 BMatC= 2.24D-12 BMatP= 8.68D-12
 IDIUse=1 WtCom= 1.00D+00 WtEn= 0.00D+00
 Coeff-Com: -0.250D-05 0.458D-05 0.144D-04 0.239D-04-0.111D-03-0.270D-03
 Coeff-Com:  0.438D-03 0.140D-02-0.185D-02-0.127D-01 0.133D-01 0.632D-01
 Coeff-Com: -0.265D-01-0.292D+00 0.856D-01 0.117D+01
 Coeff:     -0.250D-05 0.458D-05 0.144D-04 0.239D-04-0.111D-03-0.270D-03
 Coeff:      0.438D-03 0.140D-02-0.185D-02-0.127D-01 0.133D-01 0.632D-01
 Coeff:     -0.265D-01-0.292D+00 0.856D-01 0.117D+01
 Gap=     0.298 Goal=   None    Shift=    0.000
 RMSDP=1.04D-08 MaxDP=1.56D-06 DE= 8.91D-11 OVMax= 2.49D-06

 Cycle  17  Pass 1  IDiag  1:
 RMSU=  3.60D-09    CP:  9.56D-01  1.24D+00  9.87D-01  9.57D-01  1.42D+00
                    CP:  1.40D+00  1.80D+00  1.81D+00  1.69D+00  1.82D+00
                    CP:  2.14D+00  1.78D+00  2.00D+00  2.26D+00  2.01D+00
                    CP:  1.66D+00
 E= -2285.17357178155     Delta-E=        0.000000000049 Rises=F Damp=F
 DIIS: error= 3.60D-08 at cycle  17 NSaved=  17.
 NSaved=17 IEnMin=15 EnMin= -2285.17357178169     IErMin=17 ErrMin= 3.60D-08
 ErrMax= 3.60D-08  0.00D+00 EMaxC= 1.00D-01 BMatC= 4.80D-13 BMatP= 2.24D-12
 IDIUse=1 WtCom= 1.00D+00 WtEn= 0.00D+00
 Coeff-Com: -0.134D-06 0.185D-06 0.289D-06 0.512D-05 0.188D-04-0.632D-04
 Coeff-Com: -0.200D-03 0.351D-03 0.148D-02-0.523D-03-0.810D-02-0.146D-02
 Coeff-Com:  0.433D-01 0.379D-01-0.303D+00-0.412D-01 0.127D+01
 Coeff:     -0.134D-06 0.185D-06 0.289D-06 0.512D-05 0.188D-04-0.632D-04
 Coeff:     -0.200D-03 0.351D-03 0.148D-02-0.523D-03-0.810D-02-0.146D-02
 Coeff:      0.433D-01 0.379D-01-0.303D+00-0.412D-01 0.127D+01
 Gap=     0.298 Goal=   None    Shift=    0.000
 RMSDP=6.25D-09 MaxDP=8.96D-07 DE= 4.91D-11 OVMax= 1.22D-06

 Error on total polarization charges =  0.07801
 SCF Done:  E(RHF) =  -2285.17357178     A.U. after   17 cycles
            NFock= 17  Conv=0.62D-08     -V/T= 2.0002
 KE= 2.284771980552D+03 PE=-1.899380924019D+04 EE= 7.633363972638D+03
 SMD-CDS (non-electrostatic) energy       (kcal/mol) =     -12.68
 (included in total energy above)
 Leave Link  502 at Fri Feb 18 13:02:32 2022, MaxMem=  5242880000 cpu:     81113.1
 (Enter /opt/nce/packages/global/g09/l801.exe)
 Range of M.O.s used for correlation:     1  1873
 NBasis=  1873 NAE=   185 NBE=   185 NFC=     0 NFV=     0
 NROrb=   1873 NOA=   185 NOB=   185 NVA=  1688 NVB=  1688

 **** Warning!!: The largest alpha MO coefficient is  0.50947971D+02

 Leave Link  801 at Fri Feb 18 13:02:33 2022, MaxMem=  5242880000 cpu:         1.8
 (Enter /opt/nce/packages/global/g09/l1101.exe)
 Using compressed storage, NAtomX=    83.
 Will process     84 centers per pass.
 PrsmSu:  requested number of processors reduced to:   8 ShMem   1 Linda.
   1 Symmetry operations used in ECPInt.
 ECPInt:  NShTT=  257403 NPrTT=  805840 LenC2=  174691 LenP2D=  351023.
 LDataN:  DoStor=T MaxTD1= 7 Len=  274
 Number of processors reduced to   2 by ecpmxn.
 Leave Link 1101 at Fri Feb 18 13:03:04 2022, MaxMem=  5242880000 cpu:       325.9
 (Enter /opt/nce/packages/global/g09/l1102.exe)
 Symmetrizing basis deriv contribution to polar:
 IMax=3 JMax=2 DiffMx= 0.00D+00
 Leave Link 1102 at Fri Feb 18 13:03:05 2022, MaxMem=  5242880000 cpu:         6.8
 (Enter /opt/nce/packages/global/g09/l1110.exe)
 Forming Gx(P) for the SCF density, NAtomX=    83.
 Integral derivatives from FoFJK, PRISM(SPDF).
 Do as many integral derivatives as possible in FoFJK.
 G2DrvN: MDV=    5242879232.
 G2DrvN: will do    42 centers at a time, making    2 passes.
 G2DrvN:  IPasSy=1 do centers    0 through   41.
 Calling FoFCou, ICntrl=  3107 FMM=T I1Cent=   0 AccDes= 1.00D-11.
 FoFJK:  IHMeth= 1 ICntrl=    3107 DoSepK=F KAlg= 0 I1Cent=   0 FoldK=F
 IRaf=         0 NMat=   1 IRICut=       1 DoRegI=T DoRafI=F ISym2E= 0.
 FoFCou: FMM=T IPFlag=           0 FMFlag=      100000 FMFlg1=        2001
         NFxFlg=           0 DoJE=F BraDBF=F KetDBF=F FulRan=T
         wScrn=  0.000000 ICntrl=    3107 IOpCl=  0 I1Cent=           0 NGrid=           0
         NMat0=    1 NMatS0=      1 NMatT0=    0 NMatD0=    1 NMtDS0=    0 NMtDT0=    0
 Symmetry not used in FoFCou.
 FMM levels:  10  Number of levels for PrismC:   9
 G2DrvN:  IPasSy=1 do centers   42 through   83.
 Calling FoFCou, ICntrl=  3107 FMM=T I1Cent=   0 AccDes= 1.00D-11.
 NEqPCM:  Using equilibrium solvation (IEInf=0, Eps=  35.6880, EpsInf=   1.8069)
 G2PCM: DoFxE=T DoFxN=T DoGrad=T DoDP/DQ/DG/TGxP=FFFF NFrqRd=   0 IEInf=0 SqF1=F DoCFld=F IF1Alg=4.
 GePol: Maximum number of non-zero 1st derivatives   =     255
 End of G2Drv F.D. properties file   721 does not exist.
 End of G2Drv F.D. properties file   722 does not exist.
 End of G2Drv F.D. properties file   788 does not exist.
 Leave Link 1110 at Fri Feb 18 14:55:12 2022, MaxMem=  5242880000 cpu:     80734.8
 (Enter /opt/nce/packages/global/g09/l1002.exe)
 Minotr:  Closed shell wavefunction.
          IDoAtm=11111111111111111111111111111111111111111111111111
          IDoAtm=111111111111111111111111111111111
 NEqPCM:  Using equilibrium solvation (IEInf=0, Eps=  35.6880, EpsInf=   1.8069)
          Direct CPHF calculation.
          Differentiating once with respect to electric field.
                with respect to dipole field.
          Differentiating once with respect to nuclear coordinates.
          Requested convergence is 1.0D-08 RMS, and 1.0D-07 maximum.
          Secondary convergence is 1.0D-12 RMS, and 1.0D-12 maximum.
          NewPWx=T KeepS1=F KeepF1=F KeepIn=T MapXYZ=F SortEE=F KeepMc=T.
          MDV=    5242877293 using IRadAn=       1.
          Solving linear equations simultaneously, MaxMat=      72.
 FoF2E skips out because all densities are zero.
 FoFJK:  IHMeth= 1 ICntrl=       0 DoSepK=F KAlg= 0 I1Cent=   0 FoldK=F
 IRaf= 630000000 NMat=  72 IRICut=       1 DoRegI=T DoRafI=F ISym2E= 0.
          There are   252 degrees of freedom in the 1st order CPHF.  IDoFFX=6 NUNeed=     3.
    252 vectors produced by pass  0 Test12= 3.12D-13 1.00D-09 XBig12= 2.73D+02 8.23D+00.
 AX will form    72 AO Fock derivatives at one time.
    249 vectors produced by pass  1 Test12= 3.12D-13 1.00D-09 XBig12= 1.31D+01 4.46D-01.
    249 vectors produced by pass  2 Test12= 3.12D-13 1.00D-09 XBig12= 4.53D-01 6.35D-02.
    249 vectors produced by pass  3 Test12= 3.12D-13 1.00D-09 XBig12= 8.28D-03 5.17D-03.
    249 vectors produced by pass  4 Test12= 3.12D-13 1.00D-09 XBig12= 9.86D-05 3.83D-04.
    249 vectors produced by pass  5 Test12= 3.12D-13 1.00D-09 XBig12= 9.53D-07 3.95D-05.
    249 vectors produced by pass  6 Test12= 3.12D-13 1.00D-09 XBig12= 9.30D-09 3.71D-06.
    158 vectors produced by pass  7 Test12= 3.12D-13 1.00D-09 XBig12= 7.38D-11 3.37D-07.
     20 vectors produced by pass  8 Test12= 3.12D-13 1.00D-09 XBig12= 5.64D-13 4.12D-08.
      4 vectors produced by pass  9 Test12= 3.12D-13 1.00D-09 XBig12= 4.59D-15 3.37D-09.
      1 vectors produced by pass 10 Test12= 3.12D-13 1.00D-09 XBig12= 1.22D-15 1.18D-09.
 InvSVY:  IOpt=1 It=  1 EMax= 2.13D-14
 Solved reduced A of dimension  1929 with   252 vectors.
 FullF1:  Do perturbations    1 to     3.
 Isotropic polarizability for W=    0.000000      944.54 Bohr**3.
 End of Minotr F.D. properties file   721 does not exist.
 End of Minotr F.D. properties file   722 does not exist.
 End of Minotr F.D. properties file   788 does not exist.
 Leave Link 1002 at Sun Feb 20 07:53:01 2022, MaxMem=  5242880000 cpu:   1769407.1
 (Enter /opt/nce/packages/global/g09/l601.exe)
 Copying SCF densities to generalized density rwf, IOpCl= 0 IROHF=0.

 **********************************************************************

            Population analysis using the SCF density.

 **********************************************************************

 Alpha  occ. eigenvalues --  -20.61131 -20.47907 -20.47815 -20.45571 -20.45491
 Alpha  occ. eigenvalues --  -11.30906 -11.30771 -11.29804 -11.28848 -11.28543
 Alpha  occ. eigenvalues --  -11.27955 -11.24064 -11.23151 -11.23135 -11.23024
 Alpha  occ. eigenvalues --  -11.23021 -11.23007 -11.22995 -11.22977 -11.22930
 Alpha  occ. eigenvalues --  -11.22902 -11.22887 -11.22876 -11.22365 -11.22354
 Alpha  occ. eigenvalues --  -11.22312 -11.22251 -11.22228 -11.22203 -11.22187
 Alpha  occ. eigenvalues --  -11.22183 -11.22166 -11.22102 -11.22088 -11.22080
 Alpha  occ. eigenvalues --  -11.22075 -11.22048 -11.21994 -11.21968 -11.21936
 Alpha  occ. eigenvalues --  -11.21919 -11.21891 -11.21886 -11.21730 -11.21702
 Alpha  occ. eigenvalues --  -11.21577 -11.21518 -11.21456 -11.21449 -11.21159
 Alpha  occ. eigenvalues --  -11.21108 -11.21059 -11.20049 -11.20044 -11.19598
 Alpha  occ. eigenvalues --   -1.46317  -1.35885  -1.33700  -1.33302  -1.25065
 Alpha  occ. eigenvalues --   -1.17746  -1.17583  -1.17516  -1.17129  -1.14781
 Alpha  occ. eigenvalues --   -1.13931  -1.11567  -1.11298  -1.10499  -1.06848
 Alpha  occ. eigenvalues --   -1.05656  -1.04685  -1.04328  -1.03893  -1.02562
 Alpha  occ. eigenvalues --   -1.01523  -1.01291  -1.00270  -0.99305  -0.98598
 Alpha  occ. eigenvalues --   -0.98209  -0.97602  -0.96149  -0.95344  -0.87858
 Alpha  occ. eigenvalues --   -0.87457  -0.85667  -0.84867  -0.84067  -0.83915
 Alpha  occ. eigenvalues --   -0.83215  -0.83190  -0.82608  -0.81538  -0.80798
 Alpha  occ. eigenvalues --   -0.80694  -0.80640  -0.78520  -0.78253  -0.73870
 Alpha  occ. eigenvalues --   -0.72460  -0.71991  -0.70852  -0.69596  -0.69471
 Alpha  occ. eigenvalues --   -0.69399  -0.69322  -0.68567  -0.68485  -0.67537
 Alpha  occ. eigenvalues --   -0.66889  -0.65810  -0.65533  -0.64950  -0.64560
 Alpha  occ. eigenvalues --   -0.62975  -0.62801  -0.62064  -0.61785  -0.61207
 Alpha  occ. eigenvalues --   -0.61172  -0.61093  -0.60571  -0.60531  -0.60072
 Alpha  occ. eigenvalues --   -0.59637  -0.59426  -0.58369  -0.57982  -0.57828
 Alpha  occ. eigenvalues --   -0.57584  -0.57338  -0.57297  -0.57191  -0.57105
 Alpha  occ. eigenvalues --   -0.56711  -0.56207  -0.55969  -0.55082  -0.54885
 Alpha  occ. eigenvalues --   -0.53898  -0.53537  -0.53325  -0.52964  -0.52785
 Alpha  occ. eigenvalues --   -0.52442  -0.52124  -0.51734  -0.51124  -0.51054
 Alpha  occ. eigenvalues --   -0.50477  -0.49613  -0.49055  -0.48411  -0.47967
 Alpha  occ. eigenvalues --   -0.47670  -0.47011  -0.46783  -0.46598  -0.46554
 Alpha  occ. eigenvalues --   -0.45664  -0.44990  -0.44663  -0.44180  -0.43892
 Alpha  occ. eigenvalues --   -0.38725  -0.38523  -0.38426  -0.38261  -0.37982
 Alpha  occ. eigenvalues --   -0.37860  -0.37634  -0.37128  -0.35817  -0.33764
 Alpha  occ. eigenvalues --   -0.33165  -0.33039  -0.31986  -0.31433  -0.30673
 Alpha  occ. eigenvalues --   -0.29823  -0.28928  -0.28198  -0.27931  -0.23064
 Alpha virt. eigenvalues --    0.06713   0.09209   0.09407   0.09962   0.11169
 Alpha virt. eigenvalues --    0.11632   0.11788   0.12193   0.12944   0.14746
 Alpha virt. eigenvalues --    0.15314   0.15691   0.15940   0.16341   0.16811
 Alpha virt. eigenvalues --    0.17051   0.17141   0.17280   0.17350   0.17528
 Alpha virt. eigenvalues --    0.17790   0.18029   0.18203   0.18446   0.18652
 Alpha virt. eigenvalues --    0.19002   0.19348   0.19560   0.19922   0.20222
 Alpha virt. eigenvalues --    0.20514   0.21169   0.21396   0.21571   0.21713
 Alpha virt. eigenvalues --    0.22005   0.22095   0.22666   0.23061   0.23293
 Alpha virt. eigenvalues --    0.23731   0.23854   0.23951   0.24577   0.24723
 Alpha virt. eigenvalues --    0.24991   0.25129   0.25333   0.26231   0.26522
 Alpha virt. eigenvalues --    0.26846   0.27174   0.27366   0.27856   0.28060
 Alpha virt. eigenvalues --    0.28127   0.28202   0.28512   0.28935   0.29249
 Alpha virt. eigenvalues --    0.29573   0.29851   0.30105   0.30666   0.30717
 Alpha virt. eigenvalues --    0.31206   0.31455   0.31791   0.31952   0.32416
 Alpha virt. eigenvalues --    0.32453   0.32590   0.32774   0.33140   0.33519
 Alpha virt. eigenvalues --    0.33945   0.34227   0.34500   0.34876   0.35260
 Alpha virt. eigenvalues --    0.35407   0.35719   0.35931   0.36289   0.36414
 Alpha virt. eigenvalues --    0.36636   0.36947   0.37036   0.37283   0.37292
 Alpha virt. eigenvalues --    0.37756   0.37824   0.38067   0.38411   0.38706
 Alpha virt. eigenvalues --    0.39081   0.39411   0.39479   0.39865   0.40149
 Alpha virt. eigenvalues --    0.40296   0.40491   0.40796   0.40946   0.41134
 Alpha virt. eigenvalues --    0.41369   0.41496   0.41781   0.42122   0.42314
 Alpha virt. eigenvalues --    0.42586   0.43005   0.43414   0.43732   0.43954
 Alpha virt. eigenvalues --    0.44105   0.44279   0.44568   0.44744   0.45108
 Alpha virt. eigenvalues --    0.45352   0.45413   0.45755   0.45861   0.45956
 Alpha virt. eigenvalues --    0.46486   0.46656   0.47059   0.47329   0.47412
 Alpha virt. eigenvalues --    0.47572   0.47842   0.47909   0.47997   0.48205
 Alpha virt. eigenvalues --    0.48432   0.48836   0.48995   0.49123   0.49268
 Alpha virt. eigenvalues --    0.49455   0.49536   0.49807   0.50056   0.50238
 Alpha virt. eigenvalues --    0.50334   0.50531   0.50586   0.50962   0.51306
 Alpha virt. eigenvalues --    0.51646   0.51748   0.51918   0.52247   0.52327
 Alpha virt. eigenvalues --    0.52520   0.52732   0.52930   0.53228   0.53535
 Alpha virt. eigenvalues --    0.53646   0.53785   0.54041   0.54116   0.54245
 Alpha virt. eigenvalues --    0.54493   0.54728   0.54849   0.54925   0.55043
 Alpha virt. eigenvalues --    0.55328   0.55490   0.55750   0.56098   0.56245
 Alpha virt. eigenvalues --    0.56532   0.56696   0.56900   0.57023   0.57247
 Alpha virt. eigenvalues --    0.57734   0.57819   0.57876   0.57933   0.58254
 Alpha virt. eigenvalues --    0.58454   0.58506   0.58768   0.59048   0.59079
 Alpha virt. eigenvalues --    0.59247   0.59417   0.59748   0.59908   0.60012
 Alpha virt. eigenvalues --    0.60266   0.60487   0.60514   0.60680   0.60751
 Alpha virt. eigenvalues --    0.61209   0.61488   0.61622   0.61832   0.62039
 Alpha virt. eigenvalues --    0.62466   0.62587   0.62865   0.63048   0.63208
 Alpha virt. eigenvalues --    0.63318   0.63582   0.63810   0.64028   0.64270
 Alpha virt. eigenvalues --    0.64369   0.64634   0.64873   0.65137   0.65292
 Alpha virt. eigenvalues --    0.65443   0.65742   0.66036   0.66404   0.66691
 Alpha virt. eigenvalues --    0.66840   0.66907   0.67227   0.67401   0.67622
 Alpha virt. eigenvalues --    0.67823   0.68028   0.68543   0.68832   0.68901
 Alpha virt. eigenvalues --    0.69253   0.69656   0.70096   0.70167   0.70257
 Alpha virt. eigenvalues --    0.70434   0.70836   0.70949   0.71006   0.71504
 Alpha virt. eigenvalues --    0.71689   0.71849   0.72304   0.72354   0.72975
 Alpha virt. eigenvalues --    0.73174   0.73530   0.73646   0.73906   0.74422
 Alpha virt. eigenvalues --    0.74692   0.74925   0.75424   0.75470   0.75889
 Alpha virt. eigenvalues --    0.76131   0.76408   0.76565   0.76865   0.77380
 Alpha virt. eigenvalues --    0.77977   0.78071   0.78552   0.78882   0.79599
 Alpha virt. eigenvalues --    0.79934   0.80139   0.80512   0.81207   0.81461
 Alpha virt. eigenvalues --    0.81803   0.81920   0.82171   0.82528   0.82846
 Alpha virt. eigenvalues --    0.82909   0.83257   0.83432   0.83648   0.83945
 Alpha virt. eigenvalues --    0.84353   0.84866   0.85042   0.85460   0.85952
 Alpha virt. eigenvalues --    0.86101   0.86390   0.86650   0.86712   0.87105
 Alpha virt. eigenvalues --    0.87153   0.87583   0.87650   0.87832   0.88245
 Alpha virt. eigenvalues --    0.88513   0.88992   0.89128   0.89284   0.89626
 Alpha virt. eigenvalues --    0.89751   0.89971   0.90133   0.90322   0.90715
 Alpha virt. eigenvalues --    0.90965   0.91018   0.91322   0.91555   0.91736
 Alpha virt. eigenvalues --    0.91930   0.92463   0.92579   0.92679   0.92858
 Alpha virt. eigenvalues --    0.93189   0.93317   0.93624   0.93887   0.93996
 Alpha virt. eigenvalues --    0.94064   0.94357   0.94558   0.94715   0.94921
 Alpha virt. eigenvalues --    0.95052   0.95308   0.95456   0.95621   0.95728
 Alpha virt. eigenvalues --    0.95840   0.96465   0.96761   0.97091   0.97226
 Alpha virt. eigenvalues --    0.97318   0.97608   0.97719   0.98025   0.98401
 Alpha virt. eigenvalues --    0.98790   0.99120   0.99261   0.99429   0.99549
 Alpha virt. eigenvalues --    0.99726   1.00200   1.00323   1.00590   1.00724
 Alpha virt. eigenvalues --    1.00967   1.00990   1.01395   1.01701   1.01758
 Alpha virt. eigenvalues --    1.02343   1.02422   1.02917   1.03124   1.03527
 Alpha virt. eigenvalues --    1.03863   1.04175   1.04315   1.04592   1.05233
 Alpha virt. eigenvalues --    1.05463   1.05566   1.05766   1.05856   1.06272
 Alpha virt. eigenvalues --    1.06472   1.06670   1.06800   1.07143   1.07440
 Alpha virt. eigenvalues --    1.07718   1.08015   1.08480   1.08625   1.08806
 Alpha virt. eigenvalues --    1.09295   1.09357   1.09460   1.09746   1.09881
 Alpha virt. eigenvalues --    1.10912   1.11028   1.11547   1.11638   1.11836
 Alpha virt. eigenvalues --    1.11933   1.12540   1.12760   1.13106   1.13220
 Alpha virt. eigenvalues --    1.13499   1.13851   1.14333   1.14376   1.14647
 Alpha virt. eigenvalues --    1.14808   1.15295   1.15404   1.15545   1.15887
 Alpha virt. eigenvalues --    1.16082   1.16619   1.16886   1.17029   1.17471
 Alpha virt. eigenvalues --    1.17688   1.18238   1.18509   1.18606   1.19304
 Alpha virt. eigenvalues --    1.19649   1.19924   1.20016   1.20122   1.20831
 Alpha virt. eigenvalues --    1.21187   1.21372   1.22139   1.22384   1.22689
 Alpha virt. eigenvalues --    1.23158   1.23389   1.23705   1.23883   1.24505
 Alpha virt. eigenvalues --    1.25083   1.25289   1.25889   1.26256   1.26977
 Alpha virt. eigenvalues --    1.27226   1.27626   1.28211   1.28557   1.28983
 Alpha virt. eigenvalues --    1.29156   1.29933   1.30196   1.30807   1.31023
 Alpha virt. eigenvalues --    1.31203   1.31802   1.32302   1.32959   1.33568
 Alpha virt. eigenvalues --    1.34172   1.34655   1.34874   1.35199   1.35741
 Alpha virt. eigenvalues --    1.36045   1.36250   1.36902   1.36988   1.37373
 Alpha virt. eigenvalues --    1.37812   1.38144   1.38521   1.38668   1.39135
 Alpha virt. eigenvalues --    1.39466   1.39592   1.40227   1.40803   1.40999
 Alpha virt. eigenvalues --    1.41202   1.41548   1.41750   1.42070   1.42665
 Alpha virt. eigenvalues --    1.42754   1.43572   1.43885   1.44004   1.44592
 Alpha virt. eigenvalues --    1.44774   1.44856   1.45283   1.45912   1.45984
 Alpha virt. eigenvalues --    1.46403   1.46615   1.46958   1.47124   1.47717
 Alpha virt. eigenvalues --    1.48081   1.48205   1.48409   1.48544   1.49195
 Alpha virt. eigenvalues --    1.49744   1.49889   1.50007   1.50263   1.50594
 Alpha virt. eigenvalues --    1.50893   1.51272   1.51551   1.52215   1.52428
 Alpha virt. eigenvalues --    1.52550   1.52849   1.53256   1.53407   1.53519
 Alpha virt. eigenvalues --    1.54009   1.54642   1.54811   1.55293   1.55421
 Alpha virt. eigenvalues --    1.55650   1.56291   1.56428   1.56836   1.57555
 Alpha virt. eigenvalues --    1.57838   1.58314   1.58633   1.59132   1.59362
 Alpha virt. eigenvalues --    1.59782   1.60260   1.60509   1.61031   1.61547
 Alpha virt. eigenvalues --    1.62203   1.62870   1.63357   1.63900   1.64593
 Alpha virt. eigenvalues --    1.64763   1.64885   1.65513   1.65923   1.66286
 Alpha virt. eigenvalues --    1.66359   1.66895   1.67391   1.67715   1.68174
 Alpha virt. eigenvalues --    1.68313   1.68471   1.69036   1.69261   1.69776
 Alpha virt. eigenvalues --    1.70430   1.70825   1.71093   1.71222   1.71471
 Alpha virt. eigenvalues --    1.71943   1.72279   1.72644   1.72995   1.73337
 Alpha virt. eigenvalues --    1.73576   1.74124   1.74415   1.74569   1.74909
 Alpha virt. eigenvalues --    1.75002   1.75344   1.76357   1.76470   1.76915
 Alpha virt. eigenvalues --    1.77315   1.77788   1.78278   1.78449   1.79050
 Alpha virt. eigenvalues --    1.79128   1.79343   1.79573   1.79832   1.80195
 Alpha virt. eigenvalues --    1.80402   1.80727   1.81150   1.81306   1.81650
 Alpha virt. eigenvalues --    1.81796   1.82170   1.82669   1.82737   1.82907
 Alpha virt. eigenvalues --    1.83012   1.83429   1.83736   1.84139   1.84176
 Alpha virt. eigenvalues --    1.85036   1.85449   1.85568   1.86022   1.86208
 Alpha virt. eigenvalues --    1.86711   1.87324   1.87559   1.87603   1.88001
 Alpha virt. eigenvalues --    1.88382   1.88694   1.89193   1.89800   1.90171
 Alpha virt. eigenvalues --    1.90373   1.90642   1.91117   1.91465   1.91976
 Alpha virt. eigenvalues --    1.92057   1.92423   1.92811   1.93040   1.93335
 Alpha virt. eigenvalues --    1.93592   1.94193   1.94589   1.94796   1.95167
 Alpha virt. eigenvalues --    1.95452   1.95622   1.96067   1.96359   1.97183
 Alpha virt. eigenvalues --    1.97433   1.97516   1.98073   1.98315   1.98620
 Alpha virt. eigenvalues --    1.98996   1.99263   1.99482   1.99943   2.00159
 Alpha virt. eigenvalues --    2.00194   2.00623   2.00821   2.01253   2.01400
 Alpha virt. eigenvalues --    2.01414   2.01704   2.01945   2.02326   2.02354
 Alpha virt. eigenvalues --    2.02453   2.02944   2.03218   2.03248   2.03624
 Alpha virt. eigenvalues --    2.03741   2.03929   2.04531   2.04580   2.04978
 Alpha virt. eigenvalues --    2.04989   2.05368   2.05816   2.06066   2.06517
 Alpha virt. eigenvalues --    2.06909   2.08055   2.09029   2.09115   2.09496
 Alpha virt. eigenvalues --    2.09869   2.10461   2.10905   2.11104   2.11648
 Alpha virt. eigenvalues --    2.12156   2.12496   2.13071   2.13726   2.14360
 Alpha virt. eigenvalues --    2.14755   2.15297   2.15481   2.15786   2.16210
 Alpha virt. eigenvalues --    2.16314   2.16677   2.16821   2.17435   2.17876
 Alpha virt. eigenvalues --    2.18273   2.18365   2.18624   2.18800   2.19023
 Alpha virt. eigenvalues --    2.19940   2.20226   2.20274   2.20379   2.20884
 Alpha virt. eigenvalues --    2.21448   2.21894   2.22227   2.22573   2.23263
 Alpha virt. eigenvalues --    2.24167   2.24452   2.24528   2.25204   2.25369
 Alpha virt. eigenvalues --    2.25555   2.26009   2.26499   2.26625   2.27085
 Alpha virt. eigenvalues --    2.27301   2.27936   2.28356   2.28673   2.28912
 Alpha virt. eigenvalues --    2.29329   2.29875   2.30948   2.30980   2.31085
 Alpha virt. eigenvalues --    2.31289   2.31921   2.32073   2.32527   2.32962
 Alpha virt. eigenvalues --    2.33422   2.34042   2.34885   2.35251   2.35517
 Alpha virt. eigenvalues --    2.35973   2.36776   2.37081   2.38014   2.38202
 Alpha virt. eigenvalues --    2.38580   2.39189   2.39733   2.40230   2.41681
 Alpha virt. eigenvalues --    2.41749   2.42471   2.42806   2.43306   2.43778
 Alpha virt. eigenvalues --    2.44160   2.44678   2.45549   2.46126   2.46299
 Alpha virt. eigenvalues --    2.46695   2.46974   2.47416   2.47644   2.47907
 Alpha virt. eigenvalues --    2.47971   2.48399   2.48957   2.49495   2.49750
 Alpha virt. eigenvalues --    2.50229   2.50865   2.51356   2.51495   2.51885
 Alpha virt. eigenvalues --    2.52173   2.52299   2.52428   2.53177   2.53318
 Alpha virt. eigenvalues --    2.53396   2.54089   2.54261   2.54535   2.54844
 Alpha virt. eigenvalues --    2.55256   2.55282   2.56016   2.56059   2.56606
 Alpha virt. eigenvalues --    2.56911   2.57079   2.57788   2.58241   2.58856
 Alpha virt. eigenvalues --    2.59123   2.59367   2.59621   2.59798   2.60107
 Alpha virt. eigenvalues --    2.60250   2.60939   2.61652   2.61856   2.62011
 Alpha virt. eigenvalues --    2.62490   2.62725   2.62961   2.63236   2.64075
 Alpha virt. eigenvalues --    2.65045   2.65234   2.65789   2.66348   2.66989
 Alpha virt. eigenvalues --    2.67874   2.68552   2.69054   2.69199   2.69660
 Alpha virt. eigenvalues --    2.70052   2.70656   2.71120   2.71476   2.71646
 Alpha virt. eigenvalues --    2.71924   2.72163   2.72374   2.73014   2.73554
 Alpha virt. eigenvalues --    2.74510   2.74635   2.75144   2.75496   2.75931
 Alpha virt. eigenvalues --    2.76512   2.77267   2.77478   2.78151   2.79223
 Alpha virt. eigenvalues --    2.79424   2.79744   2.80413   2.80591   2.81103
 Alpha virt. eigenvalues --    2.81702   2.82339   2.82511   2.82988   2.83453
 Alpha virt. eigenvalues --    2.83803   2.84222   2.85108   2.85550   2.85798
 Alpha virt. eigenvalues --    2.86852   2.86901   2.87856   2.88592   2.88831
 Alpha virt. eigenvalues --    2.89285   2.89561   2.89768   2.90048   2.90753
 Alpha virt. eigenvalues --    2.91149   2.91518   2.92230   2.92575   2.92737
 Alpha virt. eigenvalues --    2.93098   2.93417   2.93510   2.93758   2.94086
 Alpha virt. eigenvalues --    2.94176   2.94647   2.94758   2.95629   2.95938
 Alpha virt. eigenvalues --    2.96633   2.96758   2.97264   2.97435   2.97511
 Alpha virt. eigenvalues --    2.97783   2.98116   2.98235   2.98913   2.98996
 Alpha virt. eigenvalues --    2.99076   2.99253   2.99694   2.99815   3.00014
 Alpha virt. eigenvalues --    3.00286   3.00362   3.00535   3.00860   3.01120
 Alpha virt. eigenvalues --    3.01334   3.01653   3.01824   3.02459   3.02965
 Alpha virt. eigenvalues --    3.03451   3.03679   3.04223   3.04339   3.05139
 Alpha virt. eigenvalues --    3.05234   3.05513   3.05829   3.06165   3.06660
 Alpha virt. eigenvalues --    3.07078   3.07714   3.07868   3.08024   3.08129
 Alpha virt. eigenvalues --    3.08426   3.08662   3.08772   3.08940   3.09122
 Alpha virt. eigenvalues --    3.09529   3.09935   3.10179   3.10235   3.10456
 Alpha virt. eigenvalues --    3.10654   3.10875   3.11131   3.11175   3.11373
 Alpha virt. eigenvalues --    3.11567   3.11650   3.11908   3.12131   3.12348
 Alpha virt. eigenvalues --    3.12773   3.12955   3.13325   3.14037   3.14323
 Alpha virt. eigenvalues --    3.14411   3.14619   3.14753   3.15137   3.15407
 Alpha virt. eigenvalues --    3.15630   3.15939   3.16194   3.16652   3.16946
 Alpha virt. eigenvalues --    3.17501   3.17727   3.17791   3.17979   3.18587
 Alpha virt. eigenvalues --    3.18741   3.18833   3.19196   3.19439   3.19609
 Alpha virt. eigenvalues --    3.19858   3.20022   3.20307   3.20479   3.20857
 Alpha virt. eigenvalues --    3.21107   3.21315   3.21721   3.22216   3.22513
 Alpha virt. eigenvalues --    3.22538   3.22742   3.23008   3.23558   3.23795
 Alpha virt. eigenvalues --    3.24064   3.24216   3.24778   3.24870   3.25135
 Alpha virt. eigenvalues --    3.25348   3.25936   3.26222   3.26790   3.27038
 Alpha virt. eigenvalues --    3.27515   3.27569   3.27807   3.28313   3.28449
 Alpha virt. eigenvalues --    3.28602   3.28745   3.29194   3.29544   3.29646
 Alpha virt. eigenvalues --    3.29763   3.29842   3.30264   3.30383   3.30816
 Alpha virt. eigenvalues --    3.31101   3.31270   3.31800   3.32049   3.32462
 Alpha virt. eigenvalues --    3.32655   3.32741   3.33172   3.33454   3.34014
 Alpha virt. eigenvalues --    3.34114   3.34587   3.34652   3.34841   3.35279
 Alpha virt. eigenvalues --    3.35366   3.35802   3.35892   3.36128   3.36377
 Alpha virt. eigenvalues --    3.36638   3.37218   3.37411   3.37609   3.37824
 Alpha virt. eigenvalues --    3.38087   3.38303   3.38744   3.39089   3.39291
 Alpha virt. eigenvalues --    3.39771   3.40480   3.40653   3.41045   3.41168
 Alpha virt. eigenvalues --    3.41533   3.41729   3.41824   3.42238   3.42477
 Alpha virt. eigenvalues --    3.42689   3.43516   3.43673   3.43941   3.44241
 Alpha virt. eigenvalues --    3.44527   3.44861   3.45387   3.46297   3.46422
 Alpha virt. eigenvalues --    3.46666   3.46953   3.47076   3.47573   3.47764
 Alpha virt. eigenvalues --    3.48148   3.48277   3.48727   3.48752   3.48967
 Alpha virt. eigenvalues --    3.49232   3.49342   3.49982   3.50359   3.50603
 Alpha virt. eigenvalues --    3.50787   3.50980   3.51184   3.51557   3.51684
 Alpha virt. eigenvalues --    3.51950   3.52066   3.52346   3.52728   3.53104
 Alpha virt. eigenvalues --    3.53488   3.53579   3.53659   3.53929   3.54182
 Alpha virt. eigenvalues --    3.54429   3.54650   3.54965   3.55037   3.55400
 Alpha virt. eigenvalues --    3.55509   3.55787   3.56091   3.56276   3.56311
 Alpha virt. eigenvalues --    3.56614   3.56906   3.57001   3.57373   3.57523
 Alpha virt. eigenvalues --    3.57977   3.58150   3.59015   3.59243   3.59483
 Alpha virt. eigenvalues --    3.59808   3.60055   3.60526   3.60663   3.61336
 Alpha virt. eigenvalues --    3.61457   3.61522   3.61889   3.62342   3.62610
 Alpha virt. eigenvalues --    3.62719   3.63169   3.63649   3.63866   3.63993
 Alpha virt. eigenvalues --    3.64195   3.64656   3.64766   3.64891   3.65527
 Alpha virt. eigenvalues --    3.65718   3.65925   3.66110   3.66464   3.66652
 Alpha virt. eigenvalues --    3.66767   3.67306   3.67586   3.68015   3.68262
 Alpha virt. eigenvalues --    3.68624   3.68982   3.69283   3.69454   3.69479
 Alpha virt. eigenvalues --    3.69786   3.69965   3.70268   3.70815   3.71015
 Alpha virt. eigenvalues --    3.71121   3.71309   3.71844   3.71951   3.71969
 Alpha virt. eigenvalues --    3.72183   3.72404   3.72606   3.73085   3.73203
 Alpha virt. eigenvalues --    3.73526   3.73746   3.74096   3.74357   3.74631
 Alpha virt. eigenvalues --    3.74788   3.74964   3.75116   3.75477   3.75580
 Alpha virt. eigenvalues --    3.76431   3.76758   3.76821   3.77215   3.77744
 Alpha virt. eigenvalues --    3.77983   3.78082   3.78532   3.78888   3.79263
 Alpha virt. eigenvalues --    3.79665   3.79898   3.80478   3.80533   3.80831
 Alpha virt. eigenvalues --    3.81013   3.81272   3.81386   3.81564   3.81717
 Alpha virt. eigenvalues --    3.82058   3.82299   3.82730   3.82896   3.83042
 Alpha virt. eigenvalues --    3.83109   3.83172   3.83686   3.83827   3.83949
 Alpha virt. eigenvalues --    3.84161   3.84205   3.84548   3.84904   3.84931
 Alpha virt. eigenvalues --    3.85265   3.85355   3.86008   3.86482   3.86554
 Alpha virt. eigenvalues --    3.87208   3.87436   3.87478   3.87806   3.88273
 Alpha virt. eigenvalues --    3.88692   3.88759   3.89017   3.89453   3.89952
 Alpha virt. eigenvalues --    3.90248   3.90442   3.90590   3.90734   3.91061
 Alpha virt. eigenvalues --    3.91342   3.91686   3.92106   3.92237   3.92418
 Alpha virt. eigenvalues --    3.92498   3.92848   3.93127   3.93450   3.93551
 Alpha virt. eigenvalues --    3.93913   3.94308   3.94579   3.94629   3.95248
 Alpha virt. eigenvalues --    3.95628   3.95871   3.95956   3.96370   3.96665
 Alpha virt. eigenvalues --    3.96819   3.97309   3.97567   3.98360   3.98468
 Alpha virt. eigenvalues --    3.98650   3.98853   3.99482   3.99525   3.99923
 Alpha virt. eigenvalues --    4.00637   4.00797   4.01000   4.01348   4.02043
 Alpha virt. eigenvalues --    4.02592   4.02745   4.03217   4.04172   4.04494
 Alpha virt. eigenvalues --    4.05191   4.05418   4.05908   4.06259   4.06692
 Alpha virt. eigenvalues --    4.07075   4.07804   4.07876   4.08750   4.09144
 Alpha virt. eigenvalues --    4.09782   4.10075   4.10645   4.11017   4.11499
 Alpha virt. eigenvalues --    4.12065   4.12378   4.13106   4.14106   4.14724
 Alpha virt. eigenvalues --    4.15532   4.15785   4.16281   4.16508   4.17089
 Alpha virt. eigenvalues --    4.18210   4.18634   4.19474   4.19670   4.20839
 Alpha virt. eigenvalues --    4.20988   4.21151   4.21484   4.21820   4.22621
 Alpha virt. eigenvalues --    4.22733   4.23157   4.23982   4.24089   4.24127
 Alpha virt. eigenvalues --    4.24401   4.24926   4.25434   4.26152   4.26619
 Alpha virt. eigenvalues --    4.26843   4.27397   4.27464   4.28487   4.28843
 Alpha virt. eigenvalues --    4.30036   4.30325   4.30816   4.31044   4.32044
 Alpha virt. eigenvalues --    4.32538   4.32603   4.32846   4.33639   4.34221
 Alpha virt. eigenvalues --    4.34349   4.34832   4.35092   4.35891   4.36464
 Alpha virt. eigenvalues --    4.37160   4.37761   4.38125   4.39408   4.40044
 Alpha virt. eigenvalues --    4.40252   4.40633   4.41131   4.41316   4.42198
 Alpha virt. eigenvalues --    4.42419   4.43183   4.43387   4.43710   4.43793
 Alpha virt. eigenvalues --    4.44633   4.45309   4.45573   4.46625   4.47316
 Alpha virt. eigenvalues --    4.47441   4.48172   4.48671   4.48860   4.49388
 Alpha virt. eigenvalues --    4.49404   4.49653   4.49996   4.50634   4.51784
 Alpha virt. eigenvalues --    4.51998   4.52651   4.53145   4.54223   4.54578
 Alpha virt. eigenvalues --    4.54875   4.55429   4.55617   4.55896   4.56231
 Alpha virt. eigenvalues --    4.56584   4.56780   4.57023   4.57421   4.57615
 Alpha virt. eigenvalues --    4.58096   4.58446   4.58773   4.58891   4.59195
 Alpha virt. eigenvalues --    4.59407   4.59984   4.60738   4.61370   4.61388
 Alpha virt. eigenvalues --    4.61820   4.62224   4.62439   4.62716   4.62896
 Alpha virt. eigenvalues --    4.63372   4.63883   4.64558   4.64734   4.65164
 Alpha virt. eigenvalues --    4.65473   4.66029   4.66040   4.66450   4.67146
 Alpha virt. eigenvalues --    4.67470   4.67688   4.67976   4.68675   4.69057
 Alpha virt. eigenvalues --    4.69217   4.69548   4.69944   4.70791   4.71702
 Alpha virt. eigenvalues --    4.72024   4.72620   4.73240   4.73874   4.74968
 Alpha virt. eigenvalues --    4.75501   4.75924   4.76205   4.76837   4.77004
 Alpha virt. eigenvalues --    4.77481   4.78118   4.78397   4.78700   4.79392
 Alpha virt. eigenvalues --    4.79935   4.81333   4.81829   4.82388   4.83098
 Alpha virt. eigenvalues --    4.83714   4.84629   4.85610   4.85979   4.86324
 Alpha virt. eigenvalues --    4.87513   4.88035   4.88433   4.89078   4.89848
 Alpha virt. eigenvalues --    4.90016   4.91224   4.91565   4.92239   4.93101
 Alpha virt. eigenvalues --    4.93636   4.94528   4.94714   4.95765   4.96464
 Alpha virt. eigenvalues --    4.96687   4.97036   4.98003   4.98128   4.99333
 Alpha virt. eigenvalues --    4.99834   5.01100   5.01459   5.03004   5.03836
 Alpha virt. eigenvalues --    5.04296   5.04854   5.06673   5.06985   5.07351
 Alpha virt. eigenvalues --    5.07913   5.08459   5.09118   5.09744   5.10827
 Alpha virt. eigenvalues --    5.11426   5.12545   5.13210   5.14371   5.16763
 Alpha virt. eigenvalues --    5.16991   5.17859   5.18343   5.18646   5.18938
 Alpha virt. eigenvalues --    5.19153   5.19306   5.19462   5.19783   5.19940
 Alpha virt. eigenvalues --    5.20260   5.20600   5.21111   5.22324   5.22834
 Alpha virt. eigenvalues --    5.23173   5.23496   5.24989   5.25780   5.27542
 Alpha virt. eigenvalues --    5.27721   5.29049   5.29578   5.30604   5.32892
 Alpha virt. eigenvalues --    5.33024   5.33816   5.34592   5.34801   5.35457
 Alpha virt. eigenvalues --    5.36502   5.37444   5.38035   5.40116   5.41543
 Alpha virt. eigenvalues --    5.42656   5.43356   5.44278   5.44625   5.46440
 Alpha virt. eigenvalues --    5.46880   5.47788   5.51309   5.52174   5.52747
 Alpha virt. eigenvalues --    5.53007   5.53074   5.54235   5.54670   5.55419
 Alpha virt. eigenvalues --    5.56205   5.56721   5.57925   5.60613   5.61022
 Alpha virt. eigenvalues --    5.62768   5.64052   5.65179   5.66010   5.66919
 Alpha virt. eigenvalues --    5.67863   5.68138   5.68965   5.69846   5.70408
 Alpha virt. eigenvalues --    5.71374   5.71687   5.71847   5.72578   5.73169
 Alpha virt. eigenvalues --    5.73390   5.75250   5.76201   5.76405   5.76590
 Alpha virt. eigenvalues --    5.78136   5.78681   5.80866   5.82438   5.83903
 Alpha virt. eigenvalues --    5.85123   5.85821   5.86718   5.87211   5.87841
 Alpha virt. eigenvalues --    5.89111   5.90228   5.90322   5.92222   5.94142
 Alpha virt. eigenvalues --    5.94291   5.95665   5.97140   5.97806   5.99632
[...]
 Alpha virt. eigenvalues --    3.21103   3.21312   3.21717   3.22211   3.22507
 Alpha virt. eigenvalues --    3.22534   3.22741   3.23004   3.23556   3.23792
 Alpha virt. eigenvalues --    3.24061   3.24211   3.24772   3.24866   3.25130
 Alpha virt. eigenvalues --    3.25345   3.25934   3.26218   3.26784   3.27032
 Alpha virt. eigenvalues --    3.27512   3.27566   3.27799   3.28310   3.28444
 Alpha virt. eigenvalues --    3.28598   3.28741   3.29189   3.29539   3.29644
 Alpha virt. eigenvalues --    3.29756   3.29839   3.30262   3.30380   3.30813
 Alpha virt. eigenvalues --    3.31096   3.31268   3.31795   3.32041   3.32458
 Alpha virt. eigenvalues --    3.32650   3.32737   3.33169   3.33449   3.34010
 Alpha virt. eigenvalues --    3.34109   3.34582   3.34648   3.34836   3.35273
 Alpha virt. eigenvalues --    3.35363   3.35799   3.35887   3.36124   3.36372
 Alpha virt. eigenvalues --    3.36631   3.37213   3.37408   3.37604   3.37818
 Alpha virt. eigenvalues --    3.38083   3.38300   3.38741   3.39085   3.39287
 Alpha virt. eigenvalues --    3.39767   3.40476   3.40648   3.41040   3.41162
 Alpha virt. eigenvalues --    3.41531   3.41726   3.41821   3.42236   3.42473
 Alpha virt. eigenvalues --    3.42686   3.43513   3.43668   3.43938   3.44238
 Alpha virt. eigenvalues --    3.44524   3.44859   3.45385   3.46294   3.46416
 Alpha virt. eigenvalues --    3.46663   3.46947   3.47070   3.47569   3.47761
 Alpha virt. eigenvalues --    3.48147   3.48275   3.48725   3.48746   3.48964
 Alpha virt. eigenvalues --    3.49229   3.49338   3.49979   3.50357   3.50600
 Alpha virt. eigenvalues --    3.50784   3.50976   3.51179   3.51553   3.51681
 Alpha virt. eigenvalues --    3.51948   3.52060   3.52342   3.52721   3.53100
 Alpha virt. eigenvalues --    3.53484   3.53573   3.53656   3.53927   3.54179
 Alpha virt. eigenvalues --    3.54425   3.54644   3.54962   3.55032   3.55396
 Alpha virt. eigenvalues --    3.55502   3.55781   3.56087   3.56273   3.56307
 Alpha virt. eigenvalues --    3.56610   3.56901   3.56996   3.57368   3.57520
 Alpha virt. eigenvalues --    3.57974   3.58147   3.59012   3.59239   3.59479
 Alpha virt. eigenvalues --    3.59801   3.60050   3.60523   3.60660   3.61330
 Alpha virt. eigenvalues --    3.61452   3.61517   3.61884   3.62337   3.62607
 Alpha virt. eigenvalues --    3.62715   3.63165   3.63645   3.63862   3.63989
 Alpha virt. eigenvalues --    3.64193   3.64649   3.64760   3.64887   3.65524
 Alpha virt. eigenvalues --    3.65714   3.65921   3.66108   3.66460   3.66649
 Alpha virt. eigenvalues --    3.66762   3.67301   3.67583   3.68011   3.68255
 Alpha virt. eigenvalues --    3.68618   3.68977   3.69280   3.69450   3.69475
 Alpha virt. eigenvalues --    3.69780   3.69961   3.70265   3.70811   3.71013
 Alpha virt. eigenvalues --    3.71118   3.71306   3.71840   3.71948   3.71965
 Alpha virt. eigenvalues --    3.72179   3.72401   3.72601   3.73080   3.73198
 Alpha virt. eigenvalues --    3.73520   3.73744   3.74093   3.74350   3.74628
 Alpha virt. eigenvalues --    3.74784   3.74958   3.75111   3.75472   3.75575
 Alpha virt. eigenvalues --    3.76428   3.76754   3.76817   3.77212   3.77742
 Alpha virt. eigenvalues --    3.77981   3.78080   3.78529   3.78883   3.79260
 Alpha virt. eigenvalues --    3.79660   3.79894   3.80474   3.80528   3.80827
 Alpha virt. eigenvalues --    3.81009   3.81268   3.81382   3.81559   3.81712
 Alpha virt. eigenvalues --    3.82057   3.82295   3.82726   3.82892   3.83039
 Alpha virt. eigenvalues --    3.83104   3.83166   3.83680   3.83820   3.83946
 Alpha virt. eigenvalues --    3.84157   3.84202   3.84541   3.84897   3.84926
 Alpha virt. eigenvalues --    3.85261   3.85351   3.86004   3.86479   3.86552
 Alpha virt. eigenvalues --    3.87204   3.87432   3.87474   3.87801   3.88267
 Alpha virt. eigenvalues --    3.88689   3.88755   3.89014   3.89451   3.89947
 Alpha virt. eigenvalues --    3.90245   3.90438   3.90585   3.90731   3.91058
 Alpha virt. eigenvalues --    3.91338   3.91683   3.92103   3.92234   3.92414
 Alpha virt. eigenvalues --    3.92493   3.92845   3.93123   3.93446   3.93548
 Alpha virt. eigenvalues --    3.93910   3.94302   3.94577   3.94625   3.95245
 Alpha virt. eigenvalues --    3.95622   3.95868   3.95954   3.96366   3.96663
 Alpha virt. eigenvalues --    3.96816   3.97307   3.97565   3.98355   3.98464
 Alpha virt. eigenvalues --    3.98647   3.98850   3.99479   3.99522   3.99920
 Alpha virt. eigenvalues --    4.00635   4.00794   4.00996   4.01344   4.02039
 Alpha virt. eigenvalues --    4.02588   4.02742   4.03214   4.04167   4.04492
 Alpha virt. eigenvalues --    4.05187   4.05415   4.05906   4.06251   4.06690
 Alpha virt. eigenvalues --    4.07072   4.07800   4.07874   4.08742   4.09139
 Alpha virt. eigenvalues --    4.09781   4.10070   4.10641   4.11015   4.11495
 Alpha virt. eigenvalues --    4.12062   4.12374   4.13103   4.14104   4.14720
 Alpha virt. eigenvalues --    4.15526   4.15781   4.16278   4.16505   4.17087
 Alpha virt. eigenvalues --    4.18206   4.18631   4.19470   4.19667   4.20836
 Alpha virt. eigenvalues --    4.20983   4.21144   4.21483   4.21816   4.22619
 Alpha virt. eigenvalues --    4.22729   4.23153   4.23977   4.24085   4.24124
 Alpha virt. eigenvalues --    4.24395   4.24919   4.25431   4.26148   4.26614
 Alpha virt. eigenvalues --    4.26840   4.27392   4.27461   4.28483   4.28840
 Alpha virt. eigenvalues --    4.30030   4.30319   4.30811   4.31040   4.32041
 Alpha virt. eigenvalues --    4.32531   4.32599   4.32844   4.33635   4.34217
 Alpha virt. eigenvalues --    4.34343   4.34828   4.35089   4.35885   4.36460
 Alpha virt. eigenvalues --    4.37156   4.37759   4.38122   4.39406   4.40038
 Alpha virt. eigenvalues --    4.40249   4.40629   4.41127   4.41315   4.42194
 Alpha virt. eigenvalues --    4.42416   4.43179   4.43384   4.43705   4.43788
 Alpha virt. eigenvalues --    4.44629   4.45307   4.45567   4.46619   4.47312
 Alpha virt. eigenvalues --    4.47439   4.48167   4.48664   4.48852   4.49384
 Alpha virt. eigenvalues --    4.49398   4.49646   4.49989   4.50630   4.51779
 Alpha virt. eigenvalues --    4.51994   4.52647   4.53143   4.54218   4.54574
 Alpha virt. eigenvalues --    4.54870   4.55426   4.55613   4.55891   4.56228
 Alpha virt. eigenvalues --    4.56579   4.56775   4.57015   4.57415   4.57612
 Alpha virt. eigenvalues --    4.58090   4.58444   4.58769   4.58885   4.59190
 Alpha virt. eigenvalues --    4.59404   4.59981   4.60730   4.61367   4.61385
 Alpha virt. eigenvalues --    4.61816   4.62217   4.62436   4.62712   4.62892
 Alpha virt. eigenvalues --    4.63368   4.63880   4.64556   4.64728   4.65160
 Alpha virt. eigenvalues --    4.65469   4.66023   4.66035   4.66446   4.67140
 Alpha virt. eigenvalues --    4.67466   4.67684   4.67973   4.68672   4.69051
 Alpha virt. eigenvalues --    4.69213   4.69544   4.69937   4.70787   4.71695
 Alpha virt. eigenvalues --    4.72020   4.72612   4.73233   4.73870   4.74964
 Alpha virt. eigenvalues --    4.75498   4.75919   4.76203   4.76833   4.76999
 Alpha virt. eigenvalues --    4.77473   4.78116   4.78394   4.78694   4.79391
 Alpha virt. eigenvalues --    4.79933   4.81332   4.81827   4.82387   4.83093
 Alpha virt. eigenvalues --    4.83712   4.84627   4.85607   4.85974   4.86321
 Alpha virt. eigenvalues --    4.87507   4.88031   4.88428   4.89075   4.89841
 Alpha virt. eigenvalues --    4.90010   4.91220   4.91560   4.92234   4.93096
 Alpha virt. eigenvalues --    4.93631   4.94524   4.94709   4.95760   4.96461
 Alpha virt. eigenvalues --    4.96679   4.97033   4.97999   4.98125   4.99331
 Alpha virt. eigenvalues --    4.99831   5.01095   5.01455   5.03002   5.03833
 Alpha virt. eigenvalues --    5.04291   5.04851   5.06669   5.06979   5.07347
 Alpha virt. eigenvalues --    5.07908   5.08454   5.09114   5.09739   5.10825
 Alpha virt. eigenvalues --    5.11424   5.12542   5.13207   5.14366   5.16759
 Alpha virt. eigenvalues --    5.16987   5.17854   5.18337   5.18642   5.18933
 Alpha virt. eigenvalues --    5.19150   5.19302   5.19456   5.19775   5.19933
 Alpha virt. eigenvalues --    5.20257   5.20597   5.21106   5.22316   5.22830
 Alpha virt. eigenvalues --    5.23170   5.23493   5.24987   5.25775   5.27540
 Alpha virt. eigenvalues --    5.27712   5.29045   5.29575   5.30602   5.32886
 Alpha virt. eigenvalues --    5.33022   5.33812   5.34587   5.34797   5.35451
 Alpha virt. eigenvalues --    5.36496   5.37444   5.38031   5.40113   5.41541
 Alpha virt. eigenvalues --    5.42654   5.43348   5.44276   5.44621   5.46437
 Alpha virt. eigenvalues --    5.46876   5.47787   5.51303   5.52170   5.52744
 Alpha virt. eigenvalues --    5.52999   5.53069   5.54228   5.54660   5.55415
 Alpha virt. eigenvalues --    5.56203   5.56713   5.57920   5.60608   5.61019
 Alpha virt. eigenvalues --    5.62764   5.64048   5.65178   5.66007   5.66912
 Alpha virt. eigenvalues --    5.67864   5.68138   5.68964   5.69843   5.70406
 Alpha virt. eigenvalues --    5.71371   5.71686   5.71847   5.72574   5.73167
 Alpha virt. eigenvalues --    5.73387   5.75251   5.76199   5.76402   5.76593
 Alpha virt. eigenvalues --    5.78134   5.78681   5.80861   5.82438   5.83900
 Alpha virt. eigenvalues --    5.85120   5.85820   5.86710   5.87207   5.87837
 Alpha virt. eigenvalues --    5.89107   5.90224   5.90325   5.92215   5.94139
 Alpha virt. eigenvalues --    5.94288   5.95657   5.97136   5.97804   5.99627
 Alpha virt. eigenvalues --    6.00635   6.01769   6.02182   6.02923   6.04439
 Alpha virt. eigenvalues --    6.07272   6.09232   6.09997   6.10313   6.12061
 Alpha virt. eigenvalues --    6.13778   6.13917   6.14128   6.15835   6.19985
 Alpha virt. eigenvalues --    6.20459   6.22090   6.23878   6.28373   6.31355
 Alpha virt. eigenvalues --    6.32578   6.35716   6.39201   6.40739   6.41808
 Alpha virt. eigenvalues --    6.42845   6.45332   6.46843   6.51071   6.66815
 Alpha virt. eigenvalues --    6.67186   6.68552   6.75913   6.78915   6.82488
 Alpha virt. eigenvalues --    6.94570   6.99097   6.99701   7.01251   7.02700
 Alpha virt. eigenvalues --    7.05924   7.06620   7.07631   7.08616   7.18651
 Alpha virt. eigenvalues --    7.22774   7.23333   7.25124   7.28998   7.32468
 Alpha virt. eigenvalues --    7.36584   7.39756   7.42483   7.46142   7.46864
 Alpha virt. eigenvalues --    7.48214   7.51179   7.51914   7.59241   7.70132
 Alpha virt. eigenvalues --    7.71931   7.73428   7.76453   7.77231   7.86620
 Alpha virt. eigenvalues --    7.98347   8.05269   8.08437  23.18635  23.22320
 Alpha virt. eigenvalues --   23.29134  23.45506  23.64968  23.71414  23.73018
 Alpha virt. eigenvalues --   23.73815  23.78171  23.78704  23.79483  23.80881
 Alpha virt. eigenvalues --   23.84943  23.85491  23.85620  23.87306  23.89352
 Alpha virt. eigenvalues --   23.92899  23.94604  23.94907  24.00024  24.01079
 Alpha virt. eigenvalues --   24.01637  24.03698  24.05961  24.07923  24.08444
 Alpha virt. eigenvalues --   24.09522  24.09925  24.17391  24.20677  24.21920
 Alpha virt. eigenvalues --   24.23775  24.25873  24.27218  24.29896  24.31054
 Alpha virt. eigenvalues --   24.34116  24.38423  24.42983  24.44056  24.50035
 Alpha virt. eigenvalues --   24.54876  24.73263  24.81733  24.83652  24.84307
 Alpha virt. eigenvalues --   24.96147  25.03496  25.10534  45.58351  45.64839
 Alpha virt. eigenvalues --   45.69741  45.74345  46.34470
          Condensed to atoms (all electrons):
 Mulliken charges:
               1
     1  C    0.432074
     2  C   -0.266381
     3  C    0.390244
     4  C    0.056904
     5  C   -0.240142
     6  C   -0.417106
     7  C    0.564289
     8  C    0.079007
     9  C    0.399889
    10  C   -0.190527
    11  C    0.359580
    12  C    0.011716
    13  C   -0.322953
    14  H    0.171815
    15  H    0.129961
    16  H    0.186904
    17  O   -0.320265
    18  O   -0.621774
    19  O   -0.632714
    20  C   -0.022350
    21  C   -0.419883
    22  C   -0.175610
    23  C   -0.114146
    24  H    0.157325
    25  C   -0.135551
    26  C   -0.190400
    27  H    0.161827
    28  H    0.167092
    29  H    0.158625
    30  C    0.468727
    31  O   -0.681193
    32  O   -0.670892
    33  C    0.232643
    34  C   -0.342932
    35  C   -0.272645
    36  C    0.233060
    37  H    0.145182
    38  C   -0.316968
    39  H    0.151848
    40  C    0.220127
    41  H    0.155387
    42  C    0.199390
    43  C   -0.422267
    44  C   -0.243831
    45  C    0.283609
    46  H    0.147897
    47  C   -0.348063
    48  H    0.151332
    49  C    0.225409
    50  H    0.154789
    51  C    0.089390
    52  C   -0.275874
    53  C   -0.325002
    54  C   -0.295520
    55  H    0.168186
    56  C    0.242687
    57  H    0.136977
    58  H    0.157813
    59  C   -0.372656
    60  C   -0.131374
    61  H    0.160593
    62  C   -0.147579
    63  H    0.160914
    64  C   -0.299132
    65  H    0.159890
    66  H    0.160382
    67  C   -0.398345
    68  C   -0.116557
    69  H    0.160723
    70  C   -0.160319
    71  H    0.160498
    72  C   -0.285112
    73  H    0.159925
    74  H    0.159864
    75  C    0.203069
    76  C   -0.293007
    77  C   -0.148598
    78  H    0.161972
    79  C   -0.130548
    80  H    0.161528
    81  C   -0.374772
    82  H    0.160614
    83  H    0.161312
 Sum of Mulliken charges =  -2.00000
 Mulliken charges with hydrogens summed into heavy atoms:
               1
     1  C    0.432074
     2  C   -0.266381
     3  C    0.390244
     4  C    0.056904
     5  C   -0.068327
     6  C   -0.287145
     7  C    0.564289
     8  C    0.079007
     9  C    0.399889
    10  C   -0.190527
    11  C    0.359580
    12  C    0.011716
    13  C   -0.136049
    17  O   -0.320265
    18  O   -0.621774
    19  O   -0.632714
    20  C   -0.022350
    21  C   -0.262559
    22  C   -0.175610
    23  C    0.047681
    25  C    0.031541
    26  C   -0.031775
    30  C    0.468727
    31  O   -0.681193
    32  O   -0.670892
    33  C    0.232643
    34  C   -0.197750
    35  C   -0.120797
    36  C    0.233060
    38  C   -0.161581
    40  C    0.220127
    42  C    0.199390
    43  C   -0.274370
    44  C   -0.092499
    45  C    0.283609
    47  C   -0.193273
    49  C    0.225409
    51  C    0.089390
    52  C   -0.107688
    53  C   -0.188025
    54  C   -0.137707
    56  C    0.242687
    59  C   -0.212274
    60  C    0.029219
    62  C    0.013335
    64  C   -0.139242
    67  C   -0.238481
    68  C    0.044165
    70  C    0.000179
    72  C   -0.125187
    75  C    0.203069
    76  C   -0.131695
    77  C    0.013374
    79  C    0.030980
    81  C   -0.214158
 Electronic spatial extent (au):  <R**2>=          40284.4059
 Charge=             -2.0000 electrons
 Dipole moment (field-independent basis, Debye):
    X=             -1.2723    Y=            -16.5185    Z=            -11.7865  Tot=             20.3323
 Quadrupole moment (field-independent basis, Debye-Ang):
   XX=           -386.8635   YY=           -437.7815   ZZ=           -346.0901
   XY=             36.1781   XZ=            -46.3527   YZ=            -26.0397
 Traceless Quadrupole moment (field-independent basis, Debye-Ang):
   XX=              3.3815   YY=            -47.5364   ZZ=             44.1549
   XY=             36.1781   XZ=            -46.3527   YZ=            -26.0397
 Octapole moment (field-independent basis, Debye-Ang**2):
  XXX=            151.8236  YYY=           -317.6181  ZZZ=           -124.8031  XYY=             21.0179
  XXY=           -365.1344  XXZ=             48.2016  XZZ=           -129.3429  YZZ=           -179.1014
  YYZ=           -232.9676  XYZ=           -173.9981
 Hexadecapole moment (field-independent basis, Debye-Ang**3):
 XXXX=         -35727.4359 YYYY=         -19518.8116 ZZZZ=          -3144.3165 XXXY=           1081.9927
 XXXZ=           -554.8734 YYYX=            618.4986 YYYZ=           -209.9242 ZZZX=           -412.1174
 ZZZY=           -443.1973 XXYY=          -9573.2241 XXZZ=          -6633.5552 YYZZ=          -3971.7407
 XXYZ=             59.7328 YYXZ=           -953.2947 ZZXY=           -232.5088
 N-N= 6.790499715244D+03 E-N=-1.899381729825D+04  KE= 2.284772295350D+03
 Leave Link  601 at Mon Feb 21 19:43:54 2022, MaxMem=  5242880000 cpu:        25.6
 (Enter /opt/nce/packages/global/g09/l9999.exe)
 1\1\GINC-CN058\SP\RTD-FC\Gen\C50H28O5(2-)\PNG4RJV\21-Feb-2022\0\\#p hf
  chkbasis geom=allcheck Guess=Read int=ultrafine scrf=(SMD,solvent=Ace
 tonitrile) td=(NStates=30)\\Title\\-2,1\C,-7.425836,-3.9337,-8.55779\C
 ,-6.1699,-3.770176,-7.853409\C,-5.576518,-2.538655,-7.824619\C,-6.1167
 67,-1.38909,-8.456595\C,-7.357325,-1.558393,-9.133343\C,-7.980463,-2.7
 45829,-9.183479\C,-5.431869,-0.179824,-8.371062\C,-4.214254,-0.121651,
 -7.692385\C,-3.721425,-1.285737,-7.056366\C,-2.553892,-1.305328,-6.350
 692\C,-1.752091,-0.103514,-6.242401\C,-2.259232,1.103524,-6.902427\C,-
 3.431348,1.054329,-7.569737\H,-7.801372,-0.708324,-9.613563\H,-8.91582
 8,-2.859409,-9.699938\H,-3.794518,1.943301,-8.046005\O,-4.418844,-2.43
 0247,-7.151222\O,-0.703892,-0.098737,-5.60838\O,-8.004767,-5.011747,-8
 .642321\C,-5.919263,1.012716,-9.142225\C,-5.469773,1.091814,-10.455832
 \C,-6.758416,2.005179,-8.639674\C,-5.83845,2.136821,-11.276712\H,-4.82
 2478,0.323724,-10.83685\C,-7.118198,3.050172,-9.484354\C,-6.670914,3.1
 2555,-10.78664\H,-5.47794,2.175946,-12.287886\H,-7.763168,3.810198,-9.
 092798\H,-6.96773,3.94658,-11.412802\C,-7.307627,2.008149,-7.203513\O,
 -8.026979,2.96,-6.902336\O,-6.981849,1.065303,-6.487669\C,-5.547382,-4
 .967928,-7.214512\C,-6.122068,-5.576877,-6.144291\C,-4.362621,-5.53517
 ,-7.758175\C,-5.578168,-6.756315,-5.5766\H,-7.021709,-5.174372,-5.7165
 44\C,-3.815723,-6.660609,-7.23818\H,-3.900512,-5.061457,-8.604329\C,-4
 .41218,-7.310202,-6.129235\H,-2.92183,-7.076233,-7.666579\C,-2.050488,
 -2.529522,-5.658002\C,-2.624202,-2.99027,-4.51728\C,-0.91495,-3.21696,
 -6.170669\C,-2.116589,-4.126012,-3.833239\H,-3.480004,-2.488474,-4.103
 79\C,-0.406988,-4.304182,-5.544335\H,-0.455585,-2.857895,-7.07274\C,-0
 .992543,-4.790973,-4.347254\H,0.451374,-4.810953,-5.946876\C,-1.50211,
 2.385342,-6.824493\C,-2.195459,3.593818,-6.533004\C,-0.160693,2.455136
 ,-7.052505\C,-1.554842,4.787669,-6.493187\H,-3.248866,3.55424,-6.32945
 6\C,0.536978,3.686789,-7.018998\H,0.395149,1.563818,-7.265932\H,-2.100
 063,5.6856,-6.265522\C,-6.185845,-7.401643,-4.468194\C,-5.653481,-8.53
 6485,-3.950816\H,-6.120599,-9.019456,-3.112535\C,-4.478753,-9.094081,-
 4.509475\H,-4.068154,-9.9932,-4.088692\C,-3.876128,-8.496864,-5.567395
 \H,-2.983365,-8.916027,-5.994647\H,-7.078039,-6.976635,-4.045698\C,-2.
 707866,-4.602492,-2.635603\C,-2.19616,-5.682239,-1.992787\H,-2.649888,
 -6.036439,-1.08571\C,-1.063099,-6.351017,-2.511387\H,-0.668982,-7.2050
 49,-1.992341\C,-0.479461,-5.917405,-3.65693\H,0.381371,-6.422696,-4.05
 5755\H,-3.569326,-4.092823,-2.244111\C,-0.163166,4.871731,-6.738368\C,
 0.541024,6.102672,-6.705816\C,1.87488,6.141795,-6.94596\H,2.403154,7.0
 76827,-6.920842\C,2.582455,4.948933,-7.231488\H,3.639209,4.994183,-7.4
 19654\C,1.933877,3.758951,-7.266119\H,2.469601,2.852378,-7.481325\H,-0
 .001416,7.0047,-6.487879\\Version=ES64L-G09RevE.01\State=1-A\HF=-2285.
 1736388\RMSD=2.427e-09\PG=C01 [X(C50H28O5)]\\@


 THESE ARE THE TIMES THAT TRY MENS SOULS.
 THE SUMMER SOLDIER AND THE SUNSHINE PATRIOT WILL IN THIS CRISIS,
 SHRINK FROM THE SERVICE OF HIS COUNTRY.  BUT HE THAT STANDS NOW,
 DESERVES THE LOVE AND THANKS OF MAN AND WOMAN.
 TYRANNY, LIKE HELL, IS NOT EASILY CONQUERED,
 YET WE HAVE THIS CONSOLATION WITH US,
 THAT THE HARDER THE CONFLICT, THE MORE GLORIOUS THE TRIUMPH.
 WHAT WE OBTAIN TOO CHEAP, WE ESTEEM TOO LIGHTLY, 
 'TIS DEARNESS ONLY THAT GIVES EVERYTHING ITS VALUE.

                                              -- TOM PAINE
 Job cpu time:      16 days 15 hours 41 minutes 18.8 seconds.
 File lengths (MBytes):  RWF=  17502 Int=      0 D2E=      0 Chk=   3060 Scr=      1
 Normal termination of Gaussian 09 at Mon Feb 21 19:44:00 2022.
