 Entering Gaussian System, Link 0=g09
 Input=/home/png4rjv/fotokatalizis/benchmark/OPCs/RESTART_extended/Eos_3_M06_def2TZVP.gjf
 Output=/home/png4rjv/fotokatalizis/benchmark/OPCs/RESTART_extended/Eos_3_M06_def2TZVP.log
 Initial command:
 /opt/nce/packages/global/g09/l1.exe "/home/png4rjv/fotokatalizis/benchmark/OPCs/RESTART_extended/Eos_3_M06_def2TZVP/Gau-38641.inp" -scrdir="/home/png4rjv/fotokatalizis/benchmark/OPCs/RESTART_extended/Eos_3_M06_def2TZVP/"
 Default is to use a total of  12 processors:
                               12 via shared-memory
                                1 via Linda
 Entering Link 1 = /opt/nce/packages/global/g09/l1.exe PID=     38642.
  
 Copyright (c) 1988,1990,1992,1993,1995,1998,2003,2009,2015,
            Gaussian, Inc.  All Rights Reserved.
  
 This is part of the Gaussian(R) 09 program.  It is based on
 the Gaussian(R) 03 system (copyright 2003, Gaussian, Inc.),
 the Gaussian(R) 98 system (copyright 1998, Gaussian, Inc.),
 the Gaussian(R) 94 system (copyright 1995, Gaussian, Inc.),
 the Gaussian 92(TM) system (copyright 1992, Gaussian, Inc.),
 the Gaussian 90(TM) system (copyright 1990, Gaussian, Inc.),
 the Gaussian 88(TM) system (copyright 1988, Gaussian, Inc.),
 the Gaussian 86(TM) system (copyright 1986, Carnegie Mellon
 University), and the Gaussian 82(TM) system (copyright 1983,
 Carnegie Mellon University). Gaussian is a federally registered
 trademark of Gaussian, Inc.
  
 This software contains proprietary and confidential information,
 including trade secrets, belonging to Gaussian, Inc.
  
 This software is provided under written license and may be
 used, copied, transmitted, or stored only in accord with that
 written license.
  
 The following legend is applicable only to US Government
 contracts under FAR:
  
                    RESTRICTED RIGHTS LEGEND
  
 Use, reproduction and disclosure by the US Government is
 subject to restrictions as set forth in subparagraphs (a)
 and (c) of the Commercial Computer Software - Restricted
 Rights clause in FAR 52.227-19.
  
 Gaussian, Inc.
 340 Quinnipiac St., Bldg. 40, Wallingford CT 06492
  
  
 ---------------------------------------------------------------
 Warning -- This program may not be used in any manner that
 competes with the business of Gaussian, Inc. or will provide
 assistance to any competitor of Gaussian, Inc.  The licensee
 of this program is prohibited from giving any competitor of
 Gaussian, Inc. access to this program.  By using this program,
 the user acknowledges that Gaussian, Inc. is engaged in the
 business of creating and licensing software in the field of
 computational chemistry and represents and warrants to the
 licensee that it is not a competitor of Gaussian, Inc. and that
 it will not use this program in any manner prohibited above.
 ---------------------------------------------------------------
  

 Cite this work as:
 Gaussian 09, Revision E.01,
 M. J. Frisch, G. W. Trucks, H. B. Schlegel, G. E. Scuseria, 
 M. A. Robb, J. R. Cheeseman, G. Scalmani, V. Barone, B. Mennucci, 
 G. A. Petersson, H. Nakatsuji, M. Caricato, X. Li, H. P. Hratchian, 
 A. F. Izmaylov, J. Bloino, G. Zheng, J. L. Sonnenberg, M. Hada, 
 M. Ehara, K. Toyota, R. Fukuda, J. Hasegawa, M. Ishida, T. Nakajima, 
 Y. Honda, O. Kitao, H. Nakai, T. Vreven, J. A. Montgomery, Jr., 
 J. E. Peralta, F. Ogliaro, M. Bearpark, J. J. Heyd, E. Brothers, 
 K. N. Kudin, V. N. Staroverov, T. Keith, R. Kobayashi, J. Normand, 
 K. Raghavachari, A. Rendell, J. C. Burant, S. S. Iyengar, J. Tomasi, 
 M. Cossi, N. Rega, J. M. Millam, M. Klene, J. E. Knox, J. B. Cross, 
 V. Bakken, C. Adamo, J. Jaramillo, R. Gomperts, R. E. Stratmann, 
 O. Yazyev, A. J. Austin, R. Cammi, C. Pomelli, J. W. Ochterski, 
 R. L. Martin, K. Morokuma, V. G. Zakrzewski, G. A. Voth, 
 P. Salvador, J. J. Dannenberg, S. Dapprich, A. D. Daniels, 
 O. Farkas, J. B. Foresman, J. V. Ortiz, J. Cioslowski, 
 and D. J. Fox, Gaussian, Inc., Wallingford CT, 2013.
 
 ******************************************
 Gaussian 09:  ES64L-G09RevE.01 30-Nov-2015
                18-Feb-2022 
 ******************************************
 %chk=cp.chk
 Default route:  MaxDisk=500GB
 ----------------------------------------------------------------------
 #p m06/def2TZVP freq=noraman nosymm int=(Acc2E=11,ultrafine) scrf=(SMD
 ,solvent=Acetonitrile)
 ----------------------------------------------------------------------
 1/10=4,30=1,38=1/1,3;
 2/12=2,15=1,17=6,18=5,40=1/2;
 3/5=44,7=101,11=2,16=1,25=1,30=1,70=32201,71=2,72=2,74=-54,75=-5,140=1/1,2,3;
 4//1;
 5/5=2,38=5,53=2,87=11,98=1/2;
 8/6=4,10=90,11=11,87=11/1;
 11/6=1,8=1,9=11,15=111,16=1,31=1,87=11/1,2,10;
 10/6=1,31=1,87=11/2;
 6/7=2,8=2,9=2,10=2,18=1,28=1/1;
 7/8=1,10=1,25=1,30=1,87=11/1,2,3,16;
 1/10=4,30=1/3;
 99//99;
 Leave Link    1 at Fri Feb 18 00:42:43 2022, MaxMem=           0 cpu:         2.0
 (Enter /opt/nce/packages/global/g09/l101.exe)
 -----
 Title
 -----
 Symbolic Z-matrix:
 Charge = -2 Multiplicity = 1
 C                    -7.42659  -3.94045  -8.3909 
 C                    -6.14533  -3.75866  -7.73566 
 C                    -5.55933  -2.51244  -7.74606 
 C                    -6.1104   -1.37891  -8.39218 
 C                    -7.35849  -1.56637  -9.04002 
 C                    -7.98115  -2.76723  -9.03725 
 C                    -5.43214  -0.15883  -8.33554 
 C                    -4.20576  -0.08114  -7.66309 
 C                    -3.70535  -1.22626  -7.00289 
 C                    -2.52203  -1.23656  -6.30314 
 C                    -1.71806  -0.03556  -6.22097 
 C                    -2.23802   1.15352  -6.9062 
 C                    -3.4264    1.09209  -7.57407 
 H                    -7.81528  -0.71643  -9.53719 
 H                    -8.9384   -2.89977  -9.53191 
 H                    -3.79528   1.97802  -8.08205 
 O                    -4.39377  -2.38796  -7.07036 
 O                    -0.65809  -0.01213  -5.5728 
 O                    -8.02427  -5.03015  -8.42277 
 C                    -5.91088   0.99405  -9.14018 
 C                    -5.48521   1.0295   -10.46711 
 C                    -6.72948   2.01443  -8.65078 
 C                    -5.85952   2.05945  -11.31113 
 H                    -4.84782   0.23107  -10.8358 
 C                    -7.0937    3.04227  -9.51531 
 C                    -6.67098   3.07483  -10.83102 
 H                    -5.51683   2.06681  -12.33977 
 H                    -7.7285    3.82424  -9.11437 
 H                    -6.97191   3.88851  -11.48182 
 C                    -7.23756   2.03657  -7.2073 
 O                    -7.92741   3.02026  -6.88014 
 O                    -6.91373   1.0642   -6.49699 
 C                    -5.47707  -4.90364  -7.08656 
 C                    -6.12238  -5.67352  -6.15062 
 C                    -4.14971  -5.25596  -7.44194 
 C                    -5.50232  -6.78779  -5.54695 
 H                    -7.13989  -5.43073  -5.86148 
 C                    -3.52021  -6.32584  -6.87769 
 H                    -3.6333   -4.66443  -8.19037 
 C                    -4.17439  -7.12738  -5.91683 
 H                    -2.50652  -6.58506  -7.16955 
 C                    -2.05127  -2.46139  -5.62459 
 C                    -2.82978  -3.1223   -4.70706 
 C                    -0.77429  -2.99493  -5.92783 
 C                    -2.39432  -4.30271  -4.0709 
 H                    -3.81322  -2.73773  -4.45183 
 C                    -0.32175  -4.13587  -5.33218 
 H                    -0.1551   -2.48083  -6.65413 
 C                    -1.11136  -4.82247  -4.38399 
 H                     0.65732  -4.53512  -5.57961 
 C                    -1.49381   2.42437  -6.86124 
 C                    -2.19967   3.64822  -6.72798 
 C                    -0.12377   2.48064  -6.97497 
 C                    -1.55534   4.84989  -6.72385 
 H                    -3.27782   3.62059  -6.608 
 C                     0.57222   3.70587  -6.97981 
 H                     0.44633   1.5646   -7.07274 
 H                    -2.11559   5.77319  -6.61175 
 C                    -6.16122  -7.57954  -4.58014 
 C                    -5.53943  -8.65766  -4.01492 
 H                    -6.05776  -9.25742  -3.27503 
 C                    -4.22671  -8.99928  -4.39143 
 H                    -3.7451   -9.85895  -3.93884 
 C                    -3.56139  -8.24924  -5.32089 
 H                    -2.54723  -8.50333  -5.61515 
 H                    -7.17532  -7.31458  -4.29682 
 C                    -3.19432  -4.98379  -3.12598 
 C                    -2.74093  -6.11859  -2.51456 
 H                    -3.36226  -6.63011  -1.78766 
 C                    -1.46787  -6.6332   -2.82607 
 H                    -1.12156  -7.53715  -2.33718 
 C                    -0.67408  -6.00042  -3.74168 
 H                     0.30837  -6.39197  -3.98771 
 H                    -4.17599  -4.5823   -2.89185 
 C                    -0.15221   4.92007  -6.85216 
 C                     0.55019   6.1435   -6.8543 
 C                     1.91044   6.1683   -6.9832 
 H                     2.44078   7.11396  -6.98533 
 C                     2.6312    4.96563  -7.11467 
 H                     3.71024   4.99682  -7.21724 
 C                     1.97819   3.76584  -7.11213 
 H                     2.52936   2.83565  -7.21143 
 H                    -0.0139    7.06572  -6.7527 
 
 NAtoms=     83 NQM=       83 NQMF=       0 NMMI=      0 NMMIF=      0
                NMic=       0 NMicF=      0.
                    Isotopes and Nuclear Properties:
 (Nuclear quadrupole moments (NQMom) in fm**2, nuclear magnetic moments (NMagM)
  in nuclear magnetons)

  Atom         1           2           3           4           5           6           7           8           9          10
 IAtWgt=          12          12          12          12          12          12          12          12          12          12
 AtmWgt=  12.0000000  12.0000000  12.0000000  12.0000000  12.0000000  12.0000000  12.0000000  12.0000000  12.0000000  12.0000000
 NucSpn=           0           0           0           0           0           0           0           0           0           0
 AtZEff=   0.0000000   0.0000000   0.0000000   0.0000000   0.0000000   0.0000000   0.0000000   0.0000000   0.0000000   0.0000000
 NQMom=    0.0000000   0.0000000   0.0000000   0.0000000   0.0000000   0.0000000   0.0000000   0.0000000   0.0000000   0.0000000
 NMagM=    0.0000000   0.0000000   0.0000000   0.0000000   0.0000000   0.0000000   0.0000000   0.0000000   0.0000000   0.0000000
 AtZNuc=   6.0000000   6.0000000   6.0000000   6.0000000   6.0000000   6.0000000   6.0000000   6.0000000   6.0000000   6.0000000

  Atom        11          12          13          14          15          16          17          18          19          20
 IAtWgt=          12          12          12           1           1           1          16          16          16          12
 AtmWgt=  12.0000000  12.0000000  12.0000000   1.0078250   1.0078250   1.0078250  15.9949146  15.9949146  15.9949146  12.0000000
 NucSpn=           0           0           0           1           1           1           0           0           0           0
 AtZEff=   0.0000000   0.0000000   0.0000000   0.0000000   0.0000000   0.0000000   0.0000000   0.0000000   0.0000000   0.0000000
 NQMom=    0.0000000   0.0000000   0.0000000   0.0000000   0.0000000   0.0000000   0.0000000   0.0000000   0.0000000   0.0000000
 NMagM=    0.0000000   0.0000000   0.0000000   2.7928460   2.7928460   2.7928460   0.0000000   0.0000000   0.0000000   0.0000000
 AtZNuc=   6.0000000   6.0000000   6.0000000   1.0000000   1.0000000   1.0000000   8.0000000   8.0000000   8.0000000   6.0000000

  Atom        21          22          23          24          25          26          27          28          29          30
 IAtWgt=          12          12          12           1          12          12           1           1           1          12
 AtmWgt=  12.0000000  12.0000000  12.0000000   1.0078250  12.0000000  12.0000000   1.0078250   1.0078250   1.0078250  12.0000000
 NucSpn=           0           0           0           1           0           0           1           1           1           0
 AtZEff=   0.0000000   0.0000000   0.0000000   0.0000000   0.0000000   0.0000000   0.0000000   0.0000000   0.0000000   0.0000000
 NQMom=    0.0000000   0.0000000   0.0000000   0.0000000   0.0000000   0.0000000   0.0000000   0.0000000   0.0000000   0.0000000
 NMagM=    0.0000000   0.0000000   0.0000000   2.7928460   0.0000000   0.0000000   2.7928460   2.7928460   2.7928460   0.0000000
 AtZNuc=   6.0000000   6.0000000   6.0000000   1.0000000   6.0000000   6.0000000   1.0000000   1.0000000   1.0000000   6.0000000

  Atom        31          32          33          34          35          36          37          38          39          40
 IAtWgt=          16          16          12          12          12          12           1          12           1          12
 AtmWgt=  15.9949146  15.9949146  12.0000000  12.0000000  12.0000000  12.0000000   1.0078250  12.0000000   1.0078250  12.0000000
 NucSpn=           0           0           0           0           0           0           1           0           1           0
 AtZEff=   0.0000000   0.0000000   0.0000000   0.0000000   0.0000000   0.0000000   0.0000000   0.0000000   0.0000000   0.0000000
 NQMom=    0.0000000   0.0000000   0.0000000   0.0000000   0.0000000   0.0000000   0.0000000   0.0000000   0.0000000   0.0000000
 NMagM=    0.0000000   0.0000000   0.0000000   0.0000000   0.0000000   0.0000000   2.7928460   0.0000000   2.7928460   0.0000000
 AtZNuc=   8.0000000   8.0000000   6.0000000   6.0000000   6.0000000   6.0000000   1.0000000   6.0000000   1.0000000   6.0000000

  Atom        41          42          43          44          45          46          47          48          49          50
 IAtWgt=           1          12          12          12          12           1          12           1          12           1
 AtmWgt=   1.0078250  12.0000000  12.0000000  12.0000000  12.0000000   1.0078250  12.0000000   1.0078250  12.0000000   1.0078250
 NucSpn=           1           0           0           0           0           1           0           1           0           1
 AtZEff=   0.0000000   0.0000000   0.0000000   0.0000000   0.0000000   0.0000000   0.0000000   0.0000000   0.0000000   0.0000000
 NQMom=    0.0000000   0.0000000   0.0000000   0.0000000   0.0000000   0.0000000   0.0000000   0.0000000   0.0000000   0.0000000
 NMagM=    2.7928460   0.0000000   0.0000000   0.0000000   0.0000000   2.7928460   0.0000000   2.7928460   0.0000000   2.7928460
 AtZNuc=   1.0000000   6.0000000   6.0000000   6.0000000   6.0000000   1.0000000   6.0000000   1.0000000   6.0000000   1.0000000

  Atom        51          52          53          54          55          56          57          58          59          60
 IAtWgt=          12          12          12          12           1          12           1           1          12          12
 AtmWgt=  12.0000000  12.0000000  12.0000000  12.0000000   1.0078250  12.0000000   1.0078250   1.0078250  12.0000000  12.0000000
 NucSpn=           0           0           0           0           1           0           1           1           0           0
 AtZEff=   0.0000000   0.0000000   0.0000000   0.0000000   0.0000000   0.0000000   0.0000000   0.0000000   0.0000000   0.0000000
 NQMom=    0.0000000   0.0000000   0.0000000   0.0000000   0.0000000   0.0000000   0.0000000   0.0000000   0.0000000   0.0000000
 NMagM=    0.0000000   0.0000000   0.0000000   0.0000000   2.7928460   0.0000000   2.7928460   2.7928460   0.0000000   0.0000000
 AtZNuc=   6.0000000   6.0000000   6.0000000   6.0000000   1.0000000   6.0000000   1.0000000   1.0000000   6.0000000   6.0000000

  Atom        61          62          63          64          65          66          67          68          69          70
 IAtWgt=           1          12           1          12           1           1          12          12           1          12
 AtmWgt=   1.0078250  12.0000000   1.0078250  12.0000000   1.0078250   1.0078250  12.0000000  12.0000000   1.0078250  12.0000000
 NucSpn=           1           0           1           0           1           1           0           0           1           0
 AtZEff=   0.0000000   0.0000000   0.0000000   0.0000000   0.0000000   0.0000000   0.0000000   0.0000000   0.0000000   0.0000000
 NQMom=    0.0000000   0.0000000   0.0000000   0.0000000   0.0000000   0.0000000   0.0000000   0.0000000   0.0000000   0.0000000
 NMagM=    2.7928460   0.0000000   2.7928460   0.0000000   2.7928460   2.7928460   0.0000000   0.0000000   2.7928460   0.0000000
 AtZNuc=   1.0000000   6.0000000   1.0000000   6.0000000   1.0000000   1.0000000   6.0000000   6.0000000   1.0000000   6.0000000

  Atom        71          72          73          74          75          76          77          78          79          80
 IAtWgt=           1          12           1           1          12          12          12           1          12           1
 AtmWgt=   1.0078250  12.0000000   1.0078250   1.0078250  12.0000000  12.0000000  12.0000000   1.0078250  12.0000000   1.0078250
 NucSpn=           1           0           1           1           0           0           0           1           0           1
 AtZEff=   0.0000000   0.0000000   0.0000000   0.0000000   0.0000000   0.0000000   0.0000000   0.0000000   0.0000000   0.0000000
 NQMom=    0.0000000   0.0000000   0.0000000   0.0000000   0.0000000   0.0000000   0.0000000   0.0000000   0.0000000   0.0000000
 NMagM=    2.7928460   0.0000000   2.7928460   2.7928460   0.0000000   0.0000000   0.0000000   2.7928460   0.0000000   2.7928460
 AtZNuc=   1.0000000   6.0000000   1.0000000   1.0000000   6.0000000   6.0000000   6.0000000   1.0000000   6.0000000   1.0000000

  Atom        81          82          83
 IAtWgt=          12           1           1
 AtmWgt=  12.0000000   1.0078250   1.0078250
 NucSpn=           0           1           1
 AtZEff=   0.0000000   0.0000000   0.0000000
 NQMom=    0.0000000   0.0000000   0.0000000
 NMagM=    0.0000000   2.7928460   2.7928460
 AtZNuc=   6.0000000   1.0000000   1.0000000
 Leave Link  101 at Fri Feb 18 00:42:43 2022, MaxMem=  5242880000 cpu:         1.2
 (Enter /opt/nce/packages/global/g09/l103.exe)

 GradGradGradGradGradGradGradGradGradGradGradGradGradGradGradGradGradGrad
 Berny optimization.
 Initialization pass.
 Trust Radius=3.00D-01 FncErr=1.00D-07 GrdErr=1.00D-07
 Number of steps in this run=      2 maximum allowed number of steps=      2.
 GradGradGradGradGradGradGradGradGradGradGradGradGradGradGradGradGradGrad

 Leave Link  103 at Fri Feb 18 00:42:43 2022, MaxMem=  5242880000 cpu:         0.2
 (Enter /opt/nce/packages/global/g09/l202.exe)
 Symmetry turned off by external request.
 Stoichiometry    C50H28O5(2-)
 Framework group  C1[X(C50H28O5)]
 Deg. of freedom   243
 Full point group                 C1      NOp   1
                          Input orientation:                          
 ---------------------------------------------------------------------
 Center     Atomic      Atomic             Coordinates (Angstroms)
 Number     Number       Type             X           Y           Z
 ---------------------------------------------------------------------
      1          6           0       -7.426590   -3.940447   -8.390898
      2          6           0       -6.145329   -3.758664   -7.735657
      3          6           0       -5.559333   -2.512442   -7.746059
      4          6           0       -6.110399   -1.378907   -8.392185
      5          6           0       -7.358486   -1.566368   -9.040016
      6          6           0       -7.981152   -2.767232   -9.037246
      7          6           0       -5.432140   -0.158831   -8.335541
      8          6           0       -4.205756   -0.081144   -7.663087
      9          6           0       -3.705350   -1.226264   -7.002893
     10          6           0       -2.522026   -1.236557   -6.303143
     11          6           0       -1.718055   -0.035562   -6.220969
     12          6           0       -2.238015    1.153519   -6.906196
     13          6           0       -3.426398    1.092090   -7.574070
     14          1           0       -7.815276   -0.716431   -9.537194
     15          1           0       -8.938402   -2.899771   -9.531905
     16          1           0       -3.795276    1.978024   -8.082046
     17          8           0       -4.393769   -2.387957   -7.070360
     18          8           0       -0.658094   -0.012133   -5.572804
     19          8           0       -8.024275   -5.030154   -8.422766
     20          6           0       -5.910878    0.994049   -9.140183
     21          6           0       -5.485208    1.029499  -10.467111
     22          6           0       -6.729483    2.014429   -8.650783
     23          6           0       -5.859515    2.059451  -11.311131
     24          1           0       -4.847824    0.231070  -10.835803
     25          6           0       -7.093695    3.042267   -9.515309
     26          6           0       -6.670976    3.074826  -10.831024
     27          1           0       -5.516831    2.066810  -12.339775
     28          1           0       -7.728497    3.824244   -9.114373
     29          1           0       -6.971913    3.888507  -11.481823
     30          6           0       -7.237562    2.036572   -7.207297
     31          8           0       -7.927410    3.020263   -6.880141
     32          8           0       -6.913727    1.064197   -6.496988
     33          6           0       -5.477068   -4.903636   -7.086561
     34          6           0       -6.122383   -5.673520   -6.150617
     35          6           0       -4.149710   -5.255961   -7.441940
     36          6           0       -5.502325   -6.787792   -5.546948
     37          1           0       -7.139885   -5.430729   -5.861484
     38          6           0       -3.520206   -6.325837   -6.877685
     39          1           0       -3.633303   -4.664430   -8.190373
     40          6           0       -4.174389   -7.127381   -5.916830
     41          1           0       -2.506516   -6.585061   -7.169545
     42          6           0       -2.051271   -2.461393   -5.624587
     43          6           0       -2.829780   -3.122302   -4.707055
     44          6           0       -0.774293   -2.994932   -5.927834
     45          6           0       -2.394322   -4.302706   -4.070901
     46          1           0       -3.813220   -2.737729   -4.451833
     47          6           0       -0.321745   -4.135871   -5.332175
     48          1           0       -0.155098   -2.480828   -6.654127
     49          6           0       -1.111359   -4.822468   -4.383989
     50          1           0        0.657315   -4.535121   -5.579610
     51          6           0       -1.493805    2.424368   -6.861239
     52          6           0       -2.199669    3.648216   -6.727979
     53          6           0       -0.123765    2.480639   -6.974973
     54          6           0       -1.555339    4.849892   -6.723854
     55          1           0       -3.277816    3.620591   -6.607995
     56          6           0        0.572216    3.705871   -6.979812
     57          1           0        0.446328    1.564598   -7.072744
     58          1           0       -2.115595    5.773188   -6.611752
     59          6           0       -6.161219   -7.579538   -4.580139
     60          6           0       -5.539425   -8.657664   -4.014924
     61          1           0       -6.057765   -9.257417   -3.275028
     62          6           0       -4.226709   -8.999278   -4.391431
     63          1           0       -3.745096   -9.858955   -3.938839
     64          6           0       -3.561390   -8.249244   -5.320885
     65          1           0       -2.547227   -8.503328   -5.615148
     66          1           0       -7.175325   -7.314578   -4.296824
     67          6           0       -3.194316   -4.983793   -3.125978
     68          6           0       -2.740931   -6.118587   -2.514557
     69          1           0       -3.362264   -6.630115   -1.787661
     70          6           0       -1.467872   -6.633199   -2.826065
     71          1           0       -1.121559   -7.537152   -2.337183
     72          6           0       -0.674079   -6.000422   -3.741683
     73          1           0        0.308372   -6.391974   -3.987714
     74          1           0       -4.175994   -4.582304   -2.891848
     75          6           0       -0.152205    4.920072   -6.852163
     76          6           0        0.550193    6.143499   -6.854295
     77          6           0        1.910440    6.168302   -6.983195
     78          1           0        2.440778    7.113961   -6.985331
     79          6           0        2.631195    4.965634   -7.114665
     80          1           0        3.710235    4.996817   -7.217243
     81          6           0        1.978189    3.765840   -7.112128
     82          1           0        2.529360    2.835653   -7.211426
     83          1           0       -0.013900    7.065722   -6.752703
 ---------------------------------------------------------------------
 Rotational constants (GHZ):      0.0721122      0.0351976      0.0255323
 Leave Link  202 at Fri Feb 18 00:42:43 2022, MaxMem=  5242880000 cpu:         0.1
 (Enter /opt/nce/packages/global/g09/l301.exe)
 Standard basis: def2TZVP (5D, 7F)
 Ernie: Thresh=  0.10000D-02 Tol=  0.10000D-05 Strict=F.
  1873 basis functions,  3029 primitive gaussians,  2148 cartesian basis functions
   185 alpha electrons      185 beta electrons
       nuclear repulsion energy      6854.3957141610 Hartrees.
 IExCor= 4235 DFT=T Ex+Corr=M06 ExCW=0 ScaHFX=  0.270000
 ScaDFX=  1.000000  1.000000  1.000000  1.000000 ScalE2=  1.000000  1.000000
 IRadAn=      5 IRanWt=     -1 IRanGd=            0 ICorTp=0 IEmpDi=  4
 NAtoms=   83 NActive=   83 NUniq=   83 SFac= 1.00D+00 NAtFMM=   60 NAOKFM=T Big=T
 Integral buffers will be    131072 words long.
 Raffenetti 2 integral format.
 Two-electron integral symmetry is turned off.
 Force inversion solution in PCM.
 ------------------------------------------------------------------------------
 Polarizable Continuum Model (PCM)
 =================================
 Model                : PCM (using non-symmetric T matrix).
 Atomic radii         : SMD-Coulomb.
 Polarization charges : Total charges.
 Charge compensation  : None.
 Solution method      : Matrix inversion.
 Cavity type          : VdW (van der Waals Surface) (Alpha=1.000).
 Cavity algorithm     : GePol (No added spheres)
                        Default sphere list used, NSphG=   83.
                        Lebedev-Laikov grids with approx.  5.0 points / Ang**2.
                        Smoothing algorithm: York/Karplus (Gamma=1.0000).
                        Polarization charges: spherical gaussians, with
                                              point-specific exponents (IZeta= 3).
                        Self-potential: point-specific (ISelfS= 7).
                        Self-field    : sphere-specific E.n sum rule (ISelfD= 2).
 1st derivatives      : Analytical E(r).r(x)/FMM algorithm (CHGder, D1EAlg=3).
                        Cavity 1st derivative terms included.
 2nd derivatives      : Analytical E(r).r(xy)/FMM algorithm (CHGder, D2EAlg=3).
                        Cavity 2nd derivative terms included.
 Solvent              : Acetonitrile, Eps=  35.688000 Eps(inf)=   1.806874
 ------------------------------------------------------------------------------
 GePol: Number of generator spheres                  =      83
 GePol: Total number of spheres                      =      83
 GePol: Number of exposed spheres                    =      83 (100.00%)
 GePol: Number of points                             =    6218
 GePol: Average weight of points                     =       0.11
 GePol: Minimum weight of points                     =   0.11D-11
 GePol: Maximum weight of points                     =    0.21559
 GePol: Number of points with low weight             =     394
 GePol: Fraction of low-weight points (<1% of avg)   =       6.34%
 GePol: Cavity surface area                          =    705.959 Ang**2
 GePol: Cavity volume                                =    742.815 Ang**3
 ------------------------------------------------------------------------------
 Atomic radii for non-electrostatic terms: SMD-CDS.
 ------------------------------------------------------------------------------
 PCM non-electrostatic energy =        -0.0190030424 Hartrees.
 Nuclear repulsion after PCM non-electrostatic terms =     6854.3767111186 Hartrees.
 Leave Link  301 at Fri Feb 18 00:42:43 2022, MaxMem=  5242880000 cpu:         2.1
 (Enter /opt/nce/packages/global/g09/l302.exe)
 NPDir=0 NMtPBC=     1 NCelOv=     1 NCel=       1 NClECP=     1 NCelD=      1
         NCelK=      1 NCelE2=     1 NClLst=     1 CellRange=     0.0.
 One-electron integrals computed using PRISM.
   1 Symmetry operations used in ECPInt.
 ECPInt:  NShTT=  257403 NPrTT=  805840 LenC2=  175764 LenP2D=  355055.
 LDataN:  DoStor=T MaxTD1= 6 Len=  172
 NBasis=  1873 RedAO= T EigKep=  3.36D-06  NBF=  1873
 NBsUse=  1873 1.00D-06 EigRej= -1.00D+00 NBFU=  1873
 Precomputing XC quadrature grid using
 IXCGrd= 4 IRadAn=           5 IRanWt=          -1 IRanGd=           0 AccXCQ= 0.00D+00.
 Generated NRdTot=       0 NPtTot=           0 NUsed=           0 NTot=          32
 NSgBfM=  2005  2005  2005  2005  2005 MxSgAt=    83 MxSgA2=    83.
 Leave Link  302 at Fri Feb 18 00:42:52 2022, MaxMem=  5242880000 cpu:       104.5
 (Enter /opt/nce/packages/global/g09/l303.exe)
 DipDrv:  MaxL=1.
 Leave Link  303 at Fri Feb 18 00:42:53 2022, MaxMem=  5242880000 cpu:         7.7
 (Enter /opt/nce/packages/global/g09/l401.exe)
 ExpMin= 9.52D-02 ExpMax= 2.70D+04 ExpMxC= 9.22D+02 IAcc=3 IRadAn=         5 AccDes= 0.00D+00
 Harris functional with IExCor= 1009 and IRadAn=       5 diagonalized for initial guess.
 HarFok:  IExCor= 1009 AccDes= 0.00D+00 IRadAn=         5 IDoV= 1 UseB2=F ITyADJ=14
 ICtDFT=  3500011 ScaDFX=  1.000000  1.000000  1.000000  1.000000
 FoFCou: FMM=F IPFlag=           0 FMFlag=      100000 FMFlg1=        2001
         NFxFlg=           0 DoJE=T BraDBF=F KetDBF=T FulRan=T
         wScrn=  0.000000 ICntrl=     500 IOpCl=  0 I1Cent=   200000004 NGrid=           0
         NMat0=    1 NMatS0=      1 NMatT0=    0 NMatD0=    1 NMtDS0=    0 NMtDT0=    0
 Symmetry not used in FoFCou.
 Harris En= -2297.71444861966    
 JPrj=0 DoOrth=F DoCkMO=F.
 Leave Link  401 at Fri Feb 18 00:43:19 2022, MaxMem=  5242880000 cpu:       314.4
 (Enter /opt/nce/packages/global/g09/l502.exe)
 Closed shell SCF:
 Using DIIS extrapolation, IDIIS=  1040.
 Two-electron integral symmetry not used.
 IVT=    13899092 IEndB=    13899092 NGot=  5242880000 MDV=  5233613601
 LenX=  5233613601 LenY=  5228997549
 Requested convergence on RMS density matrix=1.00D-08 within 128 cycles.
 Requested convergence on MAX density matrix=1.00D-06.
 Requested convergence on             energy=1.00D-06.
 No special actions if energy rises.
 Fock matrices will be formed incrementally for  20 cycles.

 Cycle   1  Pass 1  IDiag  1:
 FoFJK:  IHMeth= 1 ICntrl=       0 DoSepK=F KAlg= 0 I1Cent=   0 FoldK=F
 IRaf= 640000000 NMat=   1 IRICut=       1 DoRegI=T DoRafI=F ISym2E= 0.
 FoFCou: FMM=T IPFlag=           0 FMFlag=      100000 FMFlg1=        2001
         NFxFlg=           0 DoJE=F BraDBF=F KetDBF=F FulRan=T
         wScrn=  0.000000 ICntrl=       0 IOpCl=  0 I1Cent=           0 NGrid=           0
         NMat0=    1 NMatS0=      1 NMatT0=    0 NMatD0=    1 NMtDS0=    0 NMtDT0=    0
 Symmetry not used in FoFCou.
 FMM levels:  10  Number of levels for PrismC:   9
 Inv3:  Mode=1 IEnd=   115990572.
 Iteration    1 A*A^-1 deviation from unit magnitude is 8.99D-15 for   6199.
 Iteration    1 A*A^-1 deviation from orthogonality  is 3.48D-15 for   2815   1004.
 Iteration    1 A^-1*A deviation from unit magnitude is 8.99D-15 for   6199.
 Iteration    1 A^-1*A deviation from orthogonality  is 1.67D-07 for   6196   3500.
 Iteration    2 A*A^-1 deviation from unit magnitude is 2.66D-15 for    385.
 Iteration    2 A*A^-1 deviation from orthogonality  is 3.75D-15 for   3646   1050.
 Iteration    2 A^-1*A deviation from unit magnitude is 1.11D-15 for   2869.
 Iteration    2 A^-1*A deviation from orthogonality  is 4.73D-16 for   4647   1622.
 E= -2296.78519912833    
 DIIS: error= 1.51D-02 at cycle   1 NSaved=   1.
 NSaved= 1 IEnMin= 1 EnMin= -2296.78519912833     IErMin= 1 ErrMin= 1.51D-02
 ErrMax= 1.51D-02  0.00D+00 EMaxC= 1.00D-01 BMatC= 1.12D+00 BMatP= 1.12D+00
 IDIUse=3 WtCom= 8.49D-01 WtEn= 1.51D-01
 Coeff-Com:  0.100D+01
 Coeff-En:   0.100D+01
 Coeff:      0.100D+01
 Gap=     0.103 Goal=   None    Shift=    0.000
 GapD=    0.103 DampG=1.000 DampE=0.500 DampFc=0.5000 IDamp=-1.
 Damping current iteration by 5.00D-01
 RMSDP=1.22D-02 MaxDP=3.00D+00              OVMax= 2.76D-01

 Cycle   2  Pass 1  IDiag  1:
 RMSU=  5.98D-03    CP:  1.28D+00
 E= -2297.24723589077     Delta-E=       -0.462036762441 Rises=F Damp=T
 DIIS: error= 4.55D-03 at cycle   2 NSaved=   2.
 NSaved= 2 IEnMin= 2 EnMin= -2297.24723589077     IErMin= 2 ErrMin= 4.55D-03
 ErrMax= 4.55D-03  0.00D+00 EMaxC= 1.00D-01 BMatC= 9.82D-02 BMatP= 1.12D+00
 IDIUse=3 WtCom= 9.55D-01 WtEn= 4.55D-02
 Coeff-Com:  0.854D-01 0.915D+00
 Coeff-En:   0.102D+00 0.898D+00
 Coeff:      0.862D-01 0.914D+00
 Gap=     0.186 Goal=   None    Shift=    0.000
 RMSDP=4.37D-03 MaxDP=1.17D+00 DE=-4.62D-01 OVMax= 2.37D-01

 Cycle   3  Pass 1  IDiag  1:
 RMSU=  1.80D-03    CP:  1.09D+00  3.48D-01
 E= -2297.75407231148     Delta-E=       -0.506836420713 Rises=F Damp=F
 DIIS: error= 4.50D-03 at cycle   3 NSaved=   3.
 NSaved= 3 IEnMin= 3 EnMin= -2297.75407231148     IErMin= 3 ErrMin= 4.50D-03
 ErrMax= 4.50D-03  0.00D+00 EMaxC= 1.00D-01 BMatC= 1.30D-01 BMatP= 9.82D-02
 IDIUse=3 WtCom= 1.30D-01 WtEn= 8.70D-01
 Coeff-Com: -0.206D-01 0.545D+00 0.475D+00
 Coeff-En:   0.000D+00 0.000D+00 0.100D+01
 Coeff:     -0.267D-02 0.708D-01 0.932D+00
 Gap=     0.113 Goal=   None    Shift=    0.000
 RMSDP=3.75D-03 MaxDP=1.12D+00 DE=-5.07D-01 OVMax= 2.78D-01

 Cycle   4  Pass 1  IDiag  1:
 RMSU=  1.88D-03    CP:  1.24D+00  8.61D-01  5.36D-01
 E= -2297.45724539466     Delta-E=        0.296826916821 Rises=F Damp=F
 DIIS: error= 1.13D-02 at cycle   4 NSaved=   4.
 NSaved= 4 IEnMin= 3 EnMin= -2297.75407231148     IErMin= 3 ErrMin= 4.50D-03
 ErrMax= 1.13D-02  0.00D+00 EMaxC= 1.00D-01 BMatC= 4.70D-01 BMatP= 9.82D-02
 IDIUse=2 WtCom= 0.00D+00 WtEn= 1.00D+00
 Coeff-En:   0.000D+00 0.000D+00 0.736D+00 0.264D+00
 Coeff:      0.000D+00 0.000D+00 0.736D+00 0.264D+00
 Gap=     0.153 Goal=   None    Shift=    0.000
 RMSDP=2.68D-03 MaxDP=8.12D-01 DE= 2.97D-01 OVMax= 1.42D-01

 Cycle   5  Pass 1  IDiag  1:
 RMSU=  3.37D-04    CP:  1.14D+00  4.86D-01  8.35D-01  3.37D-01
 E= -2297.84613730713     Delta-E=       -0.388891912473 Rises=F Damp=F
 DIIS: error= 2.67D-03 at cycle   5 NSaved=   5.
 NSaved= 5 IEnMin= 5 EnMin= -2297.84613730713     IErMin= 5 ErrMin= 2.67D-03
 ErrMax= 2.67D-03  0.00D+00 EMaxC= 1.00D-01 BMatC= 2.33D-02 BMatP= 9.82D-02
 IDIUse=3 WtCom= 9.73D-01 WtEn= 2.67D-02
 Coeff-Com:  0.820D-02-0.354D-02 0.333D+00 0.461D-01 0.616D+00
 Coeff-En:   0.000D+00 0.000D+00 0.177D+00 0.000D+00 0.823D+00
 Coeff:      0.798D-02-0.345D-02 0.329D+00 0.449D-01 0.622D+00
 Gap=     0.121 Goal=   None    Shift=    0.000
 RMSDP=3.57D-04 MaxDP=9.27D-02 DE=-3.89D-01 OVMax= 3.49D-02

 Cycle   6  Pass 1  IDiag  1:
 RMSU=  8.89D-05    CP:  1.12D+00  4.40D-01  8.90D-01  2.61D-01  7.01D-01
 E= -2297.86527175502     Delta-E=       -0.019134447886 Rises=F Damp=F
 DIIS: error= 6.03D-04 at cycle   6 NSaved=   6.
 NSaved= 6 IEnMin= 6 EnMin= -2297.86527175502     IErMin= 6 ErrMin= 6.03D-04
 ErrMax= 6.03D-04  0.00D+00 EMaxC= 1.00D-01 BMatC= 6.52D-04 BMatP= 2.33D-02
 IDIUse=3 WtCom= 9.94D-01 WtEn= 6.03D-03
 Coeff-Com: -0.389D-03-0.296D-02 0.909D-01-0.266D-01 0.360D+00 0.579D+00
 Coeff-En:   0.000D+00 0.000D+00 0.000D+00 0.000D+00 0.000D+00 0.100D+01
 Coeff:     -0.387D-03-0.294D-02 0.904D-01-0.265D-01 0.358D+00 0.582D+00
 Gap=     0.122 Goal=   None    Shift=    0.000
 RMSDP=4.12D-05 MaxDP=1.22D-02 DE=-1.91D-02 OVMax= 4.96D-03

 Cycle   7  Pass 1  IDiag  1:
 RMSU=  3.12D-05    CP:  1.12D+00  4.41D-01  8.95D-01  2.58D-01  7.54D-01
                    CP:  8.39D-01
 E= -2297.86575164304     Delta-E=       -0.000479888016 Rises=F Damp=F
 DIIS: error= 1.34D-04 at cycle   7 NSaved=   7.
 NSaved= 7 IEnMin= 7 EnMin= -2297.86575164304     IErMin= 7 ErrMin= 1.34D-04
 ErrMax= 1.34D-04  0.00D+00 EMaxC= 1.00D-01 BMatC= 4.63D-05 BMatP= 6.52D-04
 IDIUse=3 WtCom= 9.99D-01 WtEn= 1.34D-03
 Coeff-Com: -0.713D-03 0.225D-03 0.322D-01-0.184D-01 0.163D+00 0.315D+00
 Coeff-Com:  0.509D+00
 Coeff-En:   0.000D+00 0.000D+00 0.000D+00 0.000D+00 0.000D+00 0.000D+00
 Coeff-En:   0.100D+01
 Coeff:     -0.712D-03 0.224D-03 0.321D-01-0.184D-01 0.162D+00 0.315D+00
 Coeff:      0.510D+00
 Gap=     0.122 Goal=   None    Shift=    0.000
 RMSDP=1.61D-05 MaxDP=3.68D-03 DE=-4.80D-04 OVMax= 1.73D-03

 Cycle   8  Pass 1  IDiag  1:
 RMSU=  1.20D-05    CP:  1.12D+00  4.40D-01  8.96D-01  2.57D-01  7.72D-01
                    CP:  8.25D-01  8.25D-01
 E= -2297.86578522060     Delta-E=       -0.000033577560 Rises=F Damp=F
 DIIS: error= 6.10D-05 at cycle   8 NSaved=   8.
 NSaved= 8 IEnMin= 8 EnMin= -2297.86578522060     IErMin= 8 ErrMin= 6.10D-05
 ErrMax= 6.10D-05  0.00D+00 EMaxC= 1.00D-01 BMatC= 7.18D-06 BMatP= 4.63D-05
 IDIUse=1 WtCom= 1.00D+00 WtEn= 0.00D+00
 Coeff-Com: -0.110D-03 0.205D-03 0.161D-02-0.530D-02 0.228D-01 0.628D-01
 Coeff-Com:  0.284D+00 0.634D+00
 Coeff:     -0.110D-03 0.205D-03 0.161D-02-0.530D-02 0.228D-01 0.628D-01
 Coeff:      0.284D+00 0.634D+00
 Gap=     0.122 Goal=   None    Shift=    0.000
 RMSDP=6.87D-06 MaxDP=2.21D-03 DE=-3.36D-05 OVMax= 9.00D-04

 Cycle   9  Pass 1  IDiag  1:
 RMSU=  4.75D-06    CP:  1.12D+00  4.40D-01  8.96D-01  2.58D-01  7.73D-01
                    CP:  8.30D-01  9.35D-01  8.68D-01
 E= -2297.86578987103     Delta-E=       -0.000004650430 Rises=F Damp=F
 DIIS: error= 2.80D-05 at cycle   9 NSaved=   9.
 NSaved= 9 IEnMin= 9 EnMin= -2297.86578987103     IErMin= 9 ErrMin= 2.80D-05
 ErrMax= 2.80D-05  0.00D+00 EMaxC= 1.00D-01 BMatC= 1.66D-06 BMatP= 7.18D-06
 IDIUse=1 WtCom= 1.00D+00 WtEn= 0.00D+00
 Coeff-Com:  0.135D-03-0.276D-03-0.374D-02-0.663D-05-0.119D-01-0.114D-01
 Coeff-Com:  0.880D-01 0.392D+00 0.548D+00
 Coeff:      0.135D-03-0.276D-03-0.374D-02-0.663D-05-0.119D-01-0.114D-01
 Coeff:      0.880D-01 0.392D+00 0.548D+00
 Gap=     0.122 Goal=   None    Shift=    0.000
 RMSDP=2.68D-06 MaxDP=6.37D-04 DE=-4.65D-06 OVMax= 3.41D-04

 Cycle  10  Pass 1  IDiag  1:
 RMSU=  1.85D-06    CP:  1.12D+00  4.40D-01  8.96D-01  2.58D-01  7.73D-01
                    CP:  8.39D-01  9.47D-01  9.78D-01  8.67D-01
 E= -2297.86579121145     Delta-E=       -0.000001340426 Rises=F Damp=F
 DIIS: error= 5.19D-06 at cycle  10 NSaved=  10.
 NSaved=10 IEnMin=10 EnMin= -2297.86579121145     IErMin=10 ErrMin= 5.19D-06
 ErrMax= 5.19D-06  0.00D+00 EMaxC= 1.00D-01 BMatC= 1.34D-07 BMatP= 1.66D-06
 IDIUse=1 WtCom= 1.00D+00 WtEn= 0.00D+00
 Coeff-Com:  0.795D-04-0.239D-03-0.208D-02 0.581D-03-0.790D-02-0.958D-02
 Coeff-Com:  0.147D-01 0.118D+00 0.263D+00 0.624D+00
 Coeff:      0.795D-04-0.239D-03-0.208D-02 0.581D-03-0.790D-02-0.958D-02
 Coeff:      0.147D-01 0.118D+00 0.263D+00 0.624D+00
 Gap=     0.122 Goal=   None    Shift=    0.000
 RMSDP=9.24D-07 MaxDP=2.09D-04 DE=-1.34D-06 OVMax= 1.16D-04

 Cycle  11  Pass 1  IDiag  1:
 RMSU=  5.42D-07    CP:  1.12D+00  4.40D-01  8.96D-01  2.58D-01  7.74D-01
                    CP:  8.40D-01  9.54D-01  9.83D-01  9.54D-01  1.06D+00
 E= -2297.86579131441     Delta-E=       -0.000000102955 Rises=F Damp=F
 DIIS: error= 1.84D-06 at cycle  11 NSaved=  11.
 NSaved=11 IEnMin=11 EnMin= -2297.86579131441     IErMin=11 ErrMin= 1.84D-06
 ErrMax= 1.84D-06  0.00D+00 EMaxC= 1.00D-01 BMatC= 2.51D-08 BMatP= 1.34D-07
 IDIUse=1 WtCom= 1.00D+00 WtEn= 0.00D+00
 Coeff-Com:  0.144D-04-0.604D-04-0.608D-03 0.358D-03-0.249D-02-0.289D-02
 Coeff-Com: -0.749D-02-0.844D-02 0.374D-01 0.325D+00 0.660D+00
 Coeff:      0.144D-04-0.604D-04-0.608D-03 0.358D-03-0.249D-02-0.289D-02
 Coeff:     -0.749D-02-0.844D-02 0.374D-01 0.325D+00 0.660D+00
 Gap=     0.122 Goal=   None    Shift=    0.000
 RMSDP=4.29D-07 MaxDP=6.18D-05 DE=-1.03D-07 OVMax= 4.15D-05

 Cycle  12  Pass 1  IDiag  1:
 RMSU=  2.81D-07    CP:  1.12D+00  4.40D-01  8.96D-01  2.58D-01  7.74D-01
                    CP:  8.41D-01  9.58D-01  9.92D-01  9.62D-01  1.11D+00
                    CP:  8.79D-01
 E= -2297.86579133710     Delta-E=       -0.000000022697 Rises=F Damp=F
 DIIS: error= 9.09D-07 at cycle  12 NSaved=  12.
 NSaved=12 IEnMin=12 EnMin= -2297.86579133710     IErMin=12 ErrMin= 9.09D-07
 ErrMax= 9.09D-07  0.00D+00 EMaxC= 1.00D-01 BMatC= 2.12D-09 BMatP= 2.51D-08
 IDIUse=1 WtCom= 1.00D+00 WtEn= 0.00D+00
 Coeff-Com: -0.738D-05 0.149D-04-0.113D-03 0.956D-04-0.410D-03-0.359D-03
 Coeff-Com: -0.498D-02-0.169D-01-0.122D-01 0.812D-01 0.299D+00 0.655D+00
 Coeff:     -0.738D-05 0.149D-04-0.113D-03 0.956D-04-0.410D-03-0.359D-03
 Coeff:     -0.498D-02-0.169D-01-0.122D-01 0.812D-01 0.299D+00 0.655D+00
 Gap=     0.122 Goal=   None    Shift=    0.000
 RMSDP=1.22D-07 MaxDP=2.52D-05 DE=-2.27D-08 OVMax= 1.56D-05

 Cycle  13  Pass 1  IDiag  1:
 RMSU=  9.35D-08    CP:  1.12D+00  4.40D-01  8.96D-01  2.58D-01  7.74D-01
                    CP:  8.41D-01  9.59D-01  9.95D-01  9.67D-01  1.11D+00
                    CP:  9.74D-01  1.05D+00
 E= -2297.86579133893     Delta-E=       -0.000000001828 Rises=F Damp=F
 DIIS: error= 4.59D-07 at cycle  13 NSaved=  13.
 NSaved=13 IEnMin=13 EnMin= -2297.86579133893     IErMin=13 ErrMin= 4.59D-07
 ErrMax= 4.59D-07  0.00D+00 EMaxC= 1.00D-01 BMatC= 5.05D-10 BMatP= 2.12D-09
 IDIUse=1 WtCom= 1.00D+00 WtEn= 0.00D+00
 Coeff-Com: -0.688D-05 0.199D-04 0.354D-04-0.715D-05 0.176D-03 0.290D-03
 Coeff-Com: -0.137D-02-0.754D-02-0.114D-01 0.190D-03 0.666D-01 0.373D+00
 Coeff-Com:  0.580D+00
 Coeff:     -0.688D-05 0.199D-04 0.354D-04-0.715D-05 0.176D-03 0.290D-03
 Coeff:     -0.137D-02-0.754D-02-0.114D-01 0.190D-03 0.666D-01 0.373D+00
 Coeff:      0.580D+00
 Gap=     0.122 Goal=   None    Shift=    0.000
 RMSDP=5.35D-08 MaxDP=7.86D-06 DE=-1.83D-09 OVMax= 4.84D-06

 Cycle  14  Pass 1  IDiag  1:
 RMSU=  3.21D-08    CP:  1.12D+00  4.40D-01  8.96D-01  2.58D-01  7.74D-01
                    CP:  8.41D-01  9.59D-01  9.95D-01  9.66D-01  1.12D+00
                    CP:  9.67D-01  1.16D+00  8.62D-01
 E= -2297.86579133928     Delta-E=       -0.000000000344 Rises=F Damp=F
 DIIS: error= 1.00D-07 at cycle  14 NSaved=  14.
 NSaved=14 IEnMin=14 EnMin= -2297.86579133928     IErMin=14 ErrMin= 1.00D-07
 ErrMax= 1.00D-07  0.00D+00 EMaxC= 1.00D-01 BMatC= 4.05D-11 BMatP= 5.05D-10
 IDIUse=1 WtCom= 1.00D+00 WtEn= 0.00D+00
 Coeff-Com: -0.226D-05 0.741D-05 0.295D-04-0.116D-04 0.106D-03 0.114D-03
 Coeff-Com: -0.170D-03-0.153D-02-0.322D-02-0.606D-02-0.269D-02 0.891D-01
 Coeff-Com:  0.251D+00 0.674D+00
 Coeff:     -0.226D-05 0.741D-05 0.295D-04-0.116D-04 0.106D-03 0.114D-03
 Coeff:     -0.170D-03-0.153D-02-0.322D-02-0.606D-02-0.269D-02 0.891D-01
 Coeff:      0.251D+00 0.674D+00
 Gap=     0.122 Goal=   None    Shift=    0.000
 RMSDP=2.77D-08 MaxDP=4.68D-06 DE=-3.44D-10 OVMax= 2.00D-06

 Cycle  15  Pass 1  IDiag  1:
 RMSU=  1.31D-08    CP:  1.12D+00  4.40D-01  8.96D-01  2.58D-01  7.74D-01
                    CP:  8.41D-01  9.59D-01  9.95D-01  9.66D-01  1.11D+00
                    CP:  9.78D-01  1.17D+00  9.98D-01  1.01D+00
 E= -2297.86579133933     Delta-E=       -0.000000000056 Rises=F Damp=F
 DIIS: error= 6.17D-08 at cycle  15 NSaved=  15.
 NSaved=15 IEnMin=15 EnMin= -2297.86579133933     IErMin=15 ErrMin= 6.17D-08
 ErrMax= 6.17D-08  0.00D+00 EMaxC= 1.00D-01 BMatC= 1.05D-11 BMatP= 4.05D-11
 IDIUse=1 WtCom= 1.00D+00 WtEn= 0.00D+00
 Coeff-Com: -0.283D-06 0.144D-05 0.137D-04-0.634D-05 0.367D-04 0.158D-04
 Coeff-Com:  0.113D-03 0.326D-03-0.428D-04-0.371D-02-0.147D-01-0.127D-01
 Coeff-Com:  0.523D-01 0.404D+00 0.575D+00
 Coeff:     -0.283D-06 0.144D-05 0.137D-04-0.634D-05 0.367D-04 0.158D-04
 Coeff:      0.113D-03 0.326D-03-0.428D-04-0.371D-02-0.147D-01-0.127D-01
 Coeff:      0.523D-01 0.404D+00 0.575D+00
 Gap=     0.122 Goal=   None    Shift=    0.000
 RMSDP=1.27D-08 MaxDP=4.61D-06 DE=-5.64D-11 OVMax= 7.58D-07

 Cycle  16  Pass 1  IDiag  1:
 RMSU=  6.23D-09    CP:  1.12D+00  4.40D-01  8.96D-01  2.58D-01  7.74D-01
                    CP:  8.41D-01  9.59D-01  9.95D-01  9.66D-01  1.12D+00
                    CP:  9.73D-01  1.19D+00  9.85D-01  1.15D+00  8.59D-01
 E= -2297.86579133935     Delta-E=       -0.000000000016 Rises=F Damp=F
 DIIS: error= 9.23D-09 at cycle  16 NSaved=  16.
 NSaved=16 IEnMin=16 EnMin= -2297.86579133935     IErMin=16 ErrMin= 9.23D-09
 ErrMax= 9.23D-09  0.00D+00 EMaxC= 1.00D-01 BMatC= 7.36D-13 BMatP= 1.05D-11
 IDIUse=1 WtCom= 1.00D+00 WtEn= 0.00D+00
 Coeff-Com:  0.562D-07-0.739D-07 0.385D-05-0.187D-05 0.804D-05-0.283D-07
 Coeff-Com:  0.699D-04 0.284D-03 0.257D-03-0.108D-02-0.679D-02-0.154D-01
 Coeff-Com: -0.215D-02 0.109D+00 0.263D+00 0.652D+00
 Coeff:      0.562D-07-0.739D-07 0.385D-05-0.187D-05 0.804D-05-0.283D-07
 Coeff:      0.699D-04 0.284D-03 0.257D-03-0.108D-02-0.679D-02-0.154D-01
 Coeff:     -0.215D-02 0.109D+00 0.263D+00 0.652D+00
 Gap=     0.122 Goal=   None    Shift=    0.000
 RMSDP=4.37D-09 MaxDP=5.65D-07 DE=-1.64D-11 OVMax= 3.49D-07

 Error on total polarization charges =  0.07710
 SCF Done:  E(RM06) =  -2297.86579134     A.U. after   16 cycles
            NFock= 16  Conv=0.44D-08     -V/T= 2.0046
 KE= 2.287344512110D+03 PE=-1.913195220814D+04 EE= 7.692365193568D+03
 SMD-CDS (non-electrostatic) energy       (kcal/mol) =     -11.92
 (included in total energy above)
 Leave Link  502 at Fri Feb 18 02:59:16 2022, MaxMem=  5242880000 cpu:     97693.6
 (Enter /opt/nce/packages/global/g09/l801.exe)
 DoSCS=F DFT=T ScalE2(SS,OS)=  1.000000  1.000000
 Range of M.O.s used for correlation:     1  1873
 NBasis=  1873 NAE=   185 NBE=   185 NFC=     0 NFV=     0
 NROrb=   1873 NOA=   185 NOB=   185 NVA=  1688 NVB=  1688

 **** Warning!!: The largest alpha MO coefficient is  0.51186761D+02

 Leave Link  801 at Fri Feb 18 02:59:16 2022, MaxMem=  5242880000 cpu:         1.1
 (Enter /opt/nce/packages/global/g09/l1101.exe)
 Using compressed storage, NAtomX=    83.
 Will process     84 centers per pass.
 PrsmSu:  requested number of processors reduced to:   8 ShMem   1 Linda.
   1 Symmetry operations used in ECPInt.
 ECPInt:  NShTT=  257403 NPrTT=  805840 LenC2=  175764 LenP2D=  355055.
 LDataN:  DoStor=T MaxTD1= 7 Len=  274
 Number of processors reduced to   2 by ecpmxn.
 Leave Link 1101 at Fri Feb 18 02:59:47 2022, MaxMem=  5242880000 cpu:       311.3
 (Enter /opt/nce/packages/global/g09/l1102.exe)
 Symmetrizing basis deriv contribution to polar:
 IMax=3 JMax=2 DiffMx= 0.00D+00
 Leave Link 1102 at Fri Feb 18 02:59:48 2022, MaxMem=  5242880000 cpu:         7.5
 (Enter /opt/nce/packages/global/g09/l1110.exe)
 Forming Gx(P) for the SCF density, NAtomX=    83.
 Integral derivatives from FoFJK, PRISM(SPDF).
 Do as many integral derivatives as possible in FoFJK.
 G2DrvN: MDV=    5242879232.
 G2DrvN: will do    42 centers at a time, making    2 passes.
 G2DrvN:  IPasSy=1 do centers    0 through   41.
 Calling FoFCou, ICntrl=  3107 FMM=T I1Cent=   0 AccDes= 1.00D-11.
 FoFJK:  IHMeth= 1 ICntrl=    3107 DoSepK=F KAlg= 0 I1Cent=   0 FoldK=F
 IRaf=         0 NMat=   1 IRICut=       1 DoRegI=T DoRafI=F ISym2E= 0.
 FoFCou: FMM=T IPFlag=           0 FMFlag=      100000 FMFlg1=        2001
         NFxFlg=           0 DoJE=F BraDBF=F KetDBF=F FulRan=T
         wScrn=  0.000000 ICntrl=    3107 IOpCl=  0 I1Cent=           0 NGrid=           0
         NMat0=    1 NMatS0=      1 NMatT0=    0 NMatD0=    1 NMtDS0=    0 NMtDT0=    0
 Symmetry not used in FoFCou.
 FMM levels:  10  Number of levels for PrismC:   9
 G2DrvN:  IPasSy=1 do centers   42 through   83.
 Calling FoFCou, ICntrl=  3107 FMM=T I1Cent=   0 AccDes= 1.00D-11.
 NEqPCM:  Using equilibrium solvation (IEInf=0, Eps=  35.6880, EpsInf=   1.8069)
 G2PCM: DoFxE=T DoFxN=T DoGrad=T DoDP/DQ/DG/TGxP=FFFF NFrqRd=   0 IEInf=0 SqF1=F DoCFld=F IF1Alg=4.
 GePol: Maximum number of non-zero 1st derivatives   =     247
 End of G2Drv F.D. properties file   721 does not exist.
 End of G2Drv F.D. properties file   722 does not exist.
 End of G2Drv F.D. properties file   788 does not exist.
 Leave Link 1110 at Fri Feb 18 08:08:45 2022, MaxMem=  5242880000 cpu:    221570.4
 (Enter /opt/nce/packages/global/g09/l1002.exe)
 Minotr:  Closed shell wavefunction.
          IDoAtm=11111111111111111111111111111111111111111111111111
          IDoAtm=111111111111111111111111111111111
 NEqPCM:  Using equilibrium solvation (IEInf=0, Eps=  35.6880, EpsInf=   1.8069)
          Direct CPHF calculation.
          Differentiating once with respect to electric field.
                with respect to dipole field.
          Differentiating once with respect to nuclear coordinates.
          Requested convergence is 1.0D-08 RMS, and 1.0D-07 maximum.
          Secondary convergence is 1.0D-12 RMS, and 1.0D-12 maximum.
          NewPWx=T KeepS1=F KeepF1=F KeepIn=T MapXYZ=F SortEE=F KeepMc=T.
          MDV=    5242877293 using IRadAn=       1.
 Generate precomputed XC quadrature information.
          Solving linear equations simultaneously, MaxMat=      72.
 FoF2E skips out because all densities are zero.
 CalDSu exits because no D1Ps are significant.
 FoFJK:  IHMeth= 1 ICntrl=       0 DoSepK=F KAlg= 0 I1Cent=   0 FoldK=F
 IRaf= 640000000 NMat=  72 IRICut=       1 DoRegI=T DoRafI=F ISym2E= 0.
          There are   252 degrees of freedom in the 1st order CPHF.  IDoFFX=6 NUNeed=     3.
    252 vectors produced by pass  0 Test12= 3.12D-13 1.00D-09 XBig12= 1.29D+03 2.36D+01.
 AX will form    72 AO Fock derivatives at one time.
    252 vectors produced by pass  1 Test12= 3.12D-13 1.00D-09 XBig12= 1.76D+02 1.69D+00.
    249 vectors produced by pass  2 Test12= 3.12D-13 1.00D-09 XBig12= 3.24D+00 1.41D-01.
    249 vectors produced by pass  3 Test12= 3.12D-13 1.00D-09 XBig12= 3.38D-02 1.11D-02.
    249 vectors produced by pass  4 Test12= 3.12D-13 1.00D-09 XBig12= 3.71D-04 1.07D-03.
    249 vectors produced by pass  5 Test12= 3.12D-13 1.00D-09 XBig12= 2.83D-06 6.85D-05.
    211 vectors produced by pass  6 Test12= 3.12D-13 1.00D-09 XBig12= 1.56D-08 5.68D-06.
     72 vectors produced by pass  7 Test12= 3.12D-13 1.00D-09 XBig12= 6.57D-11 4.67D-07.
      3 vectors produced by pass  8 Test12= 3.12D-13 1.00D-09 XBig12= 2.75D-13 2.48D-08.
      3 vectors produced by pass  9 Test12= 3.12D-13 1.00D-09 XBig12= 2.93D-15 1.73D-09.
      2 vectors produced by pass 10 Test12= 3.12D-13 1.00D-09 XBig12= 5.85D-15 3.67D-09.
 InvSVY:  IOpt=1 It=  1 EMax= 2.13D-14
 Solved reduced A of dimension  1791 with   252 vectors.
 FullF1:  Do perturbations    1 to     3.
 Isotropic polarizability for W=    0.000000     1111.10 Bohr**3.
 End of Minotr F.D. properties file   721 does not exist.
 End of Minotr F.D. properties file   722 does not exist.
 End of Minotr F.D. properties file   788 does not exist.
 Leave Link 1002 at Sun Feb 20 07:17:37 2022, MaxMem=  5242880000 cpu:   2034754.9
 (Enter /opt/nce/packages/global/g09/l601.exe)
 Copying SCF densities to generalized density rwf, IOpCl= 0 IROHF=0.

 **********************************************************************

            Population analysis using the SCF density.

 **********************************************************************

 Alpha  occ. eigenvalues --  -19.26393 -19.14042 -19.13852 -19.11896 -19.11686
 Alpha  occ. eigenvalues --  -10.30431 -10.30379 -10.29511 -10.28661 -10.28350
 Alpha  occ. eigenvalues --  -10.27250 -10.24527 -10.24157 -10.24156 -10.24122
 Alpha  occ. eigenvalues --  -10.24119 -10.24105 -10.24101 -10.24096 -10.24053
 Alpha  occ. eigenvalues --  -10.24042 -10.23443 -10.23374 -10.23347 -10.23314
 Alpha  occ. eigenvalues --  -10.23307 -10.23286 -10.23281 -10.23265 -10.23251
 Alpha  occ. eigenvalues --  -10.23241 -10.23235 -10.23230 -10.23215 -10.23211
 Alpha  occ. eigenvalues --  -10.23196 -10.23186 -10.23145 -10.23142 -10.23132
 Alpha  occ. eigenvalues --  -10.23054 -10.23049 -10.23037 -10.22978 -10.22974
 Alpha  occ. eigenvalues --  -10.22959 -10.22930 -10.22764 -10.22752 -10.22745
 Alpha  occ. eigenvalues --  -10.22683 -10.22562 -10.21886 -10.21883 -10.21383
 Alpha  occ. eigenvalues --   -1.12893  -1.02278  -1.00998  -1.00615  -0.93825
 Alpha  occ. eigenvalues --   -0.88722  -0.88630  -0.88578  -0.88164  -0.86533
 Alpha  occ. eigenvalues --   -0.85592  -0.83830  -0.83671  -0.82894  -0.80108
 Alpha  occ. eigenvalues --   -0.79164  -0.78263  -0.77972  -0.77666  -0.76732
 Alpha  occ. eigenvalues --   -0.75767  -0.75358  -0.74763  -0.73937  -0.73201
 Alpha  occ. eigenvalues --   -0.72946  -0.72434  -0.71278  -0.70878  -0.65944
 Alpha  occ. eigenvalues --   -0.65524  -0.64027  -0.63584  -0.62711  -0.62512
 Alpha  occ. eigenvalues --   -0.61989  -0.61737  -0.61363  -0.60495  -0.60152
 Alpha  occ. eigenvalues --   -0.60089  -0.59982  -0.58108  -0.57905  -0.54692
 Alpha  occ. eigenvalues --   -0.53921  -0.53826  -0.52487  -0.51927  -0.51817
 Alpha  occ. eigenvalues --   -0.51612  -0.51237  -0.50793  -0.50599  -0.50195
 Alpha  occ. eigenvalues --   -0.48706  -0.48670  -0.48209  -0.47957  -0.47288
 Alpha  occ. eigenvalues --   -0.46408  -0.45883  -0.45388  -0.44782  -0.44696
 Alpha  occ. eigenvalues --   -0.44610  -0.44569  -0.44540  -0.44134  -0.43436
 Alpha  occ. eigenvalues --   -0.42987  -0.42879  -0.42436  -0.42224  -0.42147
 Alpha  occ. eigenvalues --   -0.42065  -0.41781  -0.41727  -0.41590  -0.41250
 Alpha  occ. eigenvalues --   -0.40916  -0.40830  -0.40693  -0.40073  -0.39953
 Alpha  occ. eigenvalues --   -0.39645  -0.39605  -0.39357  -0.39118  -0.38634
 Alpha  occ. eigenvalues --   -0.38009  -0.37507  -0.37238  -0.37014  -0.36633
 Alpha  occ. eigenvalues --   -0.36484  -0.36113  -0.35385  -0.34870  -0.34544
 Alpha  occ. eigenvalues --   -0.34375  -0.34303  -0.34082  -0.33940  -0.33357
 Alpha  occ. eigenvalues --   -0.33303  -0.33210  -0.33152  -0.32786  -0.32134
 Alpha  occ. eigenvalues --   -0.29869  -0.29628  -0.29611  -0.27909  -0.26632
 Alpha  occ. eigenvalues --   -0.26115  -0.25781  -0.25635  -0.25117  -0.24540
 Alpha  occ. eigenvalues --   -0.24342  -0.23930  -0.23598  -0.23362  -0.23099
 Alpha  occ. eigenvalues --   -0.22435  -0.22356  -0.21706  -0.20691  -0.18056
 Alpha virt. eigenvalues --   -0.05809  -0.03811  -0.03544  -0.03387  -0.01834
 Alpha virt. eigenvalues --   -0.01327  -0.01102  -0.00899  -0.00228   0.01722
 Alpha virt. eigenvalues --    0.02114   0.02588   0.02804   0.03243   0.03354
 Alpha virt. eigenvalues --    0.04821   0.05486   0.05845   0.05916   0.06196
 Alpha virt. eigenvalues --    0.06617   0.06715   0.07086   0.07551   0.07769
 Alpha virt. eigenvalues --    0.08042   0.08306   0.08434   0.08701   0.08992
 Alpha virt. eigenvalues --    0.09316   0.09746   0.09930   0.10290   0.10361
 Alpha virt. eigenvalues --    0.10466   0.10529   0.10698   0.10815   0.10888
 Alpha virt. eigenvalues --    0.11103   0.11478   0.11685   0.12062   0.12171
 Alpha virt. eigenvalues --    0.12368   0.12739   0.13141   0.13298   0.14448
 Alpha virt. eigenvalues --    0.14810   0.14981   0.15525   0.15808   0.15944
 Alpha virt. eigenvalues --    0.16100   0.16421   0.16643   0.17016   0.17101
 Alpha virt. eigenvalues --    0.17301   0.17748   0.18268   0.18452   0.18719
 Alpha virt. eigenvalues --    0.18807   0.18943   0.19404   0.19583   0.19732
 Alpha virt. eigenvalues --    0.19953   0.20112   0.20183   0.20494   0.20605
 Alpha virt. eigenvalues --    0.21073   0.21301   0.21377   0.21523   0.21813
 Alpha virt. eigenvalues --    0.22073   0.22278   0.22465   0.22476   0.22843
 Alpha virt. eigenvalues --    0.23319   0.23544   0.23648   0.23943   0.24031
 Alpha virt. eigenvalues --    0.24160   0.24396   0.24538   0.24885   0.24980
 Alpha virt. eigenvalues --    0.25222   0.25309   0.25486   0.25590   0.25767
 Alpha virt. eigenvalues --    0.25870   0.26311   0.26409   0.26576   0.26659
 Alpha virt. eigenvalues --    0.26790   0.26989   0.27130   0.27454   0.27587
 Alpha virt. eigenvalues --    0.27767   0.27846   0.28069   0.28095   0.28317
 Alpha virt. eigenvalues --    0.28537   0.28651   0.28791   0.29159   0.29449
 Alpha virt. eigenvalues --    0.29590   0.29807   0.29883   0.30222   0.30398
 Alpha virt. eigenvalues --    0.30499   0.30628   0.30692   0.30972   0.31284
 Alpha virt. eigenvalues --    0.31325   0.31550   0.31689   0.31884   0.31990
 Alpha virt. eigenvalues --    0.32207   0.32297   0.32613   0.32811   0.32941
 Alpha virt. eigenvalues --    0.33241   0.33346   0.33761   0.33938   0.34048
 Alpha virt. eigenvalues --    0.34226   0.34397   0.34582   0.34716   0.34813
 Alpha virt. eigenvalues --    0.34914   0.34981   0.35225   0.35345   0.35400
 Alpha virt. eigenvalues --    0.35506   0.35802   0.36021   0.36062   0.36160
 Alpha virt. eigenvalues --    0.36326   0.36573   0.36712   0.37046   0.37158
 Alpha virt. eigenvalues --    0.37263   0.37496   0.37594   0.37707   0.37988
 Alpha virt. eigenvalues --    0.38140   0.38292   0.38349   0.38537   0.38848
 Alpha virt. eigenvalues --    0.38932   0.39046   0.39217   0.39285   0.39647
 Alpha virt. eigenvalues --    0.39680   0.39873   0.40131   0.40331   0.40481
 Alpha virt. eigenvalues --    0.40641   0.40741   0.40812   0.40888   0.41157
 Alpha virt. eigenvalues --    0.41551   0.41707   0.41814   0.42250   0.42496
 Alpha virt. eigenvalues --    0.42628   0.42823   0.43157   0.43349   0.43528
 Alpha virt. eigenvalues --    0.43824   0.44023   0.44213   0.44615   0.44700
 Alpha virt. eigenvalues --    0.44867   0.45297   0.45393   0.45603   0.45929
 Alpha virt. eigenvalues --    0.46104   0.46231   0.46478   0.46724   0.46810
 Alpha virt. eigenvalues --    0.46945   0.47237   0.47380   0.47469   0.47983
 Alpha virt. eigenvalues --    0.48189   0.48449   0.48694   0.48817   0.49002
 Alpha virt. eigenvalues --    0.49144   0.49369   0.49547   0.49828   0.50293
 Alpha virt. eigenvalues --    0.50367   0.50638   0.50768   0.51131   0.51188
 Alpha virt. eigenvalues --    0.51283   0.51399   0.51821   0.52120   0.52257
 Alpha virt. eigenvalues --    0.52533   0.52650   0.52897   0.53086   0.53367
 Alpha virt. eigenvalues --    0.53389   0.53435   0.53875   0.53956   0.54623
 Alpha virt. eigenvalues --    0.54752   0.54918   0.55308   0.55534   0.55691
 Alpha virt. eigenvalues --    0.55968   0.56044   0.56355   0.56698   0.56897
 Alpha virt. eigenvalues --    0.57502   0.57620   0.57796   0.58163   0.58664
 Alpha virt. eigenvalues --    0.58743   0.58872   0.59181   0.59486   0.59898
 Alpha virt. eigenvalues --    0.60262   0.60803   0.60932   0.61513   0.61648
 Alpha virt. eigenvalues --    0.61871   0.62130   0.62534   0.62706   0.62866
 Alpha virt. eigenvalues --    0.63197   0.63571   0.63620   0.63937   0.64102
 Alpha virt. eigenvalues --    0.64169   0.64304   0.64483   0.65223   0.65401
 Alpha virt. eigenvalues --    0.65522   0.65668   0.65932   0.66210   0.66336
 Alpha virt. eigenvalues --    0.67052   0.67112   0.67312   0.67553   0.67695
 Alpha virt. eigenvalues --    0.67771   0.68015   0.68383   0.68429   0.68795
 Alpha virt. eigenvalues --    0.69038   0.69115   0.69457   0.69557   0.69868
 Alpha virt. eigenvalues --    0.69986   0.70277   0.70380   0.70534   0.70797
 Alpha virt. eigenvalues --    0.70932   0.71128   0.71328   0.71751   0.72077
 Alpha virt. eigenvalues --    0.72199   0.72335   0.72523   0.72678   0.72860
 Alpha virt. eigenvalues --    0.73096   0.73283   0.73470   0.73892   0.74019
 Alpha virt. eigenvalues --    0.74308   0.74522   0.74613   0.74720   0.74922
 Alpha virt. eigenvalues --    0.75116   0.75262   0.75444   0.75698   0.75838
 Alpha virt. eigenvalues --    0.76316   0.76657   0.76742   0.77093   0.77337
 Alpha virt. eigenvalues --    0.77659   0.77803   0.78042   0.78121   0.78426
 Alpha virt. eigenvalues --    0.78481   0.78670   0.78975   0.79498   0.79816
 Alpha virt. eigenvalues --    0.80081   0.80333   0.80461   0.80793   0.81016
 Alpha virt. eigenvalues --    0.81420   0.81500   0.81805   0.82094   0.82133
 Alpha virt. eigenvalues --    0.82274   0.82720   0.82988   0.83437   0.83455
 Alpha virt. eigenvalues --    0.83812   0.84015   0.84209   0.84258   0.84360
 Alpha virt. eigenvalues --    0.84842   0.85042   0.85303   0.85424   0.85463
 Alpha virt. eigenvalues --    0.85696   0.85809   0.85941   0.86253   0.86839
 Alpha virt. eigenvalues --    0.87004   0.87098   0.87633   0.87727   0.87971
 Alpha virt. eigenvalues --    0.88356   0.88407   0.89124   0.89335   0.89369
 Alpha virt. eigenvalues --    0.89731   0.90393   0.90695   0.90892   0.91371
 Alpha virt. eigenvalues --    0.91484   0.91762   0.92048   0.92464   0.92636
 Alpha virt. eigenvalues --    0.92879   0.93263   0.93488   0.93740   0.94104
 Alpha virt. eigenvalues --    0.94405   0.94743   0.94912   0.95751   0.95950
 Alpha virt. eigenvalues --    0.96023   0.96605   0.96796   0.97104   0.97665
 Alpha virt. eigenvalues --    0.98736   0.98948   0.99261   0.99626   0.99744
 Alpha virt. eigenvalues --    1.00013   1.00486   1.00541   1.00807   1.00856
 Alpha virt. eigenvalues --    1.01517   1.01646   1.01775   1.02046   1.02540
 Alpha virt. eigenvalues --    1.02705   1.03100   1.03493   1.04303   1.04606
 Alpha virt. eigenvalues --    1.04706   1.05258   1.05894   1.05935   1.06957
 Alpha virt. eigenvalues --    1.07081   1.07314   1.07808   1.07934   1.08309
 Alpha virt. eigenvalues --    1.08549   1.09089   1.09590   1.10034   1.10498
 Alpha virt. eigenvalues --    1.10775   1.10925   1.11378   1.11529   1.11703
 Alpha virt. eigenvalues --    1.12241   1.12531   1.12804   1.13103   1.13352
 Alpha virt. eigenvalues --    1.13738   1.14042   1.14443   1.14777   1.14865
 Alpha virt. eigenvalues --    1.15589   1.15963   1.16026   1.16440   1.16982
 Alpha virt. eigenvalues --    1.17103   1.17471   1.17695   1.18263   1.18653
 Alpha virt. eigenvalues --    1.19603   1.19778   1.19928   1.20099   1.20550
 Alpha virt. eigenvalues --    1.20978   1.21258   1.21381   1.21598   1.21866
 Alpha virt. eigenvalues --    1.22047   1.22300   1.22473   1.22656   1.23170
 Alpha virt. eigenvalues --    1.23454   1.23669   1.24080   1.24737   1.24935
 Alpha virt. eigenvalues --    1.25203   1.25239   1.25773   1.25831   1.26228
 Alpha virt. eigenvalues --    1.26510   1.26612   1.27154   1.27371   1.27474
 Alpha virt. eigenvalues --    1.27707   1.27934   1.28399   1.28878   1.28932
 Alpha virt. eigenvalues --    1.29350   1.29687   1.29881   1.29993   1.30730
 Alpha virt. eigenvalues --    1.30772   1.31254   1.31445   1.32078   1.32440
 Alpha virt. eigenvalues --    1.32673   1.33142   1.33373   1.33680   1.34157
 Alpha virt. eigenvalues --    1.34668   1.35006   1.35236   1.35513   1.35830
 Alpha virt. eigenvalues --    1.36025   1.36230   1.37014   1.37206   1.37674
 Alpha virt. eigenvalues --    1.37981   1.38064   1.38400   1.38813   1.39544
 Alpha virt. eigenvalues --    1.39700   1.39872   1.40275   1.40360   1.40852
 Alpha virt. eigenvalues --    1.41117   1.41461   1.42060   1.42470   1.42707
 Alpha virt. eigenvalues --    1.42961   1.43307   1.43387   1.43602   1.44056
 Alpha virt. eigenvalues --    1.44248   1.44625   1.44915   1.45220   1.45316
 Alpha virt. eigenvalues --    1.45975   1.46188   1.46706   1.46883   1.47019
 Alpha virt. eigenvalues --    1.47575   1.47724   1.48208   1.48457   1.48711
 Alpha virt. eigenvalues --    1.48987   1.49483   1.49931   1.50054   1.50444
 Alpha virt. eigenvalues --    1.50547   1.50612   1.51015   1.51163   1.51435
 Alpha virt. eigenvalues --    1.51801   1.51923   1.52429   1.52525   1.52918
 Alpha virt. eigenvalues --    1.53079   1.53487   1.53781   1.54074   1.54748
 Alpha virt. eigenvalues --    1.54988   1.55366   1.55983   1.56112   1.56438
 Alpha virt. eigenvalues --    1.56799   1.56955   1.57287   1.57598   1.58123
 Alpha virt. eigenvalues --    1.58681   1.59157   1.59239   1.59397   1.59819
 Alpha virt. eigenvalues --    1.59919   1.60323   1.60480   1.60937   1.61412
 Alpha virt. eigenvalues --    1.61850   1.62242   1.62479   1.62906   1.63084
 Alpha virt. eigenvalues --    1.63437   1.63894   1.63939   1.64284   1.64711
 Alpha virt. eigenvalues --    1.64808   1.65420   1.65463   1.65786   1.65989
 Alpha virt. eigenvalues --    1.66193   1.66403   1.66872   1.66961   1.67182
 Alpha virt. eigenvalues --    1.67597   1.67975   1.68223   1.68541   1.68710
 Alpha virt. eigenvalues --    1.68867   1.69089   1.69280   1.69488   1.69644
 Alpha virt. eigenvalues --    1.69933   1.70306   1.70482   1.70654   1.71061
 Alpha virt. eigenvalues --    1.71278   1.71386   1.71569   1.71934   1.72035
 Alpha virt. eigenvalues --    1.72426   1.72601   1.72832   1.73466   1.73500
 Alpha virt. eigenvalues --    1.74093   1.74431   1.74913   1.75185   1.75460
 Alpha virt. eigenvalues --    1.75801   1.76424   1.76768   1.77479   1.78429
 Alpha virt. eigenvalues --    1.78869   1.79056   1.79339   1.79834   1.80342
 Alpha virt. eigenvalues --    1.80716   1.81095   1.81258   1.81907   1.82304
 Alpha virt. eigenvalues --    1.82863   1.83292   1.83968   1.84393   1.84748
 Alpha virt. eigenvalues --    1.84971   1.85227   1.85963   1.86240   1.86330
 Alpha virt. eigenvalues --    1.86547   1.86934   1.87278   1.87525   1.87800
 Alpha virt. eigenvalues --    1.88151   1.88788   1.89029   1.89500   1.89754
 Alpha virt. eigenvalues --    1.90391   1.90430   1.91029   1.91263   1.91858
 Alpha virt. eigenvalues --    1.92160   1.92795   1.93080   1.93655   1.93925
 Alpha virt. eigenvalues --    1.94154   1.94568   1.95024   1.95245   1.95676
 Alpha virt. eigenvalues --    1.95992   1.96248   1.96669   1.97238   1.97651
 Alpha virt. eigenvalues --    1.97800   1.98209   1.98508   1.99016   1.99444
 Alpha virt. eigenvalues --    1.99931   2.00176   2.00417   2.00545   2.00723
 Alpha virt. eigenvalues --    2.00906   2.01424   2.01847   2.01946   2.02853
 Alpha virt. eigenvalues --    2.03275   2.03731   2.03877   2.04626   2.04787
 Alpha virt. eigenvalues --    2.05512   2.05973   2.06404   2.06985   2.07281
 Alpha virt. eigenvalues --    2.08016   2.08420   2.08879   2.09250   2.09713
 Alpha virt. eigenvalues --    2.10117   2.10838   2.11163   2.11344   2.11746
 Alpha virt. eigenvalues --    2.12310   2.12501   2.12894   2.13751   2.14248
 Alpha virt. eigenvalues --    2.14518   2.14655   2.14915   2.14933   2.15749
 Alpha virt. eigenvalues --    2.15907   2.16090   2.16217   2.16530   2.17017
 Alpha virt. eigenvalues --    2.17512   2.17801   2.17923   2.18181   2.18360
 Alpha virt. eigenvalues --    2.18518   2.19253   2.19378   2.19668   2.19877
 Alpha virt. eigenvalues --    2.20293   2.20920   2.20932   2.21303   2.21664
 Alpha virt. eigenvalues --    2.21929   2.22134   2.22201   2.23047   2.23619
 Alpha virt. eigenvalues --    2.23688   2.23910   2.24361   2.24818   2.25328
 Alpha virt. eigenvalues --    2.25554   2.25999   2.26102   2.26556   2.26994
 Alpha virt. eigenvalues --    2.27160   2.27641   2.27860   2.28381   2.28763
 Alpha virt. eigenvalues --    2.29430   2.30142   2.30296   2.31220   2.31361
 Alpha virt. eigenvalues --    2.32164   2.32210   2.32540   2.32969   2.33601
 Alpha virt. eigenvalues --    2.34721   2.35152   2.35440   2.35744   2.36368
 Alpha virt. eigenvalues --    2.36570   2.37063   2.37222   2.38171   2.38570
 Alpha virt. eigenvalues --    2.38828   2.39111   2.39662   2.40070   2.40811
 Alpha virt. eigenvalues --    2.41634   2.41922   2.42029   2.42798   2.43453
 Alpha virt. eigenvalues --    2.43767   2.44297   2.44709   2.45286   2.45519
 Alpha virt. eigenvalues --    2.45824   2.46142   2.46512   2.47499   2.47859
 Alpha virt. eigenvalues --    2.48682   2.49093   2.49442   2.49701   2.49994
 Alpha virt. eigenvalues --    2.50217   2.50879   2.51535   2.51775   2.52249
 Alpha virt. eigenvalues --    2.52697   2.53357   2.53748   2.53833   2.54456
 Alpha virt. eigenvalues --    2.54757   2.55475   2.55603   2.55826   2.56598
 Alpha virt. eigenvalues --    2.56960   2.57220   2.57604   2.58004   2.58232
 Alpha virt. eigenvalues --    2.58467   2.58740   2.59162   2.59539   2.59848
 Alpha virt. eigenvalues --    2.60061   2.60506   2.61013   2.61252   2.61987
 Alpha virt. eigenvalues --    2.62565   2.62754   2.62876   2.63204   2.63844
 Alpha virt. eigenvalues --    2.63957   2.64273   2.64601   2.64780   2.65061
 Alpha virt. eigenvalues --    2.65131   2.65603   2.65816   2.66131   2.66437
 Alpha virt. eigenvalues --    2.66950   2.67203   2.67630   2.67775   2.68003
 Alpha virt. eigenvalues --    2.68418   2.68665   2.69040   2.69410   2.69845
 Alpha virt. eigenvalues --    2.70467   2.70650   2.70710   2.71031   2.71257
 Alpha virt. eigenvalues --    2.71637   2.71791   2.72357   2.72708   2.72907
 Alpha virt. eigenvalues --    2.73074   2.73368   2.73605   2.73846   2.74171
 Alpha virt. eigenvalues --    2.74328   2.74479   2.74687   2.75147   2.75374
 Alpha virt. eigenvalues --    2.75505   2.75637   2.75855   2.76145   2.76191
 Alpha virt. eigenvalues --    2.76604   2.76662   2.76866   2.77098   2.77202
 Alpha virt. eigenvalues --    2.77407   2.77778   2.78140   2.78273   2.78702
 Alpha virt. eigenvalues --    2.78762   2.78968   2.79337   2.79423   2.79669
 Alpha virt. eigenvalues --    2.79830   2.80157   2.80524   2.81083   2.81256
 Alpha virt. eigenvalues --    2.81666   2.81859   2.82138   2.82334   2.82632
 Alpha virt. eigenvalues --    2.82675   2.82912   2.83194   2.83404   2.83796
 Alpha virt. eigenvalues --    2.84046   2.84179   2.84593   2.84616   2.84912
 Alpha virt. eigenvalues --    2.85087   2.85282   2.85506   2.85908   2.86054
 Alpha virt. eigenvalues --    2.86229   2.86491   2.86768   2.87273   2.87512
 Alpha virt. eigenvalues --    2.87843   2.87959   2.88219   2.88541   2.89022
 Alpha virt. eigenvalues --    2.89366   2.89447   2.89711   2.90142   2.90590
 Alpha virt. eigenvalues --    2.90767   2.91113   2.91217   2.91496   2.91619
 Alpha virt. eigenvalues --    2.91934   2.92162   2.92296   2.92490   2.92693
 Alpha virt. eigenvalues --    2.92856   2.93245   2.93537   2.93752   2.94067
 Alpha virt. eigenvalues --    2.94223   2.94422   2.94534   2.94728   2.94960
 Alpha virt. eigenvalues --    2.95255   2.95648   2.95933   2.96122   2.96358
 Alpha virt. eigenvalues --    2.96458   2.97078   2.97592   2.97850   2.97949
 Alpha virt. eigenvalues --    2.98301   2.98600   2.98803   2.98938   2.99156
 Alpha virt. eigenvalues --    2.99335   2.99567   3.00076   3.00247   3.00594
 Alpha virt. eigenvalues --    3.01048   3.01370   3.01613   3.01805   3.02189
 Alpha virt. eigenvalues --    3.02375   3.02757   3.02896   3.03241   3.03483
 Alpha virt. eigenvalues --    3.04102   3.04562   3.04935   3.04994   3.05101
 Alpha virt. eigenvalues --    3.05745   3.05920   3.06221   3.06482   3.06884
 Alpha virt. eigenvalues --    3.06954   3.07460   3.07723   3.07911   3.07989
 Alpha virt. eigenvalues --    3.08655   3.08997   3.09171   3.09310   3.09719
 Alpha virt. eigenvalues --    3.09852   3.10201   3.10543   3.10761   3.10999
 Alpha virt. eigenvalues --    3.11222   3.11435   3.11672   3.12080   3.12312
 Alpha virt. eigenvalues --    3.12477   3.12907   3.13325   3.13372   3.13489
 Alpha virt. eigenvalues --    3.13751   3.14260   3.14378   3.14529   3.14984
 Alpha virt. eigenvalues --    3.15100   3.15222   3.15565   3.15827   3.15998
 Alpha virt. eigenvalues --    3.16153   3.16543   3.16636   3.16971   3.17185
 Alpha virt. eigenvalues --    3.17385   3.17546   3.17780   3.18118   3.18308
 Alpha virt. eigenvalues --    3.18388   3.18465   3.18966   3.19077   3.19304
 Alpha virt. eigenvalues --    3.19671   3.19961   3.20198   3.20419   3.20638
 Alpha virt. eigenvalues --    3.20736   3.21020   3.21033   3.21502   3.21622
 Alpha virt. eigenvalues --    3.22178   3.22263   3.22823   3.23036   3.23575
 Alpha virt. eigenvalues --    3.23977   3.24265   3.24604   3.24861   3.25001
 Alpha virt. eigenvalues --    3.25249   3.25641   3.26073   3.26252   3.26563
 Alpha virt. eigenvalues --    3.26712   3.26963   3.27109   3.27396   3.27904
 Alpha virt. eigenvalues --    3.27999   3.28323   3.28345   3.28882   3.29098
 Alpha virt. eigenvalues --    3.29585   3.29622   3.30020   3.30180   3.30553
 Alpha virt. eigenvalues --    3.30912   3.30934   3.31256   3.31617   3.31780
 Alpha virt. eigenvalues --    3.31835   3.32207   3.32470   3.32676   3.33059
 Alpha virt. eigenvalues --    3.33282   3.33662   3.33932   3.34157   3.34322
 Alpha virt. eigenvalues --    3.34407   3.34700   3.35387   3.35439   3.35471
 Alpha virt. eigenvalues --    3.35788   3.35837   3.36184   3.36291   3.36658
 Alpha virt. eigenvalues --    3.37002   3.37115   3.37463   3.37706   3.38251
 Alpha virt. eigenvalues --    3.38396   3.38557   3.39137   3.39360   3.39574
 Alpha virt. eigenvalues --    3.39869   3.40418   3.40696   3.40844   3.41102
 Alpha virt. eigenvalues --    3.41421   3.41651   3.42088   3.42572   3.42669
 Alpha virt. eigenvalues --    3.43005   3.43128   3.43612   3.43899   3.43946
 Alpha virt. eigenvalues --    3.44039   3.44283   3.44543   3.44727   3.44844
 Alpha virt. eigenvalues --    3.45119   3.45481   3.45638   3.45780   3.45962
 Alpha virt. eigenvalues --    3.46262   3.46431   3.46535   3.46695   3.46808
 Alpha virt. eigenvalues --    3.47077   3.47377   3.47633   3.47746   3.47999
 Alpha virt. eigenvalues --    3.48389   3.48824   3.49165   3.49340   3.49580
 Alpha virt. eigenvalues --    3.49682   3.50240   3.50381   3.50845   3.50932
 Alpha virt. eigenvalues --    3.51031   3.51346   3.51526   3.51871   3.52594
 Alpha virt. eigenvalues --    3.52963   3.53020   3.53222   3.53391   3.53670
 Alpha virt. eigenvalues --    3.53944   3.54190   3.54562   3.54662   3.55102
 Alpha virt. eigenvalues --    3.55175   3.55319   3.55800   3.55999   3.56032
 Alpha virt. eigenvalues --    3.56582   3.57014   3.57149   3.57724   3.58159
 Alpha virt. eigenvalues --    3.58299   3.58517   3.58858   3.59292   3.59428
 Alpha virt. eigenvalues --    3.59783   3.60196   3.60634   3.60847   3.61017
 Alpha virt. eigenvalues --    3.61565   3.61854   3.61958   3.62308   3.62883
 Alpha virt. eigenvalues --    3.63527   3.63765   3.63901   3.64257   3.64992
 Alpha virt. eigenvalues --    3.65255   3.65836   3.65996   3.66724   3.67116
 Alpha virt. eigenvalues --    3.67250   3.67852   3.68526   3.68771   3.69109
 Alpha virt. eigenvalues --    3.69601   3.69648   3.70110   3.70470   3.71126
 Alpha virt. eigenvalues --    3.71465   3.72498   3.72932   3.74071   3.74327
 Alpha virt. eigenvalues --    3.74808   3.75212   3.75296   3.75319   3.76531
 Alpha virt. eigenvalues --    3.76718   3.77102   3.77385   3.77999   3.78346
 Alpha virt. eigenvalues --    3.78960   3.79326   3.79691   3.79952   3.80342
 Alpha virt. eigenvalues --    3.80733   3.81192   3.81761   3.82077   3.82586
 Alpha virt. eigenvalues --    3.83342   3.83752   3.83822   3.84326   3.84504
 Alpha virt. eigenvalues --    3.85014   3.85314   3.85513   3.85849   3.86416
 Alpha virt. eigenvalues --    3.86565   3.86716   3.87392   3.87696   3.87960
 Alpha virt. eigenvalues --    3.88651   3.89070   3.89713   3.90500   3.91250
 Alpha virt. eigenvalues --    3.91470   3.92404   3.92626   3.93351   3.93710
 Alpha virt. eigenvalues --    3.94563   3.94993   3.95083   3.96253   3.96579
 Alpha virt. eigenvalues --    3.97300   3.97447   3.98922   3.99258   4.00010
 Alpha virt. eigenvalues --    4.00201   4.00634   4.01444   4.01710   4.02137
 Alpha virt. eigenvalues --    4.02782   4.02815   4.04016   4.04184   4.04413
 Alpha virt. eigenvalues --    4.04742   4.05096   4.05696   4.05946   4.06172
 Alpha virt. eigenvalues --    4.07008   4.07334   4.08057   4.08463   4.09227
 Alpha virt. eigenvalues --    4.09339   4.10005   4.10276   4.10456   4.11199
 Alpha virt. eigenvalues --    4.11368   4.11640   4.11775   4.12095   4.12718
 Alpha virt. eigenvalues --    4.13049   4.13304   4.13624   4.13976   4.14102
 Alpha virt. eigenvalues --    4.14857   4.15599   4.15970   4.16050   4.16213
 Alpha virt. eigenvalues --    4.16758   4.17217   4.17454   4.17994   4.18034
 Alpha virt. eigenvalues --    4.18795   4.19269   4.19648   4.20004   4.20460
 Alpha virt. eigenvalues --    4.20883   4.21342   4.21535   4.21665   4.22131
 Alpha virt. eigenvalues --    4.22220   4.22456   4.22541   4.23318   4.23499
 Alpha virt. eigenvalues --    4.23753   4.24496   4.24822   4.24929   4.25474
 Alpha virt. eigenvalues --    4.25947   4.26473   4.26936   4.27156   4.27332
 Alpha virt. eigenvalues --    4.27478   4.28595   4.29053   4.30076   4.30437
 Alpha virt. eigenvalues --    4.30985   4.31442   4.31957   4.32414   4.32979
 Alpha virt. eigenvalues --    4.33306   4.33471   4.34190   4.34509   4.34725
 Alpha virt. eigenvalues --    4.35997   4.37008   4.37555   4.38422   4.39252
 Alpha virt. eigenvalues --    4.40216   4.40988   4.41296   4.42241   4.42602
 Alpha virt. eigenvalues --    4.42653   4.43643   4.44233   4.44811   4.45180
 Alpha virt. eigenvalues --    4.45820   4.46791   4.48080   4.48558   4.48938
 Alpha virt. eigenvalues --    4.49177   4.50242   4.50940   4.51279   4.51682
 Alpha virt. eigenvalues --    4.52459   4.52590   4.52826   4.53606   4.53999
 Alpha virt. eigenvalues --    4.54880   4.56043   4.56118   4.56678   4.57032
 Alpha virt. eigenvalues --    4.58024   4.58759   4.59118   4.59817   4.61928
 Alpha virt. eigenvalues --    4.61942   4.62886   4.63779   4.64187   4.65753
 Alpha virt. eigenvalues --    4.65902   4.66036   4.67136   4.67355   4.68604
 Alpha virt. eigenvalues --    4.69056   4.70899   4.72602   4.73314   4.73566
 Alpha virt. eigenvalues --    4.74468   4.74684   4.75242   4.75394   4.75728
 Alpha virt. eigenvalues --    4.76209   4.76391   4.76776   4.77309   4.77616
 Alpha virt. eigenvalues --    4.78238   4.78689   4.79036   4.79584   4.80536
 Alpha virt. eigenvalues --    4.81436   4.82351   4.84691   4.85201   4.86702
 Alpha virt. eigenvalues --    4.87210   4.88141   4.89175   4.89950   4.90838
 Alpha virt. eigenvalues --    4.91804   4.92849   4.93146   4.94917   4.95982
 Alpha virt. eigenvalues --    4.97810   4.99101   4.99337   5.00550   5.00983
 Alpha virt. eigenvalues --    5.02790   5.04096   5.05288   5.05760   5.05960
 Alpha virt. eigenvalues --    5.08228   5.08554   5.11036   5.11372   5.12120
 Alpha virt. eigenvalues --    5.12794   5.13824   5.14170   5.14998   5.15910
 Alpha virt. eigenvalues --    5.17310   5.17993   5.19857   5.20187   5.21423
 Alpha virt. eigenvalues --    5.22492   5.22740   5.23005   5.23416   5.23637
 Alpha virt. eigenvalues --    5.24632   5.25381   5.26440   5.26558   5.27026
 Alpha virt. eigenvalues --    5.28030   5.28412   5.29383   5.30271   5.31366
 Alpha virt. eigenvalues --    5.32119   5.33419   5.33762   5.36025   5.36273
 Alpha virt. eigenvalues --    5.36936   5.37617   5.38514   5.41039   5.43054
 Alpha virt. eigenvalues --    5.43641   5.44010   5.46846   5.47527   5.50082
 Alpha virt. eigenvalues --    5.51333   5.51936   5.53714   5.54593   5.54931
 Alpha virt. eigenvalues --    5.59050   5.59330   5.60311   5.60691   5.61384
 Alpha virt. eigenvalues --    5.61910   5.62489   5.63221   5.63964   5.66007
 Alpha virt. eigenvalues --    5.66945   5.67944   5.68617   5.70129   5.71807
 Alpha virt. eigenvalues --    5.73690   5.75166   5.80692   5.82142   5.83296
 Alpha virt. eigenvalues --    5.84809   5.87495   5.88788   5.91225   5.91966
 Alpha virt. eigenvalues --    5.94139   5.95957   5.96636   6.02310   6.14702
 Alpha virt. eigenvalues --    6.16176   6.17400   6.22662   6.24546   6.28878
 Alpha virt. eigenvalues --    6.42941   6.46113   6.47331   6.48485   6.53823
 Alpha virt. eigenvalues --    6.54616   6.56495   6.61062   6.63322   6.69374
[...]
 Alpha virt. eigenvalues --    2.81671   2.81863   2.82142   2.82337   2.82635
 Alpha virt. eigenvalues --    2.82677   2.82917   2.83199   2.83407   2.83799
 Alpha virt. eigenvalues --    2.84049   2.84184   2.84597   2.84619   2.84917
 Alpha virt. eigenvalues --    2.85089   2.85285   2.85508   2.85915   2.86057
 Alpha virt. eigenvalues --    2.86235   2.86494   2.86771   2.87275   2.87514
 Alpha virt. eigenvalues --    2.87846   2.87962   2.88222   2.88547   2.89026
 Alpha virt. eigenvalues --    2.89370   2.89453   2.89716   2.90146   2.90593
 Alpha virt. eigenvalues --    2.90772   2.91117   2.91220   2.91500   2.91622
 Alpha virt. eigenvalues --    2.91938   2.92166   2.92298   2.92493   2.92696
 Alpha virt. eigenvalues --    2.92860   2.93247   2.93540   2.93754   2.94071
 Alpha virt. eigenvalues --    2.94226   2.94425   2.94539   2.94731   2.94964
 Alpha virt. eigenvalues --    2.95257   2.95652   2.95937   2.96126   2.96361
 Alpha virt. eigenvalues --    2.96461   2.97082   2.97597   2.97854   2.97952
 Alpha virt. eigenvalues --    2.98305   2.98603   2.98807   2.98943   2.99157
 Alpha virt. eigenvalues --    2.99338   2.99571   3.00079   3.00250   3.00598
 Alpha virt. eigenvalues --    3.01052   3.01374   3.01616   3.01807   3.02192
 Alpha virt. eigenvalues --    3.02378   3.02761   3.02899   3.03244   3.03486
 Alpha virt. eigenvalues --    3.04104   3.04565   3.04938   3.04997   3.05103
 Alpha virt. eigenvalues --    3.05747   3.05923   3.06224   3.06486   3.06887
 Alpha virt. eigenvalues --    3.06957   3.07463   3.07726   3.07914   3.07992
 Alpha virt. eigenvalues --    3.08657   3.09000   3.09176   3.09313   3.09722
 Alpha virt. eigenvalues --    3.09855   3.10204   3.10547   3.10765   3.11003
 Alpha virt. eigenvalues --    3.11224   3.11439   3.11676   3.12084   3.12316
 Alpha virt. eigenvalues --    3.12481   3.12911   3.13328   3.13376   3.13492
 Alpha virt. eigenvalues --    3.13755   3.14262   3.14381   3.14532   3.14988
 Alpha virt. eigenvalues --    3.15104   3.15224   3.15569   3.15830   3.16002
 Alpha virt. eigenvalues --    3.16157   3.16546   3.16638   3.16976   3.17187
 Alpha virt. eigenvalues --    3.17388   3.17548   3.17783   3.18121   3.18312
 Alpha virt. eigenvalues --    3.18391   3.18468   3.18969   3.19081   3.19307
 Alpha virt. eigenvalues --    3.19674   3.19963   3.20201   3.20424   3.20641
 Alpha virt. eigenvalues --    3.20738   3.21024   3.21035   3.21504   3.21626
 Alpha virt. eigenvalues --    3.22181   3.22261   3.22825   3.23040   3.23579
 Alpha virt. eigenvalues --    3.23980   3.24267   3.24609   3.24864   3.25005
 Alpha virt. eigenvalues --    3.25250   3.25644   3.26077   3.26255   3.26566
 Alpha virt. eigenvalues --    3.26715   3.26966   3.27113   3.27397   3.27906
 Alpha virt. eigenvalues --    3.28002   3.28329   3.28348   3.28885   3.29101
 Alpha virt. eigenvalues --    3.29590   3.29625   3.30021   3.30183   3.30555
 Alpha virt. eigenvalues --    3.30915   3.30935   3.31258   3.31619   3.31784
 Alpha virt. eigenvalues --    3.31840   3.32210   3.32473   3.32680   3.33062
 Alpha virt. eigenvalues --    3.33284   3.33664   3.33935   3.34159   3.34326
 Alpha virt. eigenvalues --    3.34410   3.34704   3.35390   3.35443   3.35474
 Alpha virt. eigenvalues --    3.35791   3.35841   3.36187   3.36294   3.36662
 Alpha virt. eigenvalues --    3.37007   3.37117   3.37465   3.37710   3.38252
 Alpha virt. eigenvalues --    3.38399   3.38561   3.39139   3.39362   3.39578
 Alpha virt. eigenvalues --    3.39872   3.40422   3.40698   3.40847   3.41106
 Alpha virt. eigenvalues --    3.41424   3.41653   3.42091   3.42575   3.42672
 Alpha virt. eigenvalues --    3.43007   3.43130   3.43616   3.43902   3.43949
 Alpha virt. eigenvalues --    3.44042   3.44286   3.44546   3.44729   3.44849
 Alpha virt. eigenvalues --    3.45122   3.45485   3.45641   3.45784   3.45967
 Alpha virt. eigenvalues --    3.46266   3.46435   3.46538   3.46699   3.46812
 Alpha virt. eigenvalues --    3.47080   3.47381   3.47636   3.47750   3.48002
 Alpha virt. eigenvalues --    3.48392   3.48828   3.49169   3.49344   3.49582
 Alpha virt. eigenvalues --    3.49685   3.50245   3.50383   3.50848   3.50937
 Alpha virt. eigenvalues --    3.51036   3.51350   3.51528   3.51873   3.52599
 Alpha virt. eigenvalues --    3.52967   3.53025   3.53225   3.53395   3.53674
 Alpha virt. eigenvalues --    3.53947   3.54193   3.54566   3.54665   3.55106
 Alpha virt. eigenvalues --    3.55179   3.55321   3.55805   3.56004   3.56036
 Alpha virt. eigenvalues --    3.56585   3.57018   3.57153   3.57728   3.58163
 Alpha virt. eigenvalues --    3.58302   3.58520   3.58861   3.59296   3.59432
 Alpha virt. eigenvalues --    3.59786   3.60200   3.60638   3.60851   3.61020
 Alpha virt. eigenvalues --    3.61568   3.61857   3.61961   3.62311   3.62887
 Alpha virt. eigenvalues --    3.63530   3.63769   3.63903   3.64260   3.64994
 Alpha virt. eigenvalues --    3.65259   3.65839   3.65997   3.66727   3.67119
 Alpha virt. eigenvalues --    3.67253   3.67855   3.68528   3.68777   3.69113
 Alpha virt. eigenvalues --    3.69605   3.69653   3.70114   3.70475   3.71131
 Alpha virt. eigenvalues --    3.71468   3.72502   3.72934   3.74075   3.74332
 Alpha virt. eigenvalues --    3.74811   3.75215   3.75299   3.75323   3.76533
 Alpha virt. eigenvalues --    3.76722   3.77106   3.77390   3.78003   3.78352
 Alpha virt. eigenvalues --    3.78962   3.79331   3.79694   3.79960   3.80347
 Alpha virt. eigenvalues --    3.80736   3.81196   3.81766   3.82079   3.82588
 Alpha virt. eigenvalues --    3.83346   3.83755   3.83827   3.84328   3.84507
 Alpha virt. eigenvalues --    3.85014   3.85320   3.85518   3.85852   3.86421
 Alpha virt. eigenvalues --    3.86566   3.86720   3.87400   3.87699   3.87963
 Alpha virt. eigenvalues --    3.88655   3.89075   3.89715   3.90502   3.91254
 Alpha virt. eigenvalues --    3.91476   3.92407   3.92630   3.93357   3.93715
 Alpha virt. eigenvalues --    3.94566   3.94996   3.95086   3.96254   3.96584
 Alpha virt. eigenvalues --    3.97304   3.97450   3.98924   3.99261   4.00014
 Alpha virt. eigenvalues --    4.00205   4.00637   4.01448   4.01711   4.02142
 Alpha virt. eigenvalues --    4.02787   4.02818   4.04017   4.04186   4.04416
 Alpha virt. eigenvalues --    4.04745   4.05101   4.05698   4.05950   4.06175
 Alpha virt. eigenvalues --    4.07010   4.07338   4.08062   4.08466   4.09231
 Alpha virt. eigenvalues --    4.09346   4.10007   4.10279   4.10458   4.11206
 Alpha virt. eigenvalues --    4.11371   4.11648   4.11780   4.12099   4.12723
 Alpha virt. eigenvalues --    4.13053   4.13309   4.13629   4.13981   4.14105
 Alpha virt. eigenvalues --    4.14862   4.15603   4.15973   4.16056   4.16217
 Alpha virt. eigenvalues --    4.16762   4.17222   4.17456   4.17997   4.18038
 Alpha virt. eigenvalues --    4.18798   4.19271   4.19651   4.20007   4.20464
 Alpha virt. eigenvalues --    4.20886   4.21344   4.21538   4.21668   4.22133
 Alpha virt. eigenvalues --    4.22222   4.22458   4.22544   4.23320   4.23502
 Alpha virt. eigenvalues --    4.23755   4.24501   4.24824   4.24932   4.25478
 Alpha virt. eigenvalues --    4.25950   4.26476   4.26940   4.27159   4.27334
 Alpha virt. eigenvalues --    4.27483   4.28598   4.29056   4.30078   4.30439
 Alpha virt. eigenvalues --    4.30990   4.31443   4.31960   4.32418   4.32982
 Alpha virt. eigenvalues --    4.33309   4.33474   4.34195   4.34513   4.34729
 Alpha virt. eigenvalues --    4.35999   4.37010   4.37558   4.38425   4.39256
 Alpha virt. eigenvalues --    4.40219   4.40993   4.41299   4.42244   4.42604
 Alpha virt. eigenvalues --    4.42655   4.43646   4.44236   4.44814   4.45183
 Alpha virt. eigenvalues --    4.45823   4.46794   4.48084   4.48562   4.48942
 Alpha virt. eigenvalues --    4.49181   4.50245   4.50943   4.51283   4.51685
 Alpha virt. eigenvalues --    4.52463   4.52594   4.52829   4.53608   4.54004
 Alpha virt. eigenvalues --    4.54884   4.56046   4.56121   4.56682   4.57035
 Alpha virt. eigenvalues --    4.58027   4.58763   4.59121   4.59820   4.61929
 Alpha virt. eigenvalues --    4.61945   4.62887   4.63781   4.64189   4.65757
 Alpha virt. eigenvalues --    4.65904   4.66038   4.67141   4.67358   4.68607
 Alpha virt. eigenvalues --    4.69058   4.70901   4.72606   4.73317   4.73569
 Alpha virt. eigenvalues --    4.74473   4.74688   4.75246   4.75398   4.75732
 Alpha virt. eigenvalues --    4.76211   4.76395   4.76779   4.77313   4.77618
 Alpha virt. eigenvalues --    4.78241   4.78692   4.79040   4.79588   4.80539
 Alpha virt. eigenvalues --    4.81438   4.82354   4.84694   4.85203   4.86706
 Alpha virt. eigenvalues --    4.87213   4.88149   4.89178   4.89952   4.90839
 Alpha virt. eigenvalues --    4.91806   4.92852   4.93148   4.94919   4.95985
 Alpha virt. eigenvalues --    4.97814   4.99106   4.99343   5.00555   5.00985
 Alpha virt. eigenvalues --    5.02792   5.04100   5.05292   5.05764   5.05963
 Alpha virt. eigenvalues --    5.08230   5.08557   5.11039   5.11374   5.12124
 Alpha virt. eigenvalues --    5.12798   5.13828   5.14172   5.15000   5.15913
 Alpha virt. eigenvalues --    5.17315   5.17997   5.19859   5.20189   5.21427
 Alpha virt. eigenvalues --    5.22498   5.22743   5.23011   5.23420   5.23640
 Alpha virt. eigenvalues --    5.24638   5.25386   5.26442   5.26560   5.27034
 Alpha virt. eigenvalues --    5.28032   5.28414   5.29383   5.30271   5.31368
 Alpha virt. eigenvalues --    5.32124   5.33422   5.33772   5.36031   5.36277
 Alpha virt. eigenvalues --    5.36941   5.37622   5.38517   5.41043   5.43058
 Alpha virt. eigenvalues --    5.43645   5.44017   5.46847   5.47530   5.50085
 Alpha virt. eigenvalues --    5.51335   5.51934   5.53719   5.54596   5.54936
 Alpha virt. eigenvalues --    5.59051   5.59340   5.60308   5.60702   5.61390
 Alpha virt. eigenvalues --    5.61915   5.62493   5.63221   5.63968   5.66012
 Alpha virt. eigenvalues --    5.66953   5.67951   5.68621   5.70133   5.71815
 Alpha virt. eigenvalues --    5.73693   5.75172   5.80693   5.82145   5.83297
 Alpha virt. eigenvalues --    5.84811   5.87496   5.88790   5.91231   5.91968
 Alpha virt. eigenvalues --    5.94142   5.95964   5.96636   6.02313   6.14704
 Alpha virt. eigenvalues --    6.16175   6.17408   6.22670   6.24554   6.28879
 Alpha virt. eigenvalues --    6.42943   6.46112   6.47339   6.48492   6.53824
 Alpha virt. eigenvalues --    6.54619   6.56494   6.61070   6.63331   6.69375
 Alpha virt. eigenvalues --    6.73549   6.76803   6.77563   6.80447   6.82132
 Alpha virt. eigenvalues --    6.89279   6.92299   6.94871   6.95288   6.98875
 Alpha virt. eigenvalues --    6.99218   6.99325   7.06296   7.08271   7.17923
 Alpha virt. eigenvalues --    7.20002   7.22597   7.23280   7.28698   7.34960
 Alpha virt. eigenvalues --    7.44177   7.53783   7.60987  22.04287  22.13400
 Alpha virt. eigenvalues --   22.32720  22.33331  22.52717  22.59302  22.60018
 Alpha virt. eigenvalues --   22.63858  22.65005  22.65205  22.67106  22.67716
 Alpha virt. eigenvalues --   22.68440  22.69664  22.71885  22.73432  22.73622
 Alpha virt. eigenvalues --   22.79771  22.82654  22.84151  22.85463  22.86834
 Alpha virt. eigenvalues --   22.87787  22.89001  22.89348  22.91195  22.93003
 Alpha virt. eigenvalues --   22.93724  22.95643  23.02590  23.03621  23.05086
 Alpha virt. eigenvalues --   23.08000  23.09237  23.09925  23.13808  23.16315
 Alpha virt. eigenvalues --   23.18826  23.22220  23.26134  23.27892  23.33797
 Alpha virt. eigenvalues --   23.40124  23.55822  23.65298  23.67214  23.67944
 Alpha virt. eigenvalues --   23.73759  23.85197  23.92536  43.98676  44.04723
 Alpha virt. eigenvalues --   44.07784  44.12783  44.71878
          Condensed to atoms (all electrons):
 Mulliken charges:
               1
     1  C    0.391192
     2  C   -0.193628
     3  C    0.330373
     4  C    0.007699
     5  C   -0.106382
     6  C   -0.324482
     7  C    0.243522
     8  C    0.006968
     9  C    0.388449
    10  C   -0.185948
    11  C    0.378812
    12  C   -0.090351
    13  C   -0.192425
    14  H    0.172786
    15  H    0.097159
    16  H    0.238035
    17  O   -0.363376
    18  O   -0.546546
    19  O   -0.570895
    20  C   -0.280939
    21  C   -0.321037
    22  C   -0.201688
    23  C   -0.066447
    24  H    0.132326
    25  C   -0.073002
    26  C   -0.161807
    27  H    0.126026
    28  H    0.116417
    29  H    0.121505
    30  C    0.522235
    31  O   -0.609926
    32  O   -0.583275
    33  C    0.056061
    34  C   -0.091708
    35  C   -0.171501
    36  C   -0.067730
    37  H    0.117781
    38  C   -0.241744
    39  H    0.140646
    40  C    0.059676
    41  H    0.129921
    42  C   -0.018466
    43  C   -0.170727
    44  C   -0.164240
    45  C    0.029838
    46  H    0.144661
    47  C   -0.103473
    48  H    0.123011
    49  C   -0.055070
    50  H    0.109079
    51  C    0.048424
    52  C   -0.205698
    53  C   -0.131059
    54  C   -0.105933
    55  H    0.158675
    56  C   -0.082125
    57  H    0.135365
    58  H    0.117249
    59  C   -0.119313
    60  C   -0.111945
    61  H    0.122153
    62  C   -0.128996
    63  H    0.126831
    64  C   -0.180306
    65  H    0.135868
    66  H    0.113898
    67  C   -0.240980
    68  C   -0.128121
    69  H    0.133659
    70  C   -0.145999
    71  H    0.130639
    72  C   -0.063389
    73  H    0.111847
    74  H    0.135692
    75  C   -0.080885
    76  C   -0.083713
    77  C   -0.130104
    78  H    0.125333
    79  C   -0.125369
    80  H    0.125283
    81  C   -0.122776
    82  H    0.119640
    83  H    0.118791
 Sum of Mulliken charges =  -2.00000
 Mulliken charges with hydrogens summed into heavy atoms:
               1
     1  C    0.391192
     2  C   -0.193628
     3  C    0.330373
     4  C    0.007699
     5  C    0.066404
     6  C   -0.227323
     7  C    0.243522
     8  C    0.006968
     9  C    0.388449
    10  C   -0.185948
    11  C    0.378812
    12  C   -0.090351
    13  C    0.045610
    17  O   -0.363376
    18  O   -0.546546
    19  O   -0.570895
    20  C   -0.280939
    21  C   -0.188711
    22  C   -0.201688
    23  C    0.059578
    25  C    0.043414
    26  C   -0.040303
    30  C    0.522235
    31  O   -0.609926
    32  O   -0.583275
    33  C    0.056061
    34  C    0.026073
    35  C   -0.030856
    36  C   -0.067730
    38  C   -0.111823
    40  C    0.059676
    42  C   -0.018466
    43  C   -0.026066
    44  C   -0.041229
    45  C    0.029838
    47  C    0.005606
    49  C   -0.055070
    51  C    0.048424
    52  C   -0.047023
    53  C    0.004307
    54  C    0.011316
    56  C   -0.082125
    59  C   -0.005415
    60  C    0.010208
    62  C   -0.002164
    64  C   -0.044438
    67  C   -0.105288
    68  C    0.005539
    70  C   -0.015359
    72  C    0.048458
    75  C   -0.080885
    76  C    0.035078
    77  C   -0.004770
    79  C   -0.000086
    81  C   -0.003136
 Electronic spatial extent (au):  <R**2>=          39885.3991
 Charge=             -2.0000 electrons
 Dipole moment (field-independent basis, Debye):
    X=             -2.1478    Y=            -16.1887    Z=            -11.0861  Tot=             19.7380
 Quadrupole moment (field-independent basis, Debye-Ang):
   XX=           -390.3761   YY=           -427.4699   ZZ=           -348.4636
   XY=             25.7160   XZ=            -44.8334   YZ=            -22.7272
 Traceless Quadrupole moment (field-independent basis, Debye-Ang):
   XX=             -1.6062   YY=            -38.7000   ZZ=             40.3062
   XY=             25.7160   XZ=            -44.8334   YZ=            -22.7272
 Octapole moment (field-independent basis, Debye-Ang**2):
  XXX=            110.7301  YYY=           -332.0739  ZZZ=           -108.5847  XYY=             -5.9951
  XXY=           -304.5909  XXZ=             46.0289  XZZ=            -98.2315  YZZ=           -138.7066
  YYZ=           -221.0143  XYZ=           -166.5593
 Hexadecapole moment (field-independent basis, Debye-Ang**3):
 XXXX=         -36114.1565 YYYY=         -18544.4432 ZZZZ=          -2766.0590 XXXY=            834.4557
 XXXZ=           -672.5490 YYYX=            347.8712 YYYZ=           -184.0881 ZZZX=           -349.4626
 ZZZY=           -378.1931 XXYY=          -9568.0086 XXZZ=          -6820.1866 YYZZ=          -3785.1801
 XXYZ=             29.0035 YYXZ=           -809.4642 ZZXY=           -257.9855
 N-N= 6.854376711478D+03 E-N=-1.913192706435D+04  KE= 2.287344235186D+03
 Leave Link  601 at Mon Feb 21 11:27:05 2022, MaxMem=  5242880000 cpu:        16.3
 (Enter /opt/nce/packages/global/g09/l9999.exe)
 1\1\GINC-CN065\SP\RM06 TD-FC\Gen\C50H28O5(2-)\PNG4RJV\21-Feb-2022\0\\#
 p m06 chkbasis geom=allcheck Guess=Read int=ultrafine scrf=(SMD,solven
 t=Acetonitrile) td=(NStates=30)\\Title\\-2,1\C,-7.42659,-3.940447,-8.3
 90898\C,-6.145329,-3.758664,-7.735657\C,-5.559333,-2.512442,-7.746059\
 C,-6.110399,-1.378907,-8.392185\C,-7.358486,-1.566368,-9.040016\C,-7.9
 81152,-2.767232,-9.037246\C,-5.43214,-0.158831,-8.335541\C,-4.205756,-
 0.081144,-7.663087\C,-3.70535,-1.226264,-7.002893\C,-2.522026,-1.23655
 7,-6.303143\C,-1.718055,-0.035562,-6.220969\C,-2.238015,1.153519,-6.90
 6196\C,-3.426398,1.09209,-7.57407\H,-7.815276,-0.716431,-9.537194\H,-8
 .938402,-2.899771,-9.531905\H,-3.795276,1.978024,-8.082046\O,-4.393769
 ,-2.387957,-7.07036\O,-0.658094,-0.012133,-5.572804\O,-8.024275,-5.030
 154,-8.422766\C,-5.910878,0.994049,-9.140183\C,-5.485208,1.029499,-10.
 467111\C,-6.729483,2.014429,-8.650783\C,-5.859515,2.059451,-11.311131\
 H,-4.847824,0.23107,-10.835803\C,-7.093695,3.042267,-9.515309\C,-6.670
 976,3.074826,-10.831024\H,-5.516831,2.06681,-12.339775\H,-7.728497,3.8
 24244,-9.114373\H,-6.971913,3.888507,-11.481823\C,-7.237562,2.036572,-
 7.207297\O,-7.92741,3.020263,-6.880141\O,-6.913727,1.064197,-6.496988\
 C,-5.477068,-4.903636,-7.086561\C,-6.122383,-5.67352,-6.150617\C,-4.14
 971,-5.255961,-7.44194\C,-5.502325,-6.787792,-5.546948\H,-7.139885,-5.
 430729,-5.861484\C,-3.520206,-6.325837,-6.877685\H,-3.633303,-4.66443,
 -8.190373\C,-4.174389,-7.127381,-5.91683\H,-2.506516,-6.585061,-7.1695
 45\C,-2.051271,-2.461393,-5.624587\C,-2.82978,-3.122302,-4.707055\C,-0
 .774293,-2.994932,-5.927834\C,-2.394322,-4.302706,-4.070901\H,-3.81322
 ,-2.737729,-4.451833\C,-0.321745,-4.135871,-5.332175\H,-0.155098,-2.48
 0828,-6.654127\C,-1.111359,-4.822468,-4.383989\H,0.657315,-4.535121,-5
 .57961\C,-1.493805,2.424368,-6.861239\C,-2.199669,3.648216,-6.727979\C
 ,-0.123765,2.480639,-6.974973\C,-1.555339,4.849892,-6.723854\H,-3.2778
 16,3.620591,-6.607995\C,0.572216,3.705871,-6.979812\H,0.446328,1.56459
 8,-7.072744\H,-2.115595,5.773188,-6.611752\C,-6.161219,-7.579538,-4.58
 0139\C,-5.539425,-8.657664,-4.014924\H,-6.057765,-9.257417,-3.275028\C
 ,-4.226709,-8.999278,-4.391431\H,-3.745096,-9.858955,-3.938839\C,-3.56
 139,-8.249244,-5.320885\H,-2.547227,-8.503328,-5.615148\H,-7.175325,-7
 .314578,-4.296824\C,-3.194316,-4.983793,-3.125978\C,-2.740931,-6.11858
 7,-2.514557\H,-3.362264,-6.630115,-1.787661\C,-1.467872,-6.633199,-2.8
 26065\H,-1.121559,-7.537152,-2.337183\C,-0.674079,-6.000422,-3.741683\
 H,0.308372,-6.391974,-3.987714\H,-4.175994,-4.582304,-2.891848\C,-0.15
 2205,4.920072,-6.852163\C,0.550193,6.143499,-6.854295\C,1.91044,6.1683
 02,-6.983195\H,2.440778,7.113961,-6.985331\C,2.631195,4.965634,-7.1146
 65\H,3.710235,4.996817,-7.217243\C,1.978189,3.76584,-7.112128\H,2.5293
 6,2.835653,-7.211426\H,-0.0139,7.065722,-6.752703\\Version=ES64L-G09Re
 vE.01\State=1-A\HF=-2297.8656784\RMSD=4.098e-09\PG=C01 [X(C50H28O5)]\\
 @


 IT IS A QUALITY OF REVOLUTIONS NOT TO GO BY OLD LINES OR OLD LAWS,
 BUT TO BREAK UP BOTH, AND MAKE NEW ONES.
                                              -- A. LINCOLN (1848)
 Job cpu time:      12 days  2 hours  0 minutes 34.2 seconds.
 File lengths (MBytes):  RWF=  15516 Int=      0 D2E=      0 Chk=   3060 Scr=      1
 Normal termination of Gaussian 09 at Mon Feb 21 11:27:10 2022.
