
                                 *****************
                                 * O   R   C   A *
                                 *****************

                                            #,                                       
                                            ###                                      
                                            ####                                     
                                            #####                                    
                                            ######                                   
                                           ########,                                 
                                     ,,################,,,,,                         
                               ,,#################################,,                 
                          ,,##########################################,,             
                       ,#########################################, ''#####,          
                    ,#############################################,,   '####,        
                  ,##################################################,,,,####,       
                ,###########''''           ''''###############################       
              ,#####''   ,,,,##########,,,,          '''####'''          '####       
            ,##' ,,,,###########################,,,                        '##       
           ' ,,###''''                  '''############,,,                           
         ,,##''                                '''############,,,,        ,,,,,,###''
      ,#''                                            '''#######################'''  
     '                                                          ''''####''''         
             ,#######,   #######,   ,#######,      ##                                
            ,#'     '#,  ##    ##  ,#'     '#,    #''#        ######   ,####,        
            ##       ##  ##   ,#'  ##            #'  '#       #        #'  '#        
            ##       ##  #######   ##           ,######,      #####,   #    #        
            '#,     ,#'  ##    ##  '#,     ,#' ,#      #,         ##   #,  ,#        
             '#######'   ##     ##  '#######'  #'      '#     #####' # '####'        



                  #######################################################
                  #                        -***-                        #
                  #          Department of theory and spectroscopy      #
                  #    Directorship and core code : Frank Neese         #
                  #        Max Planck Institute fuer Kohlenforschung    #
                  #                Kaiser Wilhelm Platz 1               #
                  #                 D-45470 Muelheim/Ruhr               #
                  #                      Germany                        #
                  #                                                     #
                  #                  All rights reserved                #
                  #                        -***-                        #
                  #######################################################


                         Program Version 5.0.2 -  RELEASE  -


 With contributions from (in alphabetic order):
   Daniel Aravena         : Magnetic Suceptibility
   Michael Atanasov       : Ab Initio Ligand Field Theory (pilot matlab implementation)
   Alexander A. Auer      : GIAO ZORA, VPT2 properties, NMR spectrum
   Ute Becker             : Parallelization
   Giovanni Bistoni       : ED, misc. LED, open-shell LED, HFLD
   Martin Brehm           : Molecular dynamics
   Dmytro Bykov           : SCF Hessian
   Vijay G. Chilkuri      : MRCI spin determinant printing, contributions to CSF-ICE
   Dipayan Datta          : RHF DLPNO-CCSD density
   Achintya Kumar Dutta   : EOM-CC, STEOM-CC
   Dmitry Ganyushin       : Spin-Orbit,Spin-Spin,Magnetic field MRCI
   Miquel Garcia          : C-PCM and meta-GGA Hessian, CC/C-PCM, Gaussian charge scheme
   Yang Guo               : DLPNO-NEVPT2, F12-NEVPT2, CIM, IAO-localization
   Andreas Hansen         : Spin unrestricted coupled pair/coupled cluster methods
   Benjamin Helmich-Paris : MC-RPA, TRAH-SCF, COSX integrals
   Lee Huntington         : MR-EOM, pCC
   Robert Izsak           : Overlap fitted RIJCOSX, COSX-SCS-MP3, EOM
   Marcus Kettner         : VPT2
   Christian Kollmar      : KDIIS, OOCD, Brueckner-CCSD(T), CCSD density, CASPT2, CASPT2-K
   Simone Kossmann        : Meta GGA functionals, TD-DFT gradient, OOMP2, MP2 Hessian
   Martin Krupicka        : Initial AUTO-CI
   Lucas Lang             : DCDCAS
   Marvin Lechner         : AUTO-CI (C++ implementation), FIC-MRCC
   Dagmar Lenk            : GEPOL surface, SMD
   Dimitrios Liakos       : Extrapolation schemes; Compound Job, initial MDCI parallelization
   Dimitrios Manganas     : Further ROCIS development; embedding schemes
   Dimitrios Pantazis     : SARC Basis sets
   Anastasios Papadopoulos: AUTO-CI, single reference methods and gradients
   Taras Petrenko         : DFT Hessian,TD-DFT gradient, ASA, ECA, R-Raman, ABS, FL, XAS/XES, NRVS
   Peter Pinski           : DLPNO-MP2, DLPNO-MP2 Gradient
   Christoph Reimann      : Effective Core Potentials
   Marius Retegan         : Local ZFS, SOC
   Christoph Riplinger    : Optimizer, TS searches, QM/MM, DLPNO-CCSD(T), (RO)-DLPNO pert. Triples
   Tobias Risthaus        : Range-separated hybrids, TD-DFT gradient, RPA, STAB
   Michael Roemelt        : Original ROCIS implementation
   Masaaki Saitow         : Open-shell DLPNO-CCSD energy and density
   Barbara Sandhoefer     : DKH picture change effects
   Avijit Sen             : IP-ROCIS
   Kantharuban Sivalingam : CASSCF convergence, NEVPT2, FIC-MRCI
   Bernardo de Souza      : ESD, SOC TD-DFT
   Georgi Stoychev        : AutoAux, RI-MP2 NMR, DLPNO-MP2 response
   Willem Van den Heuvel  : Paramagnetic NMR
   Boris Wezisla          : Elementary symmetry handling
   Frank Wennmohs         : Technical directorship


 We gratefully acknowledge several colleagues who have allowed us to
 interface, adapt or use parts of their codes:
   Stefan Grimme, W. Hujo, H. Kruse, P. Pracht,  : VdW corrections, initial TS optimization,
                  C. Bannwarth, S. Ehlert          DFT functionals, gCP, sTDA/sTD-DF
   Ed Valeev, F. Pavosevic, A. Kumar             : LibInt (2-el integral package), F12 methods
   Garnet Chan, S. Sharma, J. Yang, R. Olivares  : DMRG
   Ulf Ekstrom                                   : XCFun DFT Library
   Mihaly Kallay                                 : mrcc  (arbitrary order and MRCC methods)
   Jiri Pittner, Ondrej Demel                    : Mk-CCSD
   Frank Weinhold                                : gennbo (NPA and NBO analysis)
   Christopher J. Cramer and Donald G. Truhlar   : smd solvation model
   Lars Goerigk                                  : TD-DFT with DH, B97 family of functionals
   V. Asgeirsson, H. Jonsson                     : NEB implementation
   FAccTs GmbH                                   : IRC, NEB, NEB-TS, DLPNO-Multilevel, CI-OPT
                                                   MM, QMMM, 2- and 3-layer-ONIOM, Crystal-QMMM,
                                                   LR-CPCM, SF, NACMEs, symmetry and pop. for TD-DFT,
                                                   nearIR, NL-DFT gradient (VV10), updates on ESD,
                                                   ML-optimized integration grids
   S Lehtola, MJT Oliveira, MAL Marques          : LibXC Library
   Liviu Ungur et al                             : ANISO software


 Your calculation uses the libint2 library for the computation of 2-el integrals
 For citations please refer to: http://libint.valeyev.net

 Your ORCA version has been built with support for libXC version: 5.1.0
 For citations please refer to: https://tddft.org/programs/libxc/

 This ORCA versions uses:
   CBLAS   interface :  Fast vector & matrix operations
   LAPACKE interface :  Fast linear algebra routines
   SCALAPACK package :  Parallel linear algebra routines
   Shared memory     :  Shared parallel matrices
   BLAS/LAPACK       :  OpenBLAS 0.3.15  USE64BITINT DYNAMIC_ARCH NO_AFFINITY Zen SINGLE_THREADED
        Core in use  :  Zen
   Copyright (c) 2011-2014, The OpenBLAS Project


Your calculation utilizes the SMD solvation module
Please cite in your paper:
A.V. Marenich, C.J. Cramer, D.G. Truhlar J. Phys. Chem. B, 113, (2009), 6378 

================================================================================

----- Orbital basis set information -----
Your calculation utilizes the basis: def2-TZVP
   F. Weigend and R. Ahlrichs, Phys. Chem. Chem. Phys. 7, 3297 (2005).

----- AuxJ basis set information -----
Your calculation utilizes the auxiliary basis: def2/J
   F. Weigend, Phys. Chem. Chem. Phys. 8, 1057 (2006).

----- AuxC basis set information -----
Your calculation utilizes the auxiliary basis: def2-TZVP/C
  H-La, Hf-Rn : A. Hellweg, C. Hattig, S. Hofener and W. Klopper, Theor. Chem. Acc. 117, 587 (2007).
        Ce-Lu : J. Chmela and M. E. Harding, Mol. Phys. (2018).

================================================================================
                                        WARNINGS
                       Please study these warnings very carefully!
================================================================================

INFO   : Checking CIS options ...
  ===> : (D) CORRECTION FOUND - SETTING MODE=3
  ===> : JK MODE FOUND - ACTIVATING RI-MP2 CODE
  ===> : MP2 AND CIS FOUND - CHECKING
WARNING: CIS(D) and MP2 runs must have the same orbital window
  ===> : adjusting orbital windows

WARNING: No MP2 level density has been requested!
         To caclulate MP2 level properties use
         %mp2 Density relaxed end
         or
         %mp2 Density unrelaxed end
         Otherwise for double-hybrid DFT only the energy is correct!

WARNING: The frozen-core approximation is turned on by default for 
         the MP2 part of double-hybrid DFT.

WARNING: CIS/ROCIS methods need fully converged wavefunctions
  ===> : Setting SCFConvForced true
         You can overwrite this default with %scf ConvForced false 


INFO   : the flag for use of the SHARK integral package has been found!

================================================================================
                                       INPUT FILE
================================================================================
NAME = Eos-3_M06L_def2TZVP_coords_Nanelkul.inp
|  1> %maxcore 20000
|  2> %pal
|  3>  nprocs= 8
|  4> end
|  5> ! RI-SCS-PBE-QIDH   def2-TZVP def2/J def2-TZVP/C RIJCOSX CPCM TightSCF
|  6> %TDDFT  
|  7>    NROOTS   30
|  8>    dcorr 4
|  9>    doscs true 
| 10>    TDA      FALSE
| 11> END 
| 12>  
| 13>  %CPCM 
| 14>    SMD          TRUE 
| 15>    SMDsolvent   "ACETONITRILE"
| 16>  END 
| 17>  
| 18> 
| 19> * xyz -2 1
| 20>  C -3.021889 3.845082 -0.412279 
| 21>  C -2.670618 2.435301 -0.435900 
| 22>  C -1.338877 2.078139 -0.351790 
| 23>  C -0.261988 3.002393 -0.306931 
| 24>  C -0.618807 4.377008 -0.290805 
| 25>  C -1.915100 4.774589 -0.336421 
| 26>  C 1.056534 2.527055 -0.248409 
| 27>  C 1.287357 1.141094 -0.197827 
| 28>  C 0.183866 0.251934 -0.177149 
| 29>  C 0.314103 -1.117620 -0.097666 
| 30>  C 1.633556 -1.716982 -0.043436 
| 31>  C 2.779347 -0.801316 -0.075467 
| 32>  C 2.568460 0.550215 -0.156436 
| 33>  H 0.173164 5.113184 -0.225871 
| 34>  H -2.170444 5.827748 -0.312236 
| 35>  H 3.425754 1.209587 -0.204065 
| 36>  O -1.079149 0.744841 -0.276092 
| 37>  O 1.773266 -2.954258 0.058640 
| 38>  O -4.202988 4.251775 -0.462231 
| 39>  C 2.194005 3.472354 -0.317641 
| 40>  C 2.350359 4.234695 -1.477882 
| 41>  C 3.141981 3.585655 0.711389 
| 42>  C 3.411829 5.113435 -1.622431 
| 43>  H 1.627795 4.125491 -2.278755 
| 44>  C 4.214877 4.457657 0.538758 
| 45>  C 4.347900 5.229337 -0.604349 
| 46>  H 3.508708 5.698645 -2.528336 
| 47>  H 4.950074 4.523332 1.332256 
| 48>  H 5.181035 5.914540 -0.704903 
| 49>  C 3.017901 2.812974 2.015765 
| 50>  O 4.075858 2.295506 2.445559 
| 51>  O 1.881980 2.793400 2.539240 
| 52>  C -3.723706 1.413628 -0.561330 
| 53>  C -4.853997 1.442244 0.228035 
| 54>  C -3.618021 0.387959 -1.537322 
| 55>  C -5.879397 0.482015 0.098398 
| 56>  H -4.965003 2.217489 0.975750 
| 57>  C -4.596796 -0.552469 -1.696734 
| 58>  H -2.744588 0.362525 -2.177147 
| 59>  C -5.754480 -0.542060 -0.887587 
| 60>  H -4.497315 -1.322590 -2.453987 
| 61>  C -0.870074 -1.996266 -0.056955 
| 62>  C -1.888836 -1.797010 0.849629 
| 63>  C -0.988029 -3.077000 -0.967311 
| 64>  C -3.031257 -2.621960 0.885340 
| 65>  H -1.824023 -0.984223 1.564456 
| 66>  C -2.086501 -3.892243 -0.967036 
| 67>  H -0.190854 -3.243703 -1.679910 
| 68>  C -3.140148 -3.696765 -0.046492 
| 69>  H -2.163437 -4.705839 -1.679713 
| 70>  C 4.156124 -1.309270 0.013768 
| 71>  C 5.139404 -0.534617 0.689918 
| 72>  C 4.551412 -2.509256 -0.546396 
| 73>  C 6.438026 -0.950427 0.781717 
| 74>  H 4.840235 0.395836 1.164806 
| 75>  C 5.884479 -2.962508 -0.471454 
| 76>  H 3.827403 -3.121419 -1.065402 
| 77>  H 7.166748 -0.347365 1.312293 
| 78>  C -7.029321 0.492512 0.920290 
| 79>  C -8.007660 -0.456400 0.775371 
| 80>  H -8.882038 -0.435276 1.414160 
| 81>  C -7.885633 -1.460763 -0.202991 
| 82>  H -8.666019 -2.204260 -0.308811 
| 83>  C -6.782354 -1.499895 -1.015957 
| 84>  H -6.678993 -2.274082 -1.768377 
| 85>  H -7.123034 1.268798 1.671286 
| 86>  C -4.077842 -2.418145 1.813783 
| 87>  C -5.178066 -3.234617 1.823916 
| 88>  H -5.972498 -3.066478 2.540762 
| 89>  C -5.286567 -4.291480 0.900246 
| 90>  H -6.163920 -4.926542 0.914017 
| 91>  C -4.289926 -4.514856 -0.014351 
| 92>  H -4.368994 -5.327981 -0.727267 
| 93>  H -3.992801 -1.599218 2.519792 
| 94>  C 6.857695 -2.170690 0.207824 
| 95>  C 8.188019 -2.634201 0.284332 
| 96>  C 8.551314 -3.825776 -0.288032 
| 97>  H 9.575875 -4.170440 -0.223255 
| 98>  C 7.594642 -4.606959 -0.963257 
| 99>  H 7.892053 -5.546462 -1.412562 
|100>  C 6.294091 -4.185260 -1.051863 
|101>  H 5.555063 -4.786601 -1.569286 
|102>  H 8.919964 -2.027592 0.805834 
|103> *
|104> 
|105> 
|106> 
|107> 
|108>                          ****END OF INPUT****
================================================================================

                       ****************************
                       * Single Point Calculation *
                       ****************************

---------------------------------
CARTESIAN COORDINATES (ANGSTROEM)
---------------------------------
  C     -3.021889    3.845082   -0.412279
  C     -2.670618    2.435301   -0.435900
  C     -1.338877    2.078139   -0.351790
  C     -0.261988    3.002393   -0.306931
  C     -0.618807    4.377008   -0.290805
  C     -1.915100    4.774589   -0.336421
  C      1.056534    2.527055   -0.248409
  C      1.287357    1.141094   -0.197827
  C      0.183866    0.251934   -0.177149
  C      0.314103   -1.117620   -0.097666
  C      1.633556   -1.716982   -0.043436
  C      2.779347   -0.801316   -0.075467
  C      2.568460    0.550215   -0.156436
  H      0.173164    5.113184   -0.225871
  H     -2.170444    5.827748   -0.312236
  H      3.425754    1.209587   -0.204065
  O     -1.079149    0.744841   -0.276092
  O      1.773266   -2.954258    0.058640
  O     -4.202988    4.251775   -0.462231
  C      2.194005    3.472354   -0.317641
  C      2.350359    4.234695   -1.477882
  C      3.141981    3.585655    0.711389
  C      3.411829    5.113435   -1.622431
  H      1.627795    4.125491   -2.278755
  C      4.214877    4.457657    0.538758
  C      4.347900    5.229337   -0.604349
  H      3.508708    5.698645   -2.528336
  H      4.950074    4.523332    1.332256
  H      5.181035    5.914540   -0.704903
  C      3.017901    2.812974    2.015765
  O      4.075858    2.295506    2.445559
  O      1.881980    2.793400    2.539240
  C     -3.723706    1.413628   -0.561330
  C     -4.853997    1.442244    0.228035
  C     -3.618021    0.387959   -1.537322
  C     -5.879397    0.482015    0.098398
  H     -4.965003    2.217489    0.975750
  C     -4.596796   -0.552469   -1.696734
  H     -2.744588    0.362525   -2.177147
  C     -5.754480   -0.542060   -0.887587
  H     -4.497315   -1.322590   -2.453987
  C     -0.870074   -1.996266   -0.056955
  C     -1.888836   -1.797010    0.849629
  C     -0.988029   -3.077000   -0.967311
  C     -3.031257   -2.621960    0.885340
  H     -1.824023   -0.984223    1.564456
  C     -2.086501   -3.892243   -0.967036
  H     -0.190854   -3.243703   -1.679910
  C     -3.140148   -3.696765   -0.046492
  H     -2.163437   -4.705839   -1.679713
  C      4.156124   -1.309270    0.013768
  C      5.139404   -0.534617    0.689918
  C      4.551412   -2.509256   -0.546396
  C      6.438026   -0.950427    0.781717
  H      4.840235    0.395836    1.164806
  C      5.884479   -2.962508   -0.471454
  H      3.827403   -3.121419   -1.065402
  H      7.166748   -0.347365    1.312293
  C     -7.029321    0.492512    0.920290
  C     -8.007660   -0.456400    0.775371
  H     -8.882038   -0.435276    1.414160
  C     -7.885633   -1.460763   -0.202991
  H     -8.666019   -2.204260   -0.308811
  C     -6.782354   -1.499895   -1.015957
  H     -6.678993   -2.274082   -1.768377
  H     -7.123034    1.268798    1.671286
  C     -4.077842   -2.418145    1.813783
  C     -5.178066   -3.234617    1.823916
  H     -5.972498   -3.066478    2.540762
  C     -5.286567   -4.291480    0.900246
  H     -6.163920   -4.926542    0.914017
  C     -4.289926   -4.514856   -0.014351
  H     -4.368994   -5.327981   -0.727267
  H     -3.992801   -1.599218    2.519792
  C      6.857695   -2.170690    0.207824
  C      8.188019   -2.634201    0.284332
  C      8.551314   -3.825776   -0.288032
  H      9.575875   -4.170440   -0.223255
  C      7.594642   -4.606959   -0.963257
  H      7.892053   -5.546462   -1.412562
  C      6.294091   -4.185260   -1.051863
  H      5.555063   -4.786601   -1.569286
  H      8.919964   -2.027592    0.805834

----------------------------
CARTESIAN COORDINATES (A.U.)
----------------------------
  NO LB      ZA    FRAG     MASS         X           Y           Z
   0 C     6.0000    0    12.011   -5.710543    7.266152   -0.779094
   1 C     6.0000    0    12.011   -5.046737    4.602052   -0.823732
   2 C     6.0000    0    12.011   -2.530111    3.927114   -0.664787
   3 C     6.0000    0    12.011   -0.495086    5.673701   -0.580016
   4 C     6.0000    0    12.011   -1.169376    8.271346   -0.549542
   5 C     6.0000    0    12.011   -3.619015    9.022666   -0.635744
   6 C     6.0000    0    12.011    1.996560    4.775442   -0.469425
   7 C     6.0000    0    12.011    2.432752    2.156355   -0.373839
   8 C     6.0000    0    12.011    0.347456    0.476086   -0.334763
   9 C     6.0000    0    12.011    0.593569   -2.111996   -0.184562
  10 C     6.0000    0    12.011    3.086973   -3.244626   -0.082082
  11 C     6.0000    0    12.011    5.252205   -1.514268   -0.142612
  12 C     6.0000    0    12.011    4.853686    1.039756   -0.295621
  13 H     1.0000    0     1.008    0.327233    9.662517   -0.426834
  14 H     1.0000    0     1.008   -4.101545   11.012848   -0.590041
  15 H     1.0000    0     1.008    6.473737    2.285788   -0.385627
  16 O     8.0000    0    15.999   -2.039296    1.407546   -0.521738
  17 O     8.0000    0    15.999    3.350987   -5.582739    0.110814
  18 O     8.0000    0    15.999   -7.942496    8.034690   -0.873490
  19 C     6.0000    0    12.011    4.146069    6.561798   -0.600254
  20 C     6.0000    0    12.011    4.441535    8.002414   -2.792792
  21 C     6.0000    0    12.011    5.937484    6.775906    1.344330
  22 C     6.0000    0    12.011    6.447422    9.662992   -3.065950
  23 H     1.0000    0     1.008    3.076087    7.796048   -4.306223
  24 C     6.0000    0    12.011    7.964963    8.423751    1.018105
  25 C     6.0000    0    12.011    8.216340    9.882015   -1.142054
  26 H     1.0000    0     1.008    6.630497   10.768878   -4.777863
  27 H     1.0000    0     1.008    9.354284    8.547859    2.517599
  28 H     1.0000    0     1.008    9.790737   11.176861   -1.332074
  29 C     6.0000    0    12.011    5.703006    5.315750    3.809244
  30 O     8.0000    0    15.999    7.702255    4.337878    4.621437
  31 O     8.0000    0    15.999    3.556427    5.278761    4.798468
  32 C     6.0000    0    12.011   -7.036785    2.671370   -1.060760
  33 C     6.0000    0    12.011   -9.172725    2.725446    0.430924
  34 C     6.0000    0    12.011   -6.837069    0.733136   -2.905118
  35 C     6.0000    0    12.011  -11.110450    0.910876    0.185945
  36 H     1.0000    0     1.008   -9.382496    4.190447    1.843900
  37 C     6.0000    0    12.011   -8.686686   -1.044015   -3.206363
  38 H     1.0000    0     1.008   -5.186520    0.685073   -4.114212
  39 C     6.0000    0    12.011  -10.874391   -1.024345   -1.677296
  40 H     1.0000    0     1.008   -8.498694   -2.499333   -4.637363
  41 C     6.0000    0    12.011   -1.644202   -3.772396   -0.107629
  42 C     6.0000    0    12.011   -3.569383   -3.395857    1.605566
  43 C     6.0000    0    12.011   -1.867104   -5.814687   -1.827953
  44 C     6.0000    0    12.011   -5.728246   -4.954786    1.673050
  45 H     1.0000    0     1.008   -3.446904   -1.859912    2.956393
  46 C     6.0000    0    12.011   -3.942915   -7.355273   -1.827433
  47 H     1.0000    0     1.008   -0.360662   -6.129710   -3.174570
  48 C     6.0000    0    12.011   -5.934020   -6.985873   -0.087857
  49 H     1.0000    0     1.008   -4.088303   -8.892747   -3.174198
  50 C     6.0000    0    12.011    7.853936   -2.474162    0.026018
  51 C     6.0000    0    12.011    9.712066   -1.010280    1.303756
  52 C     6.0000    0    12.011    8.600922   -4.741807   -1.032539
  53 C     6.0000    0    12.011   12.166106   -1.796047    1.477231
  54 H     1.0000    0     1.008    9.146719    0.748022    2.201164
  55 C     6.0000    0    12.011   11.120054   -5.598329   -0.890919
  56 H     1.0000    0     1.008    7.232743   -5.898627   -2.013318
  57 H     1.0000    0     1.008   13.543191   -0.656425    2.479874
  58 C     6.0000    0    12.011  -13.283492    0.930713    1.739096
  59 C     6.0000    0    12.011  -15.132284   -0.862471    1.465239
  60 H     1.0000    0     1.008  -16.784619   -0.822552    2.672375
  61 C     6.0000    0    12.011  -14.901687   -2.760442   -0.383597
  62 H     1.0000    0     1.008  -16.376403   -4.165448   -0.583568
  63 C     6.0000    0    12.011  -12.816792   -2.834391   -1.919880
  64 H     1.0000    0     1.008  -12.621468   -4.297392   -3.341748
  65 H     1.0000    0     1.008  -13.460584    2.397681    3.158273
  66 C     6.0000    0    12.011   -7.706005   -4.569632    3.427553
  67 C     6.0000    0    12.011   -9.785127   -6.112540    3.446702
  68 H     1.0000    0     1.008  -11.286386   -5.794804    4.801344
  69 C     6.0000    0    12.011   -9.990164   -8.109722    1.701218
  70 H     1.0000    0     1.008  -11.648121   -9.309815    1.727242
  71 C     6.0000    0    12.011   -8.106785   -8.531841   -0.027119
  72 H     1.0000    0     1.008   -8.256202  -10.068425   -1.374335
  73 H     1.0000    0     1.008   -7.545300   -3.022084    4.761717
  74 C     6.0000    0    12.011   12.959165   -4.102010    0.392730
  75 C     6.0000    0    12.011   15.473113   -4.977918    0.537310
  76 C     6.0000    0    12.011   16.159642   -7.229669   -0.544302
  77 H     1.0000    0     1.008   18.095781   -7.880989   -0.421891
  78 C     6.0000    0    12.011   14.351793   -8.705891   -1.820292
  79 H     1.0000    0     1.008   14.913819  -10.481294   -2.669355
  80 C     6.0000    0    12.011   11.894108   -7.908995   -1.987733
  81 H     1.0000    0     1.008   10.497548   -9.045365   -2.965521
  82 H     1.0000    0     1.008   16.856289   -3.831594    1.522806

--------------------------------
INTERNAL COORDINATES (ANGSTROEM)
--------------------------------
 C      0   0   0     0.000000000000     0.00000000     0.00000000
 C      1   0   0     1.453076644587     0.00000000     0.00000000
 C      2   1   0     1.381366452982   118.87639297     0.00000000
 C      3   2   1     1.419840732166   124.39010968   356.81088524
 C      4   3   2     1.420262737969   116.09381122     2.82917104
 C      5   4   3     1.356660242237   121.55475726   359.03599827
 C      4   3   2     1.402808362968   119.57942972   181.26937008
 C      7   4   3     1.405960770994   119.32996687   358.25220336
 C      8   7   4     1.417295125359   119.41554531   358.61796207
 C      9   8   7     1.378026626148   123.41944060   181.51455156
 C     10   9   8     1.450217886786   119.92690189   359.38952810
 C     11  10   9     1.467074375824   116.85999593     0.09266996
 C     12  11  10     1.370279296235   119.78175688   359.85006075
 H      5   4   3     1.083231088999   118.34415108   178.14340390
 H      6   5   4     1.083941581379   120.60214715   179.32092023
 H     13  12  11     1.082586236039   118.78107970   181.51516758
 O      9   8   7     1.359394688133   119.65976172     3.38747640
 O     11  10   9     1.249315930440   120.93791845   178.40219863
 O      1   2   3     1.250155688846   122.91271527   181.17073417
 C      7   4   3     1.480615934355   120.25139142   174.77054621
 C     20   7   4     1.397057461838   118.24213217   297.61582836
 C     20   7   4     1.403708785353   122.41695317   120.30100660
 C     21  20   7     1.385567379055   121.22846529   181.64434082
 H     21  20   7     1.084168718346   118.94224547     1.17044581
 C     22  20   7     1.393303548040   118.66722101   177.15083611
 C     25  22  20     1.385596894619   121.64800630     1.42419407
 H     23  21  20     1.082829697490   119.90578823   180.39843886
 H     25  22  20     1.083728245658   118.00824674   181.09409061
 H     26  25  22     1.083387366711   120.17461476   178.75072800
 C     22  20   7     1.521127385703   122.17665186   355.75216828
 O     30  22  20     1.253702128621   115.77250469   136.87880321
 O     30  22  20     1.250889977313   116.15962643   315.57141595
 C      2   1   3     1.472597276778   120.10766550   180.60576953
 C     33   2   1     1.378939347238   121.53483257   311.64339995
 C     33   2   1     1.419762867823   120.43295099   129.65257376
 C     34  33   2     1.410776610314   121.94096766   178.82352135
 H     34  33   2     1.082776460441   119.61665343   358.50470999
 C     35  33   2     1.366681202605   121.59957931   181.64981246
 H     35  33   2     1.083008829359   118.88966284     0.83389687
 C     38  35  33     1.412465737194   121.00384224   359.73342740
 H     38  35  33     1.084626631616   120.28693603   179.56423865
 C     10   9   8     1.475110621671   121.17859003   178.97052604
 C     42  10   9     1.378213885881   121.69780348   307.94691151
 C     42  10   9     1.417972992520   120.20159952   127.69821445
 C     43  42  10     1.409589840791   122.08249697   179.23800990
 H     43  42  10     1.084343613559   119.85603558   359.23136602
 C     44  42  10     1.367940773374   121.39227482   181.19132741
 H     44  42  10     1.082162282486   118.61309967     0.50421546
 C     47  44  42     1.412722515227   121.10281990   359.24091561
 H     47  44  42     1.084327490033   120.26559296   179.22311778
 C     12  11  10     1.470202387112   120.95787810   178.22483484
 C     51  12  11     1.422710670273   119.20510725   214.31629744
 C     51  12  11     1.382028476565   122.90401662    35.08739805
 C     52  51  12     1.366654349638   121.53278439   181.11626948
 H     52  51  12     1.086629416275   118.92421585     2.72559007
 C     53  51  12     1.410007555071   121.86916057   178.66077113
 H     53  51  12     1.080879178579   119.65604768   359.14198084
 H     54  52  51     1.084541571773   120.14226074   180.69622077
 C     36  34  33     1.413485710026   122.19625306   178.87498287
 C     59  36  34     1.370613986222   120.93589676   180.25453906
 H     60  59  36     1.083067170946   120.02616974   179.90859417
 C     60  59  36     1.407418852916   120.37583863   359.78249936
 H     62  60  59     1.083045691744   119.69203229   180.08562831
 C     62  60  59     1.371010423892   120.15491406     0.25741578
 H     64  62  60     1.084520568588   120.56129655   179.66388689
 H     59  36  34     1.084157309702   118.58220717     0.23029569
 C     45  43  42     1.413820045373   122.15538746   180.06443034
 C     67  45  43     1.370117533151   120.88952273   179.88192736
 H     68  67  45     1.083171784003   120.08919238   180.01952346
 C     68  67  45     1.407799039874   120.29163051   359.70202301
 H     70  68  67     1.083162809043   119.61933855   180.37203915
 C     70  68  67     1.371013418120   120.26330724     0.20575612
 H     72  70  68     1.084284666176   120.51656678   179.96649476
 H     67  45  43     1.084583842352   118.57306171   359.93974109
 C     54  52  51     1.412273710787   121.19539804   359.95643353
 C     75  54  52     1.410835874991   122.82215075   180.13783006
 C     76  75  54     1.370924792301   120.85002336   180.01104261
 H     77  76  75     1.082919468541   120.15762712   179.94750818
 C     77  76  75     1.407621041225   120.16769407   359.97464394
 H     79  77  76     1.083048555216   119.58944335   179.95971631
 C     79  77  76     1.370078090270   120.35501934   359.87247668
 H     81  79  77     1.084204751878   120.47695176   180.15697179
 H     76  75  54     1.084288844317   118.60736062     0.00000000

---------------------------
INTERNAL COORDINATES (A.U.)
---------------------------
 C      0   0   0     0.000000000000     0.00000000     0.00000000
 C      1   0   0     2.745916909866     0.00000000     0.00000000
 C      2   1   0     2.610404286723   118.87639297     0.00000000
 C      3   2   1     2.683110137580   124.39010968   356.81088524
 C      4   3   2     2.683907612974   116.09381122     2.82917104
 C      5   4   3     2.563716314607   121.55475726   359.03599827
 C      4   3   2     2.650923624383   119.57942972   181.26937008
 C      7   4   3     2.656880812215   119.32996687   358.25220336
 C      8   7   4     2.678299637869   119.41554531   358.61796207
 C      9   8   7     2.604092928672   123.41944060   181.51455156
 C     10   9   8     2.740514640539   119.92690189   359.38952810
 C     11  10   9     2.772368788400   116.85999593     0.09266996
 C     12  11  10     2.589452596867   119.78175688   359.85006075
 H      5   4   3     2.047010097957   118.34415108   178.14340390
 H      6   5   4     2.048352733975   120.60214715   179.32092023
 H     13  12  11     2.045791502466   118.78107970   181.51516758
 O      9   8   7     2.568883668478   119.65976172     3.38747640
 O     11  10   9     2.360864963277   120.93791845   178.40219863
 O      1   2   3     2.362451876683   122.91271527   181.17073417
 C      7   4   3     2.797958625451   120.25139142   174.77054621
 C     20   7   4     2.640055996225   118.24213217   297.61582836
 C     20   7   4     2.652625176096   122.41695317   120.30100660
 C     21  20   7     2.618342886509   121.22846529   181.64434082
 H     21  20   7     2.048781960639   118.94224547     1.17044581
 C     22  20   7     2.632962127216   118.66722101   177.15083611
 C     25  22  20     2.618398662842   121.64800630     1.42419407
 H     23  21  20     2.046251577933   119.90578823   180.39843886
 H     25  22  20     2.047949587889   118.00824674   181.09409061
 H     26  25  22     2.047305420035   120.17461476   178.75072800
 C     22  20   7     2.874514173787   122.17665186   355.75216828
 O     30  22  20     2.369153676608   115.77250469   136.87880321
 O     30  22  20     2.363839480788   116.15962643   315.57141595
 C      2   1   3     2.782805558668   120.10766550   180.60576953
 C     33   2   1     2.605817721569   121.53483257   311.64339995
 C     33   2   1     2.682962995297   120.43295099   129.65257376
 C     34  33   2     2.665981429636   121.94096766   178.82352135
 H     34  33   2     2.046150974491   119.61665343   358.50470999
 C     35  33   2     2.582653185301   121.59957931   181.64981246
 H     35  33   2     2.046590088108   118.88966284     0.83389687
 C     38  35  33     2.669173416843   121.00384224   359.73342740
 H     38  35  33     2.049647291312   120.28693603   179.56423865
 C     10   9   8     2.787555092196   121.17859003   178.97052604
 C     42  10   9     2.604446798283   121.69780348   307.94691151
 C     42  10   9     2.679580621160   120.20159952   127.69821445
 C     43  42  10     2.663738760253   122.08249697   179.23800990
 H     43  42  10     2.049112464694   119.85603558   359.23136602
 C     44  42  10     2.585033429101   121.39227482   181.19132741
 H     44  42  10     2.044990346357   118.61309967     0.50421546
 C     47  44  42     2.669658657003   121.10281990   359.24091561
 H     47  44  42     2.049081995644   120.26559296   179.22311778
 C     12  11  10     2.778279873079   120.95787810   178.22483484
 C     51  12  11     2.688533534624   119.20510725   214.31629744
 C     51  12  11     2.611655329988   122.90401662    35.08739805
 C     52  51  12     2.582602440548   121.53278439   181.11626948
 H     52  51  12     2.053432005822   118.92421585     2.72559007
 C     53  51  12     2.664528125844   121.86916057   178.66077113
 H     53  51  12     2.042565631372   119.65604768   359.14198084
 H     54  52  51     2.049486551504   120.14226074   180.69622077
 C     36  34  33     2.671100886161   122.19625306   178.87498287
 C     59  36  34     2.590085069281   120.93589676   180.25453906
 H     60  59  36     2.046700337729   120.02616974   179.90859417
 C     60  59  36     2.659636187728   120.37583863   359.78249936
 H     62  60  59     2.046659747919   119.69203229   180.08562831
 C     62  60  59     2.590834227907   120.15491406     0.25741578
 H     64  62  60     2.049446861235   120.56129655   179.66388689
 H     59  36  34     2.048760401426   118.58220717     0.23029569
 C     45  43  42     2.671732688403   122.15538746   180.06443034
 C     67  45  43     2.589146908940   120.88952273   179.88192736
 H     68  67  45     2.046898027757   120.08919238   180.01952346
 C     68  67  45     2.660354636959   120.29163051   359.70202301
 H     70  68  67     2.046881067540   119.61933855   180.37203915
 C     70  68  67     2.590839886179   120.26330724     0.20575612
 H     72  70  68     2.049001070283   120.51656678   179.96649476
 H     67  45  43     2.049566431321   118.57306171   359.93974109
 C     54  52  51     2.668810539523   121.19539804   359.95643353
 C     75  54  52     2.666093423644   122.82215075   180.13783006
 C     76  75  54     2.590672407652   120.85002336   180.01104261
 H     77  76  75     2.046421220635   120.15762712   179.94750818
 C     77  76  75     2.660018268259   120.16769407   359.97464394
 H     79  77  76     2.046665159097   119.58944335   179.95971631
 C     79  77  76     2.589072372696   120.35501934   359.87247668
 H     81  79  77     2.048850054145   120.47695176   180.15697179
 H     76  75  54     2.049008965825   118.60736062     0.00000000

---------------------
BASIS SET INFORMATION
---------------------
There are 3 groups of distinct atoms

 Group   1 Type C   : 11s6p2d1f contracted to 5s3p2d1f pattern {62111/411/11/1}
 Group   2 Type H   : 5s1p contracted to 3s1p pattern {311/1}
 Group   3 Type O   : 11s6p2d1f contracted to 5s3p2d1f pattern {62111/411/11/1}

Atom   0C    basis set group =>   1
Atom   1C    basis set group =>   1
Atom   2C    basis set group =>   1
Atom   3C    basis set group =>   1
Atom   4C    basis set group =>   1
Atom   5C    basis set group =>   1
Atom   6C    basis set group =>   1
Atom   7C    basis set group =>   1
Atom   8C    basis set group =>   1
Atom   9C    basis set group =>   1
Atom  10C    basis set group =>   1
Atom  11C    basis set group =>   1
Atom  12C    basis set group =>   1
Atom  13H    basis set group =>   2
Atom  14H    basis set group =>   2
Atom  15H    basis set group =>   2
Atom  16O    basis set group =>   3
Atom  17O    basis set group =>   3
Atom  18O    basis set group =>   3
Atom  19C    basis set group =>   1
Atom  20C    basis set group =>   1
Atom  21C    basis set group =>   1
Atom  22C    basis set group =>   1
Atom  23H    basis set group =>   2
Atom  24C    basis set group =>   1
Atom  25C    basis set group =>   1
Atom  26H    basis set group =>   2
Atom  27H    basis set group =>   2
Atom  28H    basis set group =>   2
Atom  29C    basis set group =>   1
Atom  30O    basis set group =>   3
Atom  31O    basis set group =>   3
Atom  32C    basis set group =>   1
Atom  33C    basis set group =>   1
Atom  34C    basis set group =>   1
Atom  35C    basis set group =>   1
Atom  36H    basis set group =>   2
Atom  37C    basis set group =>   1
Atom  38H    basis set group =>   2
Atom  39C    basis set group =>   1
Atom  40H    basis set group =>   2
Atom  41C    basis set group =>   1
Atom  42C    basis set group =>   1
Atom  43C    basis set group =>   1
Atom  44C    basis set group =>   1
Atom  45H    basis set group =>   2
Atom  46C    basis set group =>   1
Atom  47H    basis set group =>   2
Atom  48C    basis set group =>   1
Atom  49H    basis set group =>   2
Atom  50C    basis set group =>   1
Atom  51C    basis set group =>   1
Atom  52C    basis set group =>   1
Atom  53C    basis set group =>   1
Atom  54H    basis set group =>   2
Atom  55C    basis set group =>   1
Atom  56H    basis set group =>   2
Atom  57H    basis set group =>   2
Atom  58C    basis set group =>   1
Atom  59C    basis set group =>   1
Atom  60H    basis set group =>   2
Atom  61C    basis set group =>   1
Atom  62H    basis set group =>   2
Atom  63C    basis set group =>   1
Atom  64H    basis set group =>   2
Atom  65H    basis set group =>   2
Atom  66C    basis set group =>   1
Atom  67C    basis set group =>   1
Atom  68H    basis set group =>   2
Atom  69C    basis set group =>   1
Atom  70H    basis set group =>   2
Atom  71C    basis set group =>   1
Atom  72H    basis set group =>   2
Atom  73H    basis set group =>   2
Atom  74C    basis set group =>   1
Atom  75C    basis set group =>   1
Atom  76C    basis set group =>   1
Atom  77H    basis set group =>   2
Atom  78C    basis set group =>   1
Atom  79H    basis set group =>   2
Atom  80C    basis set group =>   1
Atom  81H    basis set group =>   2
Atom  82H    basis set group =>   2
---------------------------------
AUXILIARY/J BASIS SET INFORMATION
---------------------------------
There are 3 groups of distinct atoms

 Group   1 Type C   : 12s5p4d2f1g contracted to 6s4p3d1f1g pattern {711111/2111/211/2/1}
 Group   2 Type H   : 5s2p1d contracted to 3s1p1d pattern {311/2/1}
 Group   3 Type O   : 12s5p4d2f1g contracted to 6s4p3d1f1g pattern {711111/2111/211/2/1}

Atom   0C    basis set group =>   1
Atom   1C    basis set group =>   1
Atom   2C    basis set group =>   1
Atom   3C    basis set group =>   1
Atom   4C    basis set group =>   1
Atom   5C    basis set group =>   1
Atom   6C    basis set group =>   1
Atom   7C    basis set group =>   1
Atom   8C    basis set group =>   1
Atom   9C    basis set group =>   1
Atom  10C    basis set group =>   1
Atom  11C    basis set group =>   1
Atom  12C    basis set group =>   1
Atom  13H    basis set group =>   2
Atom  14H    basis set group =>   2
Atom  15H    basis set group =>   2
Atom  16O    basis set group =>   3
Atom  17O    basis set group =>   3
Atom  18O    basis set group =>   3
Atom  19C    basis set group =>   1
Atom  20C    basis set group =>   1
Atom  21C    basis set group =>   1
Atom  22C    basis set group =>   1
Atom  23H    basis set group =>   2
Atom  24C    basis set group =>   1
Atom  25C    basis set group =>   1
Atom  26H    basis set group =>   2
Atom  27H    basis set group =>   2
Atom  28H    basis set group =>   2
Atom  29C    basis set group =>   1
Atom  30O    basis set group =>   3
Atom  31O    basis set group =>   3
Atom  32C    basis set group =>   1
Atom  33C    basis set group =>   1
Atom  34C    basis set group =>   1
Atom  35C    basis set group =>   1
Atom  36H    basis set group =>   2
Atom  37C    basis set group =>   1
Atom  38H    basis set group =>   2
Atom  39C    basis set group =>   1
Atom  40H    basis set group =>   2
Atom  41C    basis set group =>   1
Atom  42C    basis set group =>   1
Atom  43C    basis set group =>   1
Atom  44C    basis set group =>   1
Atom  45H    basis set group =>   2
Atom  46C    basis set group =>   1
Atom  47H    basis set group =>   2
Atom  48C    basis set group =>   1
Atom  49H    basis set group =>   2
Atom  50C    basis set group =>   1
Atom  51C    basis set group =>   1
Atom  52C    basis set group =>   1
Atom  53C    basis set group =>   1
Atom  54H    basis set group =>   2
Atom  55C    basis set group =>   1
Atom  56H    basis set group =>   2
Atom  57H    basis set group =>   2
Atom  58C    basis set group =>   1
Atom  59C    basis set group =>   1
Atom  60H    basis set group =>   2
Atom  61C    basis set group =>   1
Atom  62H    basis set group =>   2
Atom  63C    basis set group =>   1
Atom  64H    basis set group =>   2
Atom  65H    basis set group =>   2
Atom  66C    basis set group =>   1
Atom  67C    basis set group =>   1
Atom  68H    basis set group =>   2
Atom  69C    basis set group =>   1
Atom  70H    basis set group =>   2
Atom  71C    basis set group =>   1
Atom  72H    basis set group =>   2
Atom  73H    basis set group =>   2
Atom  74C    basis set group =>   1
Atom  75C    basis set group =>   1
Atom  76C    basis set group =>   1
Atom  77H    basis set group =>   2
Atom  78C    basis set group =>   1
Atom  79H    basis set group =>   2
Atom  80C    basis set group =>   1
Atom  81H    basis set group =>   2
Atom  82H    basis set group =>   2
---------------------------------
AUXILIARY/C BASIS SET INFORMATION
---------------------------------
There are 3 groups of distinct atoms

 Group   1 Type C   : 8s6p5d3f1g contracted to 8s6p4d3f1g pattern {11111111/111111/2111/111/1}
 Group   2 Type H   : 4s3p2d contracted to 4s2p1d pattern {1111/21/2}
 Group   3 Type O   : 8s6p5d3f1g contracted to 8s6p4d3f1g pattern {11111111/111111/2111/111/1}

Atom   0C    basis set group =>   1
Atom   1C    basis set group =>   1
Atom   2C    basis set group =>   1
Atom   3C    basis set group =>   1
Atom   4C    basis set group =>   1
Atom   5C    basis set group =>   1
Atom   6C    basis set group =>   1
Atom   7C    basis set group =>   1
Atom   8C    basis set group =>   1
Atom   9C    basis set group =>   1
Atom  10C    basis set group =>   1
Atom  11C    basis set group =>   1
Atom  12C    basis set group =>   1
Atom  13H    basis set group =>   2
Atom  14H    basis set group =>   2
Atom  15H    basis set group =>   2
Atom  16O    basis set group =>   3
Atom  17O    basis set group =>   3
Atom  18O    basis set group =>   3
Atom  19C    basis set group =>   1
Atom  20C    basis set group =>   1
Atom  21C    basis set group =>   1
Atom  22C    basis set group =>   1
Atom  23H    basis set group =>   2
Atom  24C    basis set group =>   1
Atom  25C    basis set group =>   1
Atom  26H    basis set group =>   2
Atom  27H    basis set group =>   2
Atom  28H    basis set group =>   2
Atom  29C    basis set group =>   1
Atom  30O    basis set group =>   3
Atom  31O    basis set group =>   3
Atom  32C    basis set group =>   1
Atom  33C    basis set group =>   1
Atom  34C    basis set group =>   1
Atom  35C    basis set group =>   1
Atom  36H    basis set group =>   2
Atom  37C    basis set group =>   1
Atom  38H    basis set group =>   2
Atom  39C    basis set group =>   1
Atom  40H    basis set group =>   2
Atom  41C    basis set group =>   1
Atom  42C    basis set group =>   1
Atom  43C    basis set group =>   1
Atom  44C    basis set group =>   1
Atom  45H    basis set group =>   2
Atom  46C    basis set group =>   1
Atom  47H    basis set group =>   2
Atom  48C    basis set group =>   1
Atom  49H    basis set group =>   2
Atom  50C    basis set group =>   1
Atom  51C    basis set group =>   1
Atom  52C    basis set group =>   1
Atom  53C    basis set group =>   1
Atom  54H    basis set group =>   2
Atom  55C    basis set group =>   1
Atom  56H    basis set group =>   2
Atom  57H    basis set group =>   2
Atom  58C    basis set group =>   1
Atom  59C    basis set group =>   1
Atom  60H    basis set group =>   2
Atom  61C    basis set group =>   1
Atom  62H    basis set group =>   2
Atom  63C    basis set group =>   1
Atom  64H    basis set group =>   2
Atom  65H    basis set group =>   2
Atom  66C    basis set group =>   1
Atom  67C    basis set group =>   1
Atom  68H    basis set group =>   2
Atom  69C    basis set group =>   1
Atom  70H    basis set group =>   2
Atom  71C    basis set group =>   1
Atom  72H    basis set group =>   2
Atom  73H    basis set group =>   2
Atom  74C    basis set group =>   1
Atom  75C    basis set group =>   1
Atom  76C    basis set group =>   1
Atom  77H    basis set group =>   2
Atom  78C    basis set group =>   1
Atom  79H    basis set group =>   2
Atom  80C    basis set group =>   1
Atom  81H    basis set group =>   2
Atom  82H    basis set group =>   2


           ************************************************************
           *        Program running with 8 parallel MPI-processes     *
           *              working on a common directory               *
           ************************************************************
------------------------------------------------------------------------------
                           ORCA GTO INTEGRAL CALCULATION
                           -- RI-GTO INTEGRALS CHOSEN --
------------------------------------------------------------------------------
------------------------------------------------------------------------------
                   ___                                                        
                  /   \      - P O W E R E D   B Y -                         
                 /     \                                                     
                 |  |  |   _    _      __       _____    __    __             
                 |  |  |  | |  | |    /  \     |  _  \  |  |  /  |          
                  \  \/   | |  | |   /    \    | | | |  |  | /  /          
                 / \  \   | |__| |  /  /\  \   | |_| |  |  |/  /          
                |  |  |   |  __  | /  /__\  \  |    /   |      \           
                |  |  |   | |  | | |   __   |  |    \   |  |\   \          
                \     /   | |  | | |  |  |  |  | |\  \  |  | \   \       
                 \___/    |_|  |_| |__|  |__|  |_| \__\ |__|  \__/        
                                                                              
                      - O R C A' S   B I G   F R I E N D -                    
                                      &                                       
                       - I N T E G R A L  F E E D E R -                       
                                                                              
 v1 FN, 2020, v2 2021                                                         
------------------------------------------------------------------------------


Reading SHARK input file Eos-3_M06L_def2TZVP_coords_Nanelkul.SHARKINP.tmp ... ok
----------------------
SHARK INTEGRAL PACKAGE
----------------------

Number of atoms                             ...     83
Number of basis functions                   ...   1873
Number of shells                            ...    717
Maximum angular momentum                    ...      3
Integral batch strategy                     ... SHARK/LIBINT Hybrid
RI-J (if used) integral strategy            ... SPLIT-RIJ (Revised 2003 algorithm where possible)
Printlevel                                  ...      1
Contraction scheme used                     ... SEGMENTED contraction
Coulomb Range Separation                    ... NOT USED
Exchange Range Separation                   ... NOT USED
Finite Nucleus Model                        ... NOT USED
Auxiliary Coulomb fitting basis             ... AVAILABLE
   # of basis functions in Aux-J            ...   3003
   # of shells in Aux-J                     ...    965
   Maximum angular momentum in Aux-J        ...      4
Auxiliary J/K fitting basis                 ... NOT available
Auxiliary Correlation fitting basis         ... AVAILABLE
   # of basis functions in Aux-C            ...   4600
   # of shells in Aux-C                     ...   1406
   Maximum angular momentum in Aux-C        ...      4
Auxiliary 'external' fitting basis          ... NOT available
Integral threshold                          ...     2.500000e-11
Primitive cut-off                           ...     2.500000e-12
Primitive pair pre-selection threshold      ...     2.500000e-12

Calculating pre-screening integrals         ... done (  0.2 sec) Dimension = 717
Organizing shell pair data                  ... done (  2.7 sec)
Shell pair information
Total number of shell pairs                 ...    257403
Shell pairs after pre-screening             ...    122943
Total number of primitive shell pairs       ...    805840
Primitive shell pairs kept                  ...    234781
          la=0 lb=0:  28998 shell pairs
          la=1 lb=0:  36043 shell pairs
          la=1 lb=1:  11068 shell pairs
          la=2 lb=0:  17322 shell pairs
          la=2 lb=1:  11021 shell pairs
          la=2 lb=2:   2588 shell pairs
          la=3 lb=0:   7881 shell pairs
          la=3 lb=1:   5156 shell pairs
          la=3 lb=2:   2316 shell pairs
          la=3 lb=3:    550 shell pairs

Calculating one electron integrals          ... done (  0.4 sec)
Calculating RI/J V-Matrix + Cholesky decomp.... done (  0.7 sec)
Calculating RI/C V-Matrix + Cholesky decomp.... done (  1.6 sec)
Calculating Nuclear repulsion               ... done (  0.0 sec) ENN=   6873.839673406940 Eh

SHARK setup successfully completed in   7.0 seconds

Maximum memory used throughout the entire GTOINT-calculation: 227.7 MB


           ************************************************************
           *        Program running with 8 parallel MPI-processes     *
           *              working on a common directory               *
           ************************************************************
-------------------------------------------------------------------------------
                                 ORCA SCF
-------------------------------------------------------------------------------

------------
SCF SETTINGS
------------
Hamiltonian:
 Density Functional     Method          .... DFT(GTOs)
 Exchange Functional    Exchange        .... PBE
   PBE kappa parameter   XKappa         ....  0.804000
   PBE mue parameter    XMuePBE         ....  0.219520
 Correlation Functional Correlation     .... PBE
   PBE beta parameter  CBetaPBE         ....  0.066725
 LDA part of GGA corr.  LDAOpt          .... PW91-LDA
 Gradients option       PostSCFGGA      .... off
 Hybrid DFT is turned on
   Fraction HF Exchange ScalHFX         ....  0.690000
   Scaling of DF-GGA-X  ScalDFX         ....  0.310000
   Scaling of DF-GGA-C  ScalDFC         ....  0.670000
   Scaling of DF-LDA-C  ScalLDAC        ....  0.670000
   Perturbative correction              ....  0.330000
   Density functional embedding theory  .... OFF
 RI-approximation to the Coulomb term is turned on
   Number of AuxJ basis functions       .... 3003
   RIJ-COSX (HFX calculated with COS-X)).... on


General Settings:
 Integral files         IntName         .... Eos-3_M06L_def2TZVP_coords_Nanelkul
 Hartree-Fock type      HFTyp           .... RHF
 Total Charge           Charge          ....   -2
 Multiplicity           Mult            ....    1
 Number of Electrons    NEL             ....  370
 Basis Dimension        Dim             .... 1873
 Nuclear Repulsion      ENuc            ....   6873.8396734069 Eh

Convergence Acceleration:
 DIIS                   CNVDIIS         .... on
   Start iteration      DIISMaxIt       ....    12
   Startup error        DIISStart       ....  0.200000
   # of expansion vecs  DIISMaxEq       ....     5
   Bias factor          DIISBfac        ....   1.050
   Max. coefficient     DIISMaxC        ....  10.000
 Trust-Rad. Augm. Hess. CNVTRAH         .... auto
   Auto Start mean grad. ratio tolernc. ....  1.125000
   Auto Start start iteration           ....    20
   Auto Start num. interpolation iter.  ....    10
   Max. Number of Micro iterations      ....    16
   Max. Number of Macro iterations      .... Maxiter - #DIIS iter
   Number of Davidson start vectors     ....     2
   Converg. threshold I  (grad. norm)   ....   1.000e-05
   Converg. threshold II (energy diff.) ....   1.000e-08
   Grad. Scal. Fac. for Micro threshold ....   0.100
   Minimum threshold for Micro iter.    ....   0.010
   NR start threshold (gradient norm)   ....   0.001
   Initial trust radius                 ....   0.400
   Minimum AH scaling param. (alpha)    ....   1.000
   Maximum AH scaling param. (alpha)    .... 1000.000
   Orbital update algorithm             .... Taylor
   White noise on init. David. guess    .... on
   Maximum white noise                  ....   0.010
   Quad. conv. algorithm                .... NR
 SOSCF                  CNVSOSCF        .... on
   Start iteration      SOSCFMaxIt      ....   150
   Startup grad/error   SOSCFStart      ....  0.003300
 Level Shifting         CNVShift        .... on
   Level shift para.    LevelShift      ....    0.2500
   Turn off err/grad.   ShiftErr        ....    0.0010
 Zerner damping         CNVZerner       .... off
 Static damping         CNVDamp         .... on
   Fraction old density DampFac         ....    0.7000
   Max. Damping (<1)    DampMax         ....    0.9800
   Min. Damping (>=0)   DampMin         ....    0.0000
   Turn off err/grad.   DampErr         ....    0.1000
 Fernandez-Rico         CNVRico         .... off

SCF Procedure:
 Maximum # iterations   MaxIter         ....   125
 SCF integral mode      SCFMode         .... Direct
   Integral package                     .... SHARK and LIBINT hybrid scheme
 Reset frequency        DirectResetFreq ....    20
 Integral Threshold     Thresh          ....  2.500e-11 Eh
 Primitive CutOff       TCut            ....  2.500e-12 Eh

Convergence Tolerance:
 Convergence Check Mode ConvCheckMode   .... Total+1el-Energy
 Convergence forced     ConvForced      .... 1
 Energy Change          TolE            ....  1.000e-08 Eh
 1-El. energy change                    ....  1.000e-05 Eh
 Orbital Gradient       TolG            ....  1.000e-05
 Orbital Rotation angle TolX            ....  1.000e-05
 DIIS Error             TolErr          ....  5.000e-07


Diagonalization of the overlap matrix:
Smallest eigenvalue                        ... 3.009e-06
Time for diagonalization                   ...    0.586 sec
Threshold for overlap eigenvalues          ... 1.000e-08
Number of eigenvalues below threshold      ... 0
Time for construction of square roots      ...    0.528 sec
Total time needed                          ...    1.128 sec

Time for model grid setup =    1.056 sec

------------------------------
INITIAL GUESS: MODEL POTENTIAL
------------------------------
Loading Hartree-Fock densities                     ... done
Calculating cut-offs                               ... done
Initializing the effective Hamiltonian             ... done
Setting up the integral package (SHARK)            ... done
Starting the Coulomb interaction                   ... done (   2.9 sec)
Reading the grid                                   ... done
Mapping shells                                     ... done
Starting the XC term evaluation                    ... done (   1.3 sec)
  promolecular density results
     # of electrons  =    367.972289191
     EX              =   -304.898111770
     EC              =     -4.601806399
     EX+EC           =   -309.499918169
Transforming the Hamiltonian                       ... done (   0.5 sec)
Diagonalizing the Hamiltonian                      ... done (   0.6 sec)
Back transforming the eigenvectors                 ... done (   0.2 sec)
Now organizing SCF variables                       ... done
                      ------------------
                      INITIAL GUESS DONE (   6.7 sec)
                      ------------------
-------------------
DFT GRID GENERATION
-------------------

General Integration Accuracy     IntAcc      ... 4.388
Radial Grid Type                 RadialGrid  ... OptM3 with GC (2021)
Angular Grid (max. ang.)         AngularGrid ... 4 (Lebedev-302)
Angular grid pruning method      GridPruning ... 4 (adaptive)
Weight generation scheme         WeightScheme... Becke
Basis function cutoff            BFCut       ... 1.0000e-11
Integration weight cutoff        WCut        ... 1.0000e-14
Angular grids for H and He will be reduced by one unit
Partially contracted basis set               ... off
Rotationally invariant grid construction     ... off

Total number of grid points                  ...   414609
Total number of batches                      ...     6521
Average number of points per batch           ...       63
Average number of grid points per atom       ...     4995
Time for grid setup =    3.904 sec

--------------------
COSX GRID GENERATION
--------------------

GRIDX 1
-------
General Integration Accuracy     IntAcc      ... 3.816
Radial Grid Type                 RadialGrid  ... OptM3 with GC (2021)
Angular Grid (max. ang.)         AngularGrid ... 1 (Lebedev-50)
Angular grid pruning method      GridPruning ... 4 (adaptive)
Weight generation scheme         WeightScheme... Becke
Basis function cutoff            BFCut       ... 1.0000e-11
Integration weight cutoff        WCut        ... 1.0000e-14
Angular grids for H and He will be reduced by one unit
Partially contracted basis set               ... on
Rotationally invariant grid construction     ... off

Total number of grid points                  ...    52340
Total number of batches                      ...      850
Average number of points per batch           ...       61
Average number of grid points per atom       ...      631
UseSFitting                                  ... on

GRIDX 2
-------
General Integration Accuracy     IntAcc      ... 4.020
Radial Grid Type                 RadialGrid  ... OptM3 with GC (2021)
Angular Grid (max. ang.)         AngularGrid ... 2 (Lebedev-110)
Angular grid pruning method      GridPruning ... 4 (adaptive)
Weight generation scheme         WeightScheme... Becke
Basis function cutoff            BFCut       ... 1.0000e-11
Integration weight cutoff        WCut        ... 1.0000e-14
Angular grids for H and He will be reduced by one unit
Partially contracted basis set               ... on
Rotationally invariant grid construction     ... off

Total number of grid points                  ...   114765
Total number of batches                      ...     1835
Average number of points per batch           ...       62
Average number of grid points per atom       ...     1383
UseSFitting                                  ... on

GRIDX 3
-------
General Integration Accuracy     IntAcc      ... 4.338
Radial Grid Type                 RadialGrid  ... OptM3 with GC (2021)
Angular Grid (max. ang.)         AngularGrid ... 3 (Lebedev-194)
Angular grid pruning method      GridPruning ... 4 (adaptive)
Weight generation scheme         WeightScheme... Becke
Basis function cutoff            BFCut       ... 1.0000e-11
Integration weight cutoff        WCut        ... 1.0000e-14
Angular grids for H and He will be reduced by one unit
Partially contracted basis set               ... on
Rotationally invariant grid construction     ... off

Total number of grid points                  ...   250766
Total number of batches                      ...     3963
Average number of points per batch           ...       63
Average number of grid points per atom       ...     3021
UseSFitting                                  ... on

Time for X-Grid setup             =   11.258 sec


--------------------
CPCM SOLVATION MODEL
--------------------
CPCM parameters:
  Epsilon                                         ...      35.6880
  Refrac                                          ...       1.3442
  Rsolv                                           ...       1.3000
  Surface type                                    ... GAUSSIAN VDW
  Epsilon function type                           ...         CPCM
Solvent:                                     ... ACETONITRILE
SMD-CDS solvent descriptors:
  Soln                                       ...    1.3442
  Soln25                                     ...    1.3416
  Sola                                       ...    0.0700
  Solb                                       ...    0.3200
  Solg                                       ...   41.2500
  Solc                                       ...    0.0000
  Solh                                       ...    0.0000
Radii:
 Radius for C  used is    3.4960 Bohr (=   1.8500 Ang.)
 Radius for H  used is    2.2677 Bohr (=   1.2000 Ang.)
 Radius for O  used is    4.0969 Bohr (=   2.1680 Ang.)
Calculating surface                               ...        done! (  0.0s)
GEPOL surface points                              ...         4365
GEPOL Volume                                      ...    4949.8138
GEPOL Surface-area                                ...    2435.4679
Calculating surface distance matrix               ...        done! (  0.3s)
Performing Cholesky decomposition & store         ...        done! (  2.0s)
Overall time for CPCM initialization              ...                 2.3s
--------------
SCF ITERATIONS
--------------
ITER       Energy         Delta-E        Max-DP      RMS-DP      [F,P]     Damp
               ***  Starting incremental Fock matrix formation  ***
  0  -2291.7497519980   0.000000000000 0.24351276  0.00105882  0.3007486 0.7000
  1  -2292.2584135277  -0.508661529661 0.25570158  0.00105931  0.1649866 0.7000
                               ***Turning on DIIS***
  2  -2292.5460466712  -0.287633143493 0.42037188  0.00203348  0.0778383 0.0000
  3  -2293.0719677221  -0.525921050966 0.26985170  0.00095557  0.0703096 0.0000
  4  -2293.1178037256  -0.045836003419 0.03097831  0.00017638  0.0157212 0.0000
  5  -2293.1201357144  -0.002331988804 0.03916232  0.00013416  0.0087348 0.0000
                      *** Initiating the SOSCF procedure ***
                           *** Shutting down DIIS ***
                      *** Re-Reading the Fockian *** 
                      *** Removing any level shift *** 
ITER      Energy       Delta-E        Grad      Rot      Max-DP    RMS-DP
  6  -2293.12069285  -0.0005571378  0.001171  0.001171  0.015193  0.000054
               *** Restarting incremental Fock matrix formation ***
  7  -2293.12112455  -0.0004316994  0.000754  0.002522  0.021296  0.000251
  8  -2293.12119408  -0.0000695280  0.000325  0.002396  0.008929  0.000101
  9  -2293.12121072  -0.0000166381  0.000130  0.000341  0.007462  0.000085
 10  -2293.12121572  -0.0000049984  0.000042  0.000114  0.000833  0.000008
 11  -2293.12121606  -0.0000003433  0.000019  0.000065  0.000915  0.000005
 12  -2293.12121619  -0.0000001281  0.000009  0.000063  0.000870  0.000003
 13  -2293.12121604   0.0000001429  0.000005  0.000034  0.000639  0.000003
                  ***Gradient check signals convergence***
              ***Rediagonalizing the Fockian in SOSCF/NRSCF***

               *****************************************************
               *                     SUCCESS                       *
               *           SCF CONVERGED AFTER  14 CYCLES          *
               *****************************************************

Old exchange energy                            =   -214.983597670 Eh
New exchange energy                            =   -214.983583012 Eh
Exchange energy change after final integration =      0.000014658 Eh
Total energy after final integration           =  -2293.121201495 Eh
Final COS-X integration done in                =   157.920 sec

SMD CDS free energy correction energy :               -12.26973     Kcal/mol
Total Energy after SMD CDS correction =             -2293.140754555 Eh

----------------
TOTAL SCF ENERGY
----------------

Total Energy       :        -2293.14075456 Eh          -62399.53226 eV

Components:
Nuclear Repulsion  :         6873.83967341 Eh          187046.68678 eV
Electronic Energy  :        -9166.98042796 Eh         -249446.21905 eV
One Electron Energy:       -16880.94917965 Eh         -459353.98028 eV
Two Electron Energy:         7713.96875169 Eh          209907.76124 eV
Max COSX asymmetry :            0.00000867 Eh               0.00024 eV
CPCM Dielectric    :           -0.26246617 Eh              -7.14207 eV
SMD CDS (Gcds)     :           -0.01955306 Eh              -0.53207 eV

Virial components:
Potential Energy   :        -4577.24374735 Eh         -124553.13452 eV
Kinetic Energy     :         2284.10299279 Eh           62153.60226 eV
Virial Ratio       :            2.00395681


DFT components:
N(Alpha)           :      185.000374723899 electrons
N(Beta)            :      185.000374723899 electrons
N(Total)           :      370.000749447799 electrons
E(X)               :      -96.222694573095 Eh       
E(C)               :       -8.396975325836 Eh       
E(XC)              :     -104.619669898931 Eh       
DFET-embed. en.    :        0.000000000000 Eh       
CPCM Solvation Model Properties:
Surface-charge          :            1.92209367
Charge-correction       :           -0.01243898 Eh              -0.33848 eV
Free-energy (cav+disp)  :           -0.01955306 Eh              -0.53207 eV

---------------
SCF CONVERGENCE
---------------

  Last Energy change         ...   -1.0833e-07  Tolerance :   1.0000e-08
  Last MAX-Density change    ...    2.9976e-15  Tolerance :   1.0000e-07
  Last RMS-Density change    ...    1.2515e-17  Tolerance :   5.0000e-09
  Last Orbital Gradient      ...    1.2548e-06  Tolerance :   1.0000e-05
  Last Orbital Rotation      ...    7.4336e-06  Tolerance :   1.0000e-05

             **** THE GBW FILE WAS UPDATED (Eos-3_M06L_def2TZVP_coords_Nanelkul.gbw) ****
             **** DENSITY Eos-3_M06L_def2TZVP_coords_Nanelkul.scfp WAS UPDATED ****
             **** ENERGY FILE WAS UPDATED (Eos-3_M06L_def2TZVP_coords_Nanelkul.en.tmp) ****
             **** THE GBW FILE WAS UPDATED (Eos-3_M06L_def2TZVP_coords_Nanelkul.gbw) ****
             **** DENSITY Eos-3_M06L_def2TZVP_coords_Nanelkul.scfp WAS UPDATED ****
----------------
ORBITAL ENERGIES
----------------

  NO   OCC          E(Eh)            E(eV) 
   0   2.0000     -20.064098      -545.9719 
   1   2.0000     -19.932952      -542.4032 
   2   2.0000     -19.932367      -542.3873 
   3   2.0000     -19.914122      -541.8908 
   4   2.0000     -19.913860      -541.8837 
   5   2.0000     -10.900282      -296.6118 
   6   2.0000     -10.898672      -296.5679 
   7   2.0000     -10.889058      -296.3063 
   8   2.0000     -10.879279      -296.0402 
   9   2.0000     -10.876256      -295.9580 
  10   2.0000     -10.870728      -295.8076 
  11   2.0000     -10.833437      -294.7928 
  12   2.0000     -10.824963      -294.5622 
  13   2.0000     -10.824944      -294.5617 
  14   2.0000     -10.824764      -294.5568 
  15   2.0000     -10.824688      -294.5547 
  16   2.0000     -10.824617      -294.5528 
  17   2.0000     -10.824281      -294.5436 
  18   2.0000     -10.824087      -294.5384 
  19   2.0000     -10.823674      -294.5272 
  20   2.0000     -10.823246      -294.5155 
  21   2.0000     -10.823212      -294.5146 
  22   2.0000     -10.823163      -294.5132 
  23   2.0000     -10.819954      -294.4259 
  24   2.0000     -10.819774      -294.4210 
  25   2.0000     -10.819372      -294.4101 
  26   2.0000     -10.818061      -294.3744 
  27   2.0000     -10.816454      -294.3307 
  28   2.0000     -10.816309      -294.3267 
  29   2.0000     -10.815891      -294.3154 
  30   2.0000     -10.815533      -294.3056 
  31   2.0000     -10.815386      -294.3016 
  32   2.0000     -10.815305      -294.2994 
  33   2.0000     -10.815007      -294.2913 
  34   2.0000     -10.814940      -294.2895 
  35   2.0000     -10.814905      -294.2885 
  36   2.0000     -10.814367      -294.2739 
  37   2.0000     -10.814237      -294.2703 
  38   2.0000     -10.813989      -294.2636 
  39   2.0000     -10.813482      -294.2498 
  40   2.0000     -10.813032      -294.2376 
  41   2.0000     -10.812665      -294.2276 
  42   2.0000     -10.812562      -294.2248 
  43   2.0000     -10.812414      -294.2207 
  44   2.0000     -10.812375      -294.2197 
  45   2.0000     -10.811590      -294.1983 
  46   2.0000     -10.811223      -294.1883 
  47   2.0000     -10.811215      -294.1881 
  48   2.0000     -10.810342      -294.1644 
  49   2.0000     -10.809801      -294.1496 
  50   2.0000     -10.809345      -294.1372 
  51   2.0000     -10.808240      -294.1072 
  52   2.0000     -10.804692      -294.0106 
  53   2.0000     -10.804010      -293.9921 
  54   2.0000     -10.797260      -293.8084 
  55   2.0000      -1.333899       -36.2972 
  56   2.0000      -1.227489       -33.4017 
  57   2.0000      -1.207513       -32.8581 
  58   2.0000      -1.203840       -32.7581 
  59   2.0000      -1.128879       -30.7184 
  60   2.0000      -1.073684       -29.2164 
  61   2.0000      -1.071555       -29.1585 
  62   2.0000      -1.071275       -29.1509 
  63   2.0000      -1.070055       -29.1177 
  64   2.0000      -1.049307       -28.5531 
  65   2.0000      -1.039852       -28.2958 
  66   2.0000      -1.016615       -27.6635 
  67   2.0000      -1.015067       -27.6214 
  68   2.0000      -1.005803       -27.3693 
  69   2.0000      -0.975462       -26.5437 
  70   2.0000      -0.963288       -26.2124 
  71   2.0000      -0.953374       -25.9426 
  72   2.0000      -0.949814       -25.8458 
  73   2.0000      -0.946018       -25.7425 
  74   2.0000      -0.935673       -25.4609 
  75   2.0000      -0.925017       -25.1710 
  76   2.0000      -0.924266       -25.1506 
  77   2.0000      -0.913029       -24.8448 
  78   2.0000      -0.901737       -24.5375 
  79   2.0000      -0.893951       -24.3256 
  80   2.0000      -0.891457       -24.2578 
  81   2.0000      -0.884208       -24.0605 
  82   2.0000      -0.872667       -23.7465 
  83   2.0000      -0.867974       -23.6188 
  84   2.0000      -0.805739       -21.9253 
  85   2.0000      -0.800490       -21.7824 
  86   2.0000      -0.784911       -21.3585 
  87   2.0000      -0.777452       -21.1555 
  88   2.0000      -0.767214       -20.8770 
  89   2.0000      -0.764047       -20.7908 
  90   2.0000      -0.760736       -20.7007 
  91   2.0000      -0.756781       -20.5931 
  92   2.0000      -0.751573       -20.4513 
  93   2.0000      -0.742253       -20.1977 
  94   2.0000      -0.733210       -19.9517 
  95   2.0000      -0.732412       -19.9299 
  96   2.0000      -0.730996       -19.8914 
  97   2.0000      -0.715891       -19.4804 
  98   2.0000      -0.711709       -19.3666 
  99   2.0000      -0.673442       -18.3253 
 100   2.0000      -0.663078       -18.0433 
 101   2.0000      -0.658555       -17.9202 
 102   2.0000      -0.646262       -17.5857 
 103   2.0000      -0.633434       -17.2366 
 104   2.0000      -0.631871       -17.1941 
 105   2.0000      -0.631344       -17.1797 
 106   2.0000      -0.630616       -17.1599 
 107   2.0000      -0.623910       -16.9775 
 108   2.0000      -0.621944       -16.9239 
 109   2.0000      -0.616153       -16.7664 
 110   2.0000      -0.602678       -16.3997 
 111   2.0000      -0.598222       -16.2785 
 112   2.0000      -0.595575       -16.2064 
 113   2.0000      -0.588705       -16.0195 
 114   2.0000      -0.584490       -15.9048 
 115   2.0000      -0.571839       -15.5605 
 116   2.0000      -0.570792       -15.5320 
 117   2.0000      -0.561297       -15.2737 
 118   2.0000      -0.559868       -15.2348 
 119   2.0000      -0.553034       -15.0488 
 120   2.0000      -0.552749       -15.0411 
 121   2.0000      -0.551868       -15.0171 
 122   2.0000      -0.548546       -14.9267 
 123   2.0000      -0.545467       -14.8429 
 124   2.0000      -0.539707       -14.6862 
 125   2.0000      -0.536562       -14.6006 
 126   2.0000      -0.535701       -14.5772 
 127   2.0000      -0.528932       -14.3930 
 128   2.0000      -0.523860       -14.2549 
 129   2.0000      -0.521650       -14.1948 
 130   2.0000      -0.519369       -14.1328 
 131   2.0000      -0.516845       -14.0641 
 132   2.0000      -0.516412       -14.0523 
 133   2.0000      -0.515163       -14.0183 
 134   2.0000      -0.512591       -13.9483 
 135   2.0000      -0.509475       -13.8635 
 136   2.0000      -0.507529       -13.8106 
 137   2.0000      -0.505779       -13.7629 
 138   2.0000      -0.501193       -13.6382 
 139   2.0000      -0.493775       -13.4363 
 140   2.0000      -0.491384       -13.3712 
 141   2.0000      -0.488687       -13.2978 
 142   2.0000      -0.485174       -13.2023 
 143   2.0000      -0.483895       -13.1674 
 144   2.0000      -0.476954       -12.9786 
 145   2.0000      -0.475257       -12.9324 
 146   2.0000      -0.469585       -12.7781 
 147   2.0000      -0.466353       -12.6901 
 148   2.0000      -0.463030       -12.5997 
 149   2.0000      -0.461401       -12.5554 
 150   2.0000      -0.459104       -12.4929 
 151   2.0000      -0.453665       -12.3449 
 152   2.0000      -0.446110       -12.1393 
 153   2.0000      -0.437152       -11.8955 
 154   2.0000      -0.431762       -11.7488 
 155   2.0000      -0.430966       -11.7272 
 156   2.0000      -0.428082       -11.6487 
 157   2.0000      -0.422067       -11.4850 
 158   2.0000      -0.418761       -11.3951 
 159   2.0000      -0.417811       -11.3692 
 160   2.0000      -0.415046       -11.2940 
 161   2.0000      -0.414302       -11.2737 
 162   2.0000      -0.410784       -11.1780 
 163   2.0000      -0.405899       -11.0451 
 164   2.0000      -0.404165       -10.9979 
 165   2.0000      -0.361794        -9.8449 
 166   2.0000      -0.358829        -9.7642 
 167   2.0000      -0.358471        -9.7545 
 168   2.0000      -0.344154        -9.3649 
 169   2.0000      -0.339235        -9.2311 
 170   2.0000      -0.337096        -9.1728 
 171   2.0000      -0.334255        -9.0955 
 172   2.0000      -0.330493        -8.9932 
 173   2.0000      -0.326235        -8.8773 
 174   2.0000      -0.320171        -8.7123 
 175   2.0000      -0.314182        -8.5493 
 176   2.0000      -0.307090        -8.3564 
 177   2.0000      -0.300991        -8.1904 
 178   2.0000      -0.296787        -8.0760 
 179   2.0000      -0.286709        -7.8017 
 180   2.0000      -0.280935        -7.6446 
 181   2.0000      -0.269363        -7.3297 
 182   2.0000      -0.262163        -7.1338 
 183   2.0000      -0.251846        -6.8531 
 184   2.0000      -0.220121        -5.9898 
 185   0.0000      -0.011873        -0.3231 
 186   0.0000       0.021966         0.5977 
 187   0.0000       0.026309         0.7159 
 188   0.0000       0.028881         0.7859 
 189   0.0000       0.044140         1.2011 
 190   0.0000       0.049056         1.3349 
 191   0.0000       0.054516         1.4835 
 192   0.0000       0.059472         1.6183 
 193   0.0000       0.062792         1.7087 
 194   0.0000       0.087406         2.3784 
 195   0.0000       0.093914         2.5555 
 196   0.0000       0.096761         2.6330 
 197   0.0000       0.100569         2.7366 
 198   0.0000       0.104082         2.8322 
 199   0.0000       0.109054         2.9675 
 200   0.0000       0.117957         3.2098 
 201   0.0000       0.122981         3.3465 
 202   0.0000       0.127250         3.4626 
 203   0.0000       0.130262         3.5446 
 204   0.0000       0.133918         3.6441 
 205   0.0000       0.138946         3.7809 
 206   0.0000       0.142816         3.8862 
 207   0.0000       0.143411         3.9024 
 208   0.0000       0.147252         4.0069 
 209   0.0000       0.149101         4.0572 
 210   0.0000       0.150793         4.1033 
 211   0.0000       0.157383         4.2826 
 212   0.0000       0.160498         4.3674 
 213   0.0000       0.162301         4.4164 
 214   0.0000       0.164827         4.4852 
 215   0.0000       0.167013         4.5447 
 216   0.0000       0.170969         4.6523 
 217   0.0000       0.172437         4.6923 
 218   0.0000       0.174976         4.7613 
 219   0.0000       0.178233         4.8500 
 220   0.0000       0.179227         4.8770 
 221   0.0000       0.180554         4.9131 
 222   0.0000       0.183228         4.9859 
 223   0.0000       0.186679         5.0798 
 224   0.0000       0.187899         5.1130 
 225   0.0000       0.190124         5.1735 
 226   0.0000       0.191258         5.2044 
 227   0.0000       0.192168         5.2292 
 228   0.0000       0.195497         5.3197 
 229   0.0000       0.199287         5.4229 
 230   0.0000       0.201281         5.4771 
 231   0.0000       0.203638         5.5413 
 232   0.0000       0.205864         5.6019 
 233   0.0000       0.214460         5.8358 
 234   0.0000       0.217475         5.9178 
 235   0.0000       0.221173         6.0184 
 236   0.0000       0.225611         6.1392 
 237   0.0000       0.228780         6.2254 
 238   0.0000       0.233464         6.3529 
 239   0.0000       0.236565         6.4372 
 240   0.0000       0.237279         6.4567 
 241   0.0000       0.240194         6.5360 
 242   0.0000       0.241085         6.5603 
 243   0.0000       0.244549         6.6545 
 244   0.0000       0.247233         6.7276 
 245   0.0000       0.249627         6.7927 
 246   0.0000       0.251239         6.8366 
 247   0.0000       0.256126         6.9695 
 248   0.0000       0.259508         7.0616 
 249   0.0000       0.260271         7.0823 
 250   0.0000       0.263468         7.1693 
 251   0.0000       0.266393         7.2489 
 252   0.0000       0.266912         7.2631 
 253   0.0000       0.268308         7.3010 
 254   0.0000       0.271792         7.3958 
 255   0.0000       0.274700         7.4750 
 256   0.0000       0.277376         7.5478 
 257   0.0000       0.280340         7.6284 
 258   0.0000       0.281986         7.6732 
 259   0.0000       0.284137         7.7318 
 260   0.0000       0.287472         7.8225 
 261   0.0000       0.288890         7.8611 
 262   0.0000       0.292703         7.9648 
 263   0.0000       0.294178         8.0050 
 264   0.0000       0.296462         8.0671 
 265   0.0000       0.301236         8.1971 
 266   0.0000       0.302427         8.2295 
 267   0.0000       0.305676         8.3179 
 268   0.0000       0.308622         8.3980 
 269   0.0000       0.311677         8.4812 
 270   0.0000       0.313688         8.5359 
 271   0.0000       0.316230         8.6051 
 272   0.0000       0.317482         8.6391 
 273   0.0000       0.319428         8.6921 
 274   0.0000       0.321194         8.7401 
 275   0.0000       0.323241         8.7958 
 276   0.0000       0.326643         8.8884 
 277   0.0000       0.328453         8.9376 
 278   0.0000       0.329870         8.9762 
 279   0.0000       0.332291         9.0421 
 280   0.0000       0.332898         9.0586 
 281   0.0000       0.334280         9.0962 
 282   0.0000       0.336553         9.1581 
 283   0.0000       0.340368         9.2619 
 284   0.0000       0.340957         9.2779 
 285   0.0000       0.343136         9.3372 
 286   0.0000       0.344930         9.3860 
 287   0.0000       0.346611         9.4318 
 288   0.0000       0.349169         9.5014 
 289   0.0000       0.352713         9.5978 
 290   0.0000       0.354458         9.6453 
 291   0.0000       0.355769         9.6810 
 292   0.0000       0.357799         9.7362 
[...]
   184a -> 189a  :     0.011513 
   184a -> 190a  :     0.292180 
   184a -> 192a  :     0.022655 
   184a -> 193a  :     0.047728 
   184a -> 194a  :     0.018289 
   184a -> 197a  :     0.011387 
   184a -> 198a  :     0.018286 

STATE 19:  E=   0.163243 au      4.442 eV    35827.7 cm**-1 <S**2> =   0.000000
   174a -> 185a  :     0.010585 
   175a -> 185a  :     0.017557 
   176a -> 185a  :     0.016850 
   179a -> 185a  :     0.024318 
   179a -> 189a  :     0.025307 
   179a -> 191a  :     0.014183 
   180a -> 191a  :     0.018782 
   181a -> 189a  :     0.027901 
   182a -> 185a  :     0.013638 
   182a -> 186a  :     0.012481 
   182a -> 189a  :     0.011163 
   183a -> 186a  :     0.019626 
   183a -> 187a  :     0.016845 
   183a -> 188a  :     0.011516 
   183a -> 190a  :     0.016704 
   184a -> 186a  :     0.102309 
   184a -> 189a  :     0.303300 
   184a -> 191a  :     0.039728 
   184a -> 192a  :     0.047797 
   184a -> 193a  :     0.013778 
   184a -> 199a  :     0.016191 

STATE 20:  E=   0.165653 au      4.508 eV    36356.7 cm**-1 <S**2> =   0.000000
   170a -> 185a  :     0.037976 
   172a -> 185a  :     0.031061 
   174a -> 185a  :     0.083191 
   174a -> 192a  :     0.022429 
   175a -> 185a  :     0.036630 
   175a -> 192a  :     0.017187 
   176a -> 185a  :     0.132227 
   176a -> 192a  :     0.017123 
   177a -> 193a  :     0.062992 
   180a -> 185a  :     0.021167 
   181a -> 185a  :     0.173730 
   181a -> 188a  :     0.014850 
   183a -> 185a  :     0.021909 
   183a -> 187a  :     0.012262 
   183a -> 190a  :     0.020213 
   184a -> 189a  :     0.026829 
   184a -> 194a  :     0.025225 

STATE 21:  E=   0.168356 au      4.581 eV    36949.9 cm**-1 <S**2> =   0.000000
   179a -> 185a  :     0.031178 
   179a -> 186a  :     0.021860 
   179a -> 189a  :     0.030307 
   179a -> 191a  :     0.015799 
   180a -> 185a  :     0.033477 
   180a -> 187a  :     0.049716 
   181a -> 185a  :     0.079949 
   181a -> 186a  :     0.017861 
   181a -> 187a  :     0.014681 
   181a -> 189a  :     0.014745 
   182a -> 190a  :     0.012637 
   183a -> 185a  :     0.011250 
   183a -> 187a  :     0.070373 
   183a -> 190a  :     0.050915 
   184a -> 187a  :     0.013440 
   184a -> 188a  :     0.089519 
   184a -> 189a  :     0.045211 
   184a -> 191a  :     0.041971 
   184a -> 192a  :     0.024954 
   184a -> 193a  :     0.026397 
   184a -> 194a  :     0.044545 
   184a -> 196a  :     0.020603 
   184a -> 197a  :     0.019315 
   184a -> 198a  :     0.011051 

STATE 22:  E=   0.168239 au      4.578 eV    36924.1 cm**-1 <S**2> =   0.000000
   174a -> 185a  :     0.013892 
   175a -> 185a  :     0.015859 
   176a -> 185a  :     0.010392 
   178a -> 185a  :     0.016584 
   179a -> 185a  :     0.027287 
   179a -> 186a  :     0.040367 
   179a -> 188a  :     0.028053 
   180a -> 185a  :     0.011841 
   181a -> 185a  :     0.080624 
   181a -> 186a  :     0.010799 
   181a -> 189a  :     0.016385 
   182a -> 185a  :     0.026805 
   182a -> 186a  :     0.011805 
   182a -> 189a  :     0.010952 
   183a -> 188a  :     0.012453 
   183a -> 191a  :     0.017984 
   184a -> 192a  :     0.408828 
   184a -> 193a  :     0.017845 
   184a -> 194a  :     0.014420 

STATE 23:  E=   0.168134 au      4.575 eV    36901.2 cm**-1 <S**2> =   0.000000
   168a -> 185a  :     0.013349 
   174a -> 185a  :     0.135127 
   174a -> 192a  :     0.011068 
   177a -> 185a  :     0.010419 
   177a -> 193a  :     0.033773 
   178a -> 185a  :     0.046385 
   179a -> 185a  :     0.030088 
   179a -> 189a  :     0.010618 
   181a -> 185a  :     0.178181 
   181a -> 189a  :     0.015737 
   182a -> 191a  :     0.012697 
   183a -> 186a  :     0.012103 
   183a -> 190a  :     0.012070 
   184a -> 189a  :     0.010270 
   184a -> 191a  :     0.148373 
   184a -> 193a  :     0.030015 
   184a -> 194a  :     0.021190 

STATE 24:  E=   0.161963 au      4.407 eV    35546.9 cm**-1 <S**2> =   0.000000
   166a -> 185a  :     0.016219 
   171a -> 185a  :     0.015468 
   174a -> 185a  :     0.013109 
   175a -> 185a  :     0.057991 
   176a -> 185a  :     0.017453 
   180a -> 185a  :     0.514382 
   180a -> 187a  :     0.013536 
   183a -> 185a  :     0.101628 
   183a -> 190a  :     0.022053 
   184a -> 192a  :     0.010764 
   184a -> 193a  :     0.026459 
   184a -> 194a  :     0.011413 

STATE 25:  E=   0.171272 au      4.661 eV    37589.8 cm**-1 <S**2> =   0.000000
   169a -> 185a  :     0.014954 
   174a -> 185a  :     0.010235 
   178a -> 185a  :     0.024610 
   179a -> 185a  :     0.073034 
   179a -> 186a  :     0.014700 
   179a -> 188a  :     0.029437 
   179a -> 189a  :     0.016865 
   180a -> 188a  :     0.011783 
   180a -> 191a  :     0.012509 
   180a -> 194a  :     0.010482 
   181a -> 185a  :     0.077018 
   181a -> 191a  :     0.017102 
   182a -> 185a  :     0.065393 
   182a -> 189a  :     0.013956 
   183a -> 186a  :     0.040876 
   183a -> 188a  :     0.010715 
   183a -> 189a  :     0.016507 
   183a -> 191a  :     0.016320 
   183a -> 194a  :     0.018370 
   184a -> 190a  :     0.032221 
   184a -> 191a  :     0.215403 
   184a -> 192a  :     0.045859 

STATE 26:  E=   0.176027 au      4.790 eV    38633.5 cm**-1 <S**2> =   0.000000
   174a -> 185a  :     0.056615 
   179a -> 186a  :     0.047606 
   179a -> 188a  :     0.067638 
   180a -> 188a  :     0.012601 
   180a -> 189a  :     0.014011 
   180a -> 191a  :     0.013494 
   181a -> 189a  :     0.044227 
   181a -> 191a  :     0.017227 
   182a -> 185a  :     0.020205 
   182a -> 186a  :     0.032755 
   182a -> 191a  :     0.015404 
   183a -> 188a  :     0.097316 
   183a -> 191a  :     0.035410 
   184a -> 191a  :     0.034608 
   184a -> 192a  :     0.199697 
   184a -> 193a  :     0.035023 
   184a -> 199a  :     0.010903 

STATE 27:  E=   0.177383 au      4.827 eV    38931.0 cm**-1 <S**2> =   0.000000
   178a -> 186a  :     0.010265 
   179a -> 190a  :     0.011080 
   180a -> 186a  :     0.015644 
   180a -> 188a  :     0.015412 
   180a -> 190a  :     0.057022 
   181a -> 187a  :     0.017602 
   181a -> 190a  :     0.048011 
   181a -> 193a  :     0.010550 
   183a -> 187a  :     0.162040 
   183a -> 195a  :     0.011738 
   184a -> 190a  :     0.051903 
   184a -> 191a  :     0.019637 
   184a -> 192a  :     0.025758 
   184a -> 193a  :     0.300209 
   184a -> 194a  :     0.028979 

STATE 28:  E=   0.176656 au      4.807 eV    38771.5 cm**-1 <S**2> =   0.000000
   173a -> 185a  :     0.010292 
   175a -> 193a  :     0.011637 
   176a -> 193a  :     0.010133 
   177a -> 185a  :     0.013270 
   177a -> 192a  :     0.015430 
   179a -> 185a  :     0.010079 
   180a -> 185a  :     0.032424 
   181a -> 187a  :     0.019116 
   182a -> 189a  :     0.016506 
   183a -> 187a  :     0.046922 
   183a -> 189a  :     0.011551 
   184a -> 192a  :     0.048447 
   184a -> 193a  :     0.304227 
   184a -> 194a  :     0.170761 
   184a -> 196a  :     0.016284 
   184a -> 197a  :     0.023093 
   184a -> 198a  :     0.011816 

STATE 29:  E=   0.175293 au      4.770 eV    38472.3 cm**-1 <S**2> =   0.000000
   165a -> 185a  :     0.011489 
   169a -> 185a  :     0.016800 
   170a -> 185a  :     0.025731 
   177a -> 192a  :     0.010785 
   178a -> 185a  :     0.053803 
   179a -> 185a  :     0.193133 
   179a -> 186a  :     0.012645 
   180a -> 185a  :     0.014204 
   181a -> 189a  :     0.012284 
   182a -> 185a  :     0.053865 
   182a -> 186a  :     0.011370 
   182a -> 191a  :     0.022825 
   183a -> 186a  :     0.010372 
   183a -> 187a  :     0.026123 
   183a -> 188a  :     0.017305 
   183a -> 191a  :     0.028668 
   184a -> 189a  :     0.011044 
   184a -> 191a  :     0.081729 
   184a -> 194a  :     0.046479 
   184a -> 196a  :     0.017261 
   184a -> 199a  :     0.023417 

STATE 30:  E=   0.187892 au      5.113 eV    41237.5 cm**-1 <S**2> =   0.000000
   174a -> 193a  :     0.016043 
   175a -> 193a  :     0.018067 
   176a -> 193a  :     0.039411 
   177a -> 185a  :     0.071233 
   177a -> 186a  :     0.027297 
   177a -> 189a  :     0.065151 
   177a -> 192a  :     0.368501 
   177a -> 193a  :     0.022629 
   178a -> 192a  :     0.024778 
   184a -> 193a  :     0.052337 


-------------------------
TD-DFT-EXCITATION SPECTRA
-------------------------

Center of mass = (  0.0099,  0.0353,  0.0133)
Calculating the Dipole integrals                  ... done
Transforming integrals                            ... done
Calculating the Linear Momentum integrals         ... done
Transforming integrals                            ... done
Calculating angular momentum integrals            ... done
Transforming integrals                            ... done

-----------------------------------------------------------------------------
         ABSORPTION SPECTRUM VIA TRANSITION ELECTRIC DIPOLE MOMENTS
-----------------------------------------------------------------------------
State   Energy    Wavelength  fosc         T2        TX        TY        TZ  
        (cm-1)      (nm)                 (au**2)    (au)      (au)      (au) 
-----------------------------------------------------------------------------
   1   18714.3    534.4   0.933451408  16.42079  -2.85575   2.86672  -0.21777
   2   26626.9    375.6   0.249871420   3.08938   1.72228   0.05414  -0.34670
   3   27325.0    366.0   0.081602069   0.98314  -0.82236   0.47721   0.28130
   4   30128.1    331.9   0.121133226   1.32363   0.99635   0.52278  -0.24001
   5   32708.2    305.7   0.132343716   1.33206   0.82245   0.78306  -0.20602
   6   31256.1    319.9   0.052337341   0.55125  -0.54891  -0.44562   0.22665
   7   31891.9    313.6   0.066267721   0.68407  -0.41534  -0.68979  -0.18907
   8   32567.2    307.1   0.013845965   0.13996   0.02770   0.33878   0.15628
   9   34908.2    286.5   0.103081253   0.97214   0.07471   0.68362   0.70656
  10   34814.1    287.2   0.057736933   0.54598  -0.24753   0.63933   0.27562
  11   32102.2    311.5   0.430660726   4.41648  -1.78317  -1.10624  -0.11408
  12   30008.8    333.2   0.001190818   0.01306  -0.03420   0.09443   0.05455
  13   30933.9    323.3   0.055795949   0.59380   0.63736   0.41942   0.10798
  14   33789.4    296.0   0.157731659   1.53679   1.11622   0.51368   0.16421
  15   33928.2    294.7   0.046345091   0.44970   0.29124  -0.60251  -0.04312
  16   35549.9    281.3   0.239995834   2.22250  -1.09043   1.01028  -0.11311
  17   33714.7    296.6   0.085216166   0.83210   0.08596   0.85695  -0.30058
  18   35268.5    283.5   0.129274977   1.20671  -0.38416  -1.02655   0.07294
  19   35827.7    279.1   0.064317554   0.59100   0.53627   0.50322   0.22402
  20   36356.7    275.1   0.067824619   0.61416  -0.40893  -0.62834  -0.22830
  21   36949.9    270.6   0.150417743   1.34017   0.96251   0.63775  -0.08377
  22   36924.1    270.8   0.507137157   4.52159   2.12050   0.11212  -0.11171
  23   36901.2    271.0   0.041986053   0.37458   0.54636  -0.26437  -0.07859
  24   35546.9    281.3   0.089757999   0.83128  -0.86368  -0.29211  -0.00368
  25   37589.8    266.0   0.289271365   2.53344   0.91790  -1.29863  -0.06673
  26   38633.5    258.8   0.913438961   7.78380   2.68884  -0.70476  -0.23929
  27   38931.0    256.9   0.196521836   1.66185   1.14688   0.32217  -0.49266
  28   38771.5    257.9   0.072515943   0.61574   0.02696   0.77487  -0.12078
  29   38472.3    259.9   0.038242277   0.32724   0.48634  -0.30062  -0.01847
  30   41237.5    242.5   0.065130667   0.51996  -0.10021  -0.63205   0.33232

-----------------------------------------------------------------------------
         ABSORPTION SPECTRUM VIA TRANSITION VELOCITY DIPOLE MOMENTS
-----------------------------------------------------------------------------
State   Energy    Wavelength   fosc        P2         PX        PY        PZ  
        (cm-1)      (nm)                 (au**2)     (au)      (au)      (au) 
-----------------------------------------------------------------------------
   1   18714.3    534.4   1.539687438   0.19693   0.31262  -0.31403   0.02413
   2   26626.9    375.6   0.356968229   0.06496  -0.24959  -0.00704   0.05114
   3   27325.0    366.0   0.126604457   0.02364   0.12719  -0.07433  -0.04406
   4   30128.1    331.9   0.160100373   0.03297  -0.15737  -0.08194   0.03856
   5   32708.2    305.7   0.159458679   0.03565  -0.13484  -0.12771   0.03398
   6   31256.1    319.9   0.071034281   0.01517   0.09027   0.07445  -0.03852
   7   31891.9    313.6   0.094473389   0.02059   0.07294   0.11908   0.03306
   8   32567.2    307.1   0.019493235   0.00434  -0.00619  -0.05962  -0.02731
   9   34908.2    286.5   0.126662969   0.03022  -0.01331  -0.12050  -0.12459
  10   34814.1    287.2   0.070943519   0.01688   0.04329  -0.11224  -0.04907
  11   32102.2    311.5   0.613473627   0.13460   0.31141   0.19291   0.02013
  12   30008.8    333.2   0.002146944   0.00044   0.00614  -0.01741  -0.00998
  13   30933.9    323.3   0.092747797   0.01961  -0.11574  -0.07638  -0.01944
  14   33789.4    296.0   0.226836881   0.05238  -0.20576  -0.09540  -0.03077
  15   33928.2    294.7   0.068145968   0.01580  -0.05570   0.11241   0.00793
  16   35549.9    281.3   0.331811250   0.08062   0.20744  -0.19263   0.02190
  17   33714.7    296.6   0.134066512   0.03089  -0.01570  -0.16515   0.05806
  18   35268.5    283.5   0.191220742   0.04609   0.07520   0.20066  -0.01314
  19   35827.7    279.1   0.094385629   0.02311  -0.10541  -0.09948  -0.04588
  20   36356.7    275.1   0.097832298   0.02431   0.08177   0.12466   0.04564
  21   36949.9    270.6   0.210881950   0.05325  -0.19137  -0.12790   0.01655
  22   36924.1    270.8   0.731697073   0.18465  -0.42849  -0.02425   0.02148
  23   36901.2    271.0   0.061413077   0.01549  -0.11190   0.05234   0.01506
  24   35546.9    281.3   0.144119951   0.03501   0.17710   0.06040   0.00075
  25   37589.8    266.0   0.416870677   0.10710  -0.18974   0.26629   0.01362
  26   38633.5    258.8   1.258451240   0.33228  -0.55565   0.14534   0.04908
  27   38931.0    256.9   0.276696983   0.07362  -0.24088  -0.06730   0.10522
  28   38771.5    257.9   0.103938740   0.02754  -0.00664  -0.16367   0.02665
  29   38472.3    259.9   0.056764046   0.01493  -0.10412   0.06378   0.00396
  30   41237.5    242.5   0.085464522   0.02409   0.02217   0.13655  -0.07035

-------------------------------------------------------------------
                             CD SPECTRUM
-------------------------------------------------------------------
State  Energy     Wavelength     R         MX        MY        MZ   
       (cm-1)       (nm)     (1e40*cgs)   (au)      (au)      (au)  
-------------------------------------------------------------------
   1   18714.3    534.4    -139.72378   0.06948   0.06582   1.31620
   2   26626.9    375.6    168.73241   0.15727   0.02793  -0.24666
   3   27325.0    366.0     13.48457  -0.11297  -0.15652   0.03693
   4   30128.1    331.9    -57.33380  -0.00233  -0.41874  -0.41507
   5   32708.2    305.7    -243.42974   0.20156  -0.59937   1.03280
   6   31256.1    319.9     60.58437  -0.25796   0.09125   0.12165
   7   31891.9    313.6    -36.30477   0.12199  -0.00000   0.13930
   8   32567.2    307.1     19.67110  -0.05778  -0.03206   0.34672
   9   34908.2    286.5     77.74277  -0.36452   0.03769   0.23547
  10   34814.1    287.2     34.45316   0.19796   0.46647  -0.63911
  11   32102.2    311.5     49.99537  -0.12415   0.04871   0.53862
  12   30008.8    333.2     -2.78024   0.27396   0.14158  -0.18142
  13   30933.9    323.3     -6.06849  -0.07627   0.20486  -0.46470
  14   33789.4    296.0    -43.86311   0.21138  -0.31694  -1.01203
  15   33928.2    294.7     27.61063  -0.04955  -0.15480   0.47015
  16   35549.9    281.3    -70.44212   0.13894   0.15366   1.35402
  17   33714.7    296.6    157.73853  -0.22383   0.39513  -0.05060
  18   35268.5    283.5    173.16584   0.02723  -0.37818  -0.14334
  19   35827.7    279.1    -110.11961  -0.21745  -0.02331  -0.46977
  20   36356.7    275.1    -14.11146  -0.07157  -0.08279   0.48715
  21   36949.9    270.6    202.53809   0.12920   0.30717  -1.30535
  22   36924.1    270.8    -57.52453  -0.04438  -0.15332   0.09600
  23   36901.2    271.0      6.20927   0.08120  -0.12690   0.82382
  24   35546.9    281.3     15.09557  -0.01633  -0.06586   0.35926
  25   37589.8    266.0    -265.90909  -0.08276   0.38735  -0.22426
  26   38633.5    258.8    294.85735   0.29359   0.15790   0.22022
  27   38931.0    256.9    -104.08528   0.08431  -0.65041   0.21907
  28   38771.5    257.9    -60.96517  -0.13090  -0.13982   0.14444
  29   38472.3    259.9     23.08360   0.05837  -0.06968   0.02023
  30   41237.5    242.5    -38.63329   0.40603  -0.16940  -0.44635

Total run time:   272825.529 sec

           *** ORCA-CIS/TD-DFT FINISHED WITHOUT ERROR ***

Maximum memory used throughout the entire CIS-calculation: 15132.0 MB

-----------------------
CIS/TD-DFT TOTAL ENERGY
-----------------------

    E(SCF)  =  -2293.140754555 Eh
    DE(CIS) =      0.085268576 Eh (Root  1)
    ----------------------------- ---------
    E(tot)  =  -2293.055485979 Eh


-------------------------   --------------------
FINAL SINGLE POINT ENERGY     -2293.055485979229
-------------------------   --------------------


                            ***************************************
                            *     ORCA property calculations      *
                            ***************************************


  WARNING: The energy has been calculated at the MP2 level but the densities
           used in the property calculations are still SCF densities
           MP2 response densities have not been calculated 
           use %mp2 Density relaxed end
           or  %mp2 Density unrelaxed end

                                    ---------------------
                                    Active property flags
                                    ---------------------
   (+) Dipole Moment


------------------------------------------------------------------------------
                       ORCA ELECTRIC PROPERTIES CALCULATION
------------------------------------------------------------------------------

Dipole Moment Calculation                       ... on
Quadrupole Moment Calculation                   ... off
Polarizability Calculation                      ... off
GBWName                                         ... Eos-3_M06L_def2TZVP_coords_Nanelkul.gbw
Electron density                                ... Eos-3_M06L_def2TZVP_coords_Nanelkul.scfp
The origin for moment calculation is the CENTER OF MASS  = ( 0.009861,  0.035296  0.013346)

-------------
DIPOLE MOMENT
-------------
                                X             Y             Z
Electronic contribution:      1.90103       9.14284       0.48434
Nuclear contribution   :     -3.62887     -12.98899      -4.91127
                        -----------------------------------------
Total Dipole Moment    :     -1.72784      -3.84615      -4.42693
                        -----------------------------------------
Magnitude (a.u.)       :      6.11359
Magnitude (Debye)      :     15.53951



--------------------
Rotational spectrum 
--------------------
 
Rotational constants in cm-1:     0.002528     0.001161     0.000850 
Rotational constants in MHz :    75.778822    34.796270    25.496660 

 Dipole components along the rotational axes: 
x,y,z [a.u.] :     1.718435    -3.853437    -4.424247 
x,y,z [Debye]:     4.367916    -9.794658   -11.245542 

 

Timings for individual modules:

Sum of individual times         ...   282795.172 sec (=4713.253 min)
GTO integral calculation        ...        8.263 sec (=   0.138 min)   0.0 %
SCF iterations                  ...     1258.266 sec (=  20.971 min)   0.4 %
MP2 module                      ...     8697.508 sec (= 144.958 min)   3.1 %
CIS module                      ...   272831.136 sec (=4547.186 min)  96.5 %
                             ****ORCA TERMINATED NORMALLY****
TOTAL RUN TIME: 3 days 6 hours 36 minutes 4 seconds 210 msec
