 Entering Gaussian System, Link 0=g09
 Input=/home/png4rjv/fotokatalizis/benchmark/OPCs/CA_50_states/CA_2b_B3LYP-D3_def2TZVP.gjf
 Output=/home/png4rjv/fotokatalizis/benchmark/OPCs/CA_50_states/CA_2b_B3LYP-D3_def2TZVP.log
 Initial command:
 /opt/nce/packages/global/g09/l1.exe "/home/png4rjv/fotokatalizis/benchmark/OPCs/CA_50_states/CA_2b_B3LYP-D3_def2TZVP/Gau-11807.inp" -scrdir="/home/png4rjv/fotokatalizis/benchmark/OPCs/CA_50_states/CA_2b_B3LYP-D3_def2TZVP/"
 Default is to use a total of  12 processors:
                               12 via shared-memory
                                1 via Linda
 Entering Link 1 = /opt/nce/packages/global/g09/l1.exe PID=     11808.
  
 Copyright (c) 1988,1990,1992,1993,1995,1998,2003,2009,2015,
            Gaussian, Inc.  All Rights Reserved.
  
 This is part of the Gaussian(R) 09 program.  It is based on
 the Gaussian(R) 03 system (copyright 2003, Gaussian, Inc.),
 the Gaussian(R) 98 system (copyright 1998, Gaussian, Inc.),
 the Gaussian(R) 94 system (copyright 1995, Gaussian, Inc.),
 the Gaussian 92(TM) system (copyright 1992, Gaussian, Inc.),
 the Gaussian 90(TM) system (copyright 1990, Gaussian, Inc.),
 the Gaussian 88(TM) system (copyright 1988, Gaussian, Inc.),
 the Gaussian 86(TM) system (copyright 1986, Carnegie Mellon
 University), and the Gaussian 82(TM) system (copyright 1983,
 Carnegie Mellon University). Gaussian is a federally registered
 trademark of Gaussian, Inc.
  
 This software contains proprietary and confidential information,
 including trade secrets, belonging to Gaussian, Inc.
  
 This software is provided under written license and may be
 used, copied, transmitted, or stored only in accord with that
 written license.
  
 The following legend is applicable only to US Government
 contracts under FAR:
  
                    RESTRICTED RIGHTS LEGEND
  
 Use, reproduction and disclosure by the US Government is
 subject to restrictions as set forth in subparagraphs (a)
 and (c) of the Commercial Computer Software - Restricted
 Rights clause in FAR 52.227-19.
  
 Gaussian, Inc.
 340 Quinnipiac St., Bldg. 40, Wallingford CT 06492
  
  
 ---------------------------------------------------------------
 Warning -- This program may not be used in any manner that
 competes with the business of Gaussian, Inc. or will provide
 assistance to any competitor of Gaussian, Inc.  The licensee
 of this program is prohibited from giving any competitor of
 Gaussian, Inc. access to this program.  By using this program,
 the user acknowledges that Gaussian, Inc. is engaged in the
 business of creating and licensing software in the field of
 computational chemistry and represents and warrants to the
 licensee that it is not a competitor of Gaussian, Inc. and that
 it will not use this program in any manner prohibited above.
 ---------------------------------------------------------------
  

 Cite this work as:
 Gaussian 09, Revision E.01,
 M. J. Frisch, G. W. Trucks, H. B. Schlegel, G. E. Scuseria, 
 M. A. Robb, J. R. Cheeseman, G. Scalmani, V. Barone, B. Mennucci, 
 G. A. Petersson, H. Nakatsuji, M. Caricato, X. Li, H. P. Hratchian, 
 A. F. Izmaylov, J. Bloino, G. Zheng, J. L. Sonnenberg, M. Hada, 
 M. Ehara, K. Toyota, R. Fukuda, J. Hasegawa, M. Ishida, T. Nakajima, 
 Y. Honda, O. Kitao, H. Nakai, T. Vreven, J. A. Montgomery, Jr., 
 J. E. Peralta, F. Ogliaro, M. Bearpark, J. J. Heyd, E. Brothers, 
 K. N. Kudin, V. N. Staroverov, T. Keith, R. Kobayashi, J. Normand, 
 K. Raghavachari, A. Rendell, J. C. Burant, S. S. Iyengar, J. Tomasi, 
 M. Cossi, N. Rega, J. M. Millam, M. Klene, J. E. Knox, J. B. Cross, 
 V. Bakken, C. Adamo, J. Jaramillo, R. Gomperts, R. E. Stratmann, 
 O. Yazyev, A. J. Austin, R. Cammi, C. Pomelli, J. W. Ochterski, 
 R. L. Martin, K. Morokuma, V. G. Zakrzewski, G. A. Voth, 
 P. Salvador, J. J. Dannenberg, S. Dapprich, A. D. Daniels, 
 O. Farkas, J. B. Foresman, J. V. Ortiz, J. Cioslowski, 
 and D. J. Fox, Gaussian, Inc., Wallingford CT, 2013.
 
 ******************************************
 Gaussian 09:  ES64L-G09RevE.01 30-Nov-2015
                30-Jun-2022 
 ******************************************
 %chk=cp.chk
 Default route:  MaxDisk=500GB
 ----------------------------------------------------------------------
 #p b3lyp/def2TZVP td=(NStates=50) int=ultrafine scrf=(SMD,solvent=Acet
 onitrile) EmpiricalDispersion=GD3BJ
 ----------------------------------------------------------------------
 1/38=1/1;
 2/12=2,17=6,18=5,40=1/2;
 3/5=44,7=101,11=9,16=1,25=1,30=1,70=32201,72=2,74=-5,75=-5,124=41/1,2,8,3;
 4//1;
 5/5=2,38=5,53=2/2;
 8/6=1,10=1,108=50/1;
 9/41=50,42=1,70=2/14;
 6/7=2,8=2,9=2,10=2/1;
 99/5=1,9=1/99;
 Leave Link    1 at Thu Jun 30 16:24:53 2022, MaxMem=           0 cpu:         1.0
 (Enter /opt/nce/packages/global/g09/l101.exe)
 -----
 Title
 -----
 Symbolic Z-matrix:
 Charge =  0 Multiplicity = 1
 C                    -0.15527   1.38285   0.00915 
 C                    -1.22479   0.54855  -0.30579 
 C                    -1.15044  -0.8408   -0.27771 
 C                     0.10514  -1.42969   0.00769 
 C                     1.218    -0.62846   0.30492 
 C                     1.0702    0.76541   0.35208 
 C                     0.24887  -2.84     -0.00115 
 C                     2.13864   1.54911   0.85693 
 F                    -2.37206   1.11201  -0.71811 
 N                     0.37727  -3.98577  -0.0019 
 N                     3.00015   2.17125   1.30412 
 N                     2.46426  -1.20797   0.59681 
 C                     3.58428  -0.82596  -0.18417 
 C                     2.58002  -2.09859   1.69348 
 C                     3.41799  -0.56765  -1.54616 
 C                     4.84471  -0.67149   0.39545 
 C                     1.81617  -1.88594   2.84155 
 C                     3.43345  -3.20119   1.62883 
 C                     4.49744  -0.148    -2.31276 
 H                     2.44548  -0.69256  -2.00301 
 C                     5.92125  -0.27222  -0.38311 
 H                     4.97654  -0.85043   1.45309 
 C                     1.8995   -2.77305   3.90739 
 H                     1.15746  -1.02971   2.89798 
 C                     3.52438  -4.0707    2.70554 
 H                     4.01388  -3.37997   0.73456 
 C                     5.75563  -0.00272  -1.73909 
 H                     4.35248   0.05401  -3.36649 
 H                     6.89298  -0.15265   0.07929 
 C                     2.75649  -3.8662    3.84924 
 H                     1.29918  -2.59825   4.79128 
 H                     4.18794  -4.92395   2.64295 
 H                     6.59709   0.318    -2.33926 
 H                     2.8254   -4.55227   4.68331 
 N                    -2.2767   -1.60267  -0.58128 
 C                    -2.20958  -2.60258  -1.58843 
 C                    -3.50082  -1.30031   0.07119 
 C                    -1.4682   -2.37145  -2.74594 
 C                    -2.87034  -3.81887  -1.41886 
 C                    -3.49017  -0.93132   1.41685 
 C                    -4.71044  -1.34794  -0.62264 
 C                    -1.3743   -3.35962  -3.71795 
 H                    -0.96525  -1.4231   -2.88192 
 C                    -2.78697  -4.79249  -2.40299 
 H                    -3.43493  -4.00155  -0.51507 
 C                    -4.67698  -0.5952    2.05475 
 H                    -2.55534  -0.90812   1.96086 
 C                    -5.89359  -1.03065   0.02924 
 H                    -4.72164  -1.62325  -1.66794 
 C                    -2.03473  -4.57195  -3.55426 
 H                    -0.79209  -3.17293  -4.61133 
 H                    -3.29902  -5.73587  -2.26177 
 C                    -5.8848   -0.64682   1.36767 
 H                    -4.65537  -0.30435   3.09728 
 H                    -6.82688  -1.06838  -0.51828 
 H                    -1.96507  -5.33841  -4.31508 
 H                    -6.80965  -0.39169   1.86836 
 N                    -0.29422   2.76426  -0.02751 
 C                     0.68763   3.55325  -0.68765 
 C                    -1.42909   3.36753   0.57829 
 C                     1.25929   3.0955   -1.87424 
 C                     1.09624   4.77085  -0.14524 
 C                    -1.91306   2.86526   1.78574 
 C                    -2.0719    4.44439  -0.03211 
 C                     2.24809   3.84292  -2.5006 
 H                     0.93533   2.15567  -2.30071 
 C                     2.06971   5.52079  -0.78899 
 H                     0.6623    5.11906   0.78171 
 C                    -3.04346   3.42465   2.36698 
 H                    -1.40582   2.03907   2.2658 
 C                    -3.18853   5.01019   0.56655 
 H                    -1.70291   4.82952  -0.97258 
 C                     2.65566   5.05954  -1.96491 
 H                     2.69132   3.47504  -3.41711 
 H                     2.38471   6.46295  -0.35874 
 C                    -3.68437   4.5014    1.76422 
 H                    -3.415     3.02224   3.30073 
 H                    -3.68311   5.84428   0.08516 
 H                     3.42247   5.64317  -2.45734 
 H                    -4.56116   4.94072   2.22179 
 
 NAtoms=     80 NQM=       80 NQMF=       0 NMMI=      0 NMMIF=      0
                NMic=       0 NMicF=      0.
                    Isotopes and Nuclear Properties:
 (Nuclear quadrupole moments (NQMom) in fm**2, nuclear magnetic moments (NMagM)
  in nuclear magnetons)

  Atom         1           2           3           4           5           6           7           8           9          10
 IAtWgt=          12          12          12          12          12          12          12          12          19          14
 AtmWgt=  12.0000000  12.0000000  12.0000000  12.0000000  12.0000000  12.0000000  12.0000000  12.0000000  18.9984033  14.0030740
 NucSpn=           0           0           0           0           0           0           0           0           1           2
 AtZEff=   0.0000000   0.0000000   0.0000000   0.0000000   0.0000000   0.0000000   0.0000000   0.0000000   0.0000000   0.0000000
 NQMom=    0.0000000   0.0000000   0.0000000   0.0000000   0.0000000   0.0000000   0.0000000   0.0000000   0.0000000   2.0440000
 NMagM=    0.0000000   0.0000000   0.0000000   0.0000000   0.0000000   0.0000000   0.0000000   0.0000000   2.6288670   0.4037610
 AtZNuc=   6.0000000   6.0000000   6.0000000   6.0000000   6.0000000   6.0000000   6.0000000   6.0000000   9.0000000   7.0000000

  Atom        11          12          13          14          15          16          17          18          19          20
 IAtWgt=          14          14          12          12          12          12          12          12          12           1
 AtmWgt=  14.0030740  14.0030740  12.0000000  12.0000000  12.0000000  12.0000000  12.0000000  12.0000000  12.0000000   1.0078250
 NucSpn=           2           2           0           0           0           0           0           0           0           1
 AtZEff=   0.0000000   0.0000000   0.0000000   0.0000000   0.0000000   0.0000000   0.0000000   0.0000000   0.0000000   0.0000000
 NQMom=    2.0440000   2.0440000   0.0000000   0.0000000   0.0000000   0.0000000   0.0000000   0.0000000   0.0000000   0.0000000
 NMagM=    0.4037610   0.4037610   0.0000000   0.0000000   0.0000000   0.0000000   0.0000000   0.0000000   0.0000000   2.7928460
 AtZNuc=   7.0000000   7.0000000   6.0000000   6.0000000   6.0000000   6.0000000   6.0000000   6.0000000   6.0000000   1.0000000

  Atom        21          22          23          24          25          26          27          28          29          30
 IAtWgt=          12           1          12           1          12           1          12           1           1          12
 AtmWgt=  12.0000000   1.0078250  12.0000000   1.0078250  12.0000000   1.0078250  12.0000000   1.0078250   1.0078250  12.0000000
 NucSpn=           0           1           0           1           0           1           0           1           1           0
 AtZEff=   0.0000000   0.0000000   0.0000000   0.0000000   0.0000000   0.0000000   0.0000000   0.0000000   0.0000000   0.0000000
 NQMom=    0.0000000   0.0000000   0.0000000   0.0000000   0.0000000   0.0000000   0.0000000   0.0000000   0.0000000   0.0000000
 NMagM=    0.0000000   2.7928460   0.0000000   2.7928460   0.0000000   2.7928460   0.0000000   2.7928460   2.7928460   0.0000000
 AtZNuc=   6.0000000   1.0000000   6.0000000   1.0000000   6.0000000   1.0000000   6.0000000   1.0000000   1.0000000   6.0000000

  Atom        31          32          33          34          35          36          37          38          39          40
 IAtWgt=           1           1           1           1          14          12          12          12          12          12
 AtmWgt=   1.0078250   1.0078250   1.0078250   1.0078250  14.0030740  12.0000000  12.0000000  12.0000000  12.0000000  12.0000000
 NucSpn=           1           1           1           1           2           0           0           0           0           0
 AtZEff=   0.0000000   0.0000000   0.0000000   0.0000000   0.0000000   0.0000000   0.0000000   0.0000000   0.0000000   0.0000000
 NQMom=    0.0000000   0.0000000   0.0000000   0.0000000   2.0440000   0.0000000   0.0000000   0.0000000   0.0000000   0.0000000
 NMagM=    2.7928460   2.7928460   2.7928460   2.7928460   0.4037610   0.0000000   0.0000000   0.0000000   0.0000000   0.0000000
 AtZNuc=   1.0000000   1.0000000   1.0000000   1.0000000   7.0000000   6.0000000   6.0000000   6.0000000   6.0000000   6.0000000

  Atom        41          42          43          44          45          46          47          48          49          50
 IAtWgt=          12          12           1          12           1          12           1          12           1          12
 AtmWgt=  12.0000000  12.0000000   1.0078250  12.0000000   1.0078250  12.0000000   1.0078250  12.0000000   1.0078250  12.0000000
 NucSpn=           0           0           1           0           1           0           1           0           1           0
 AtZEff=   0.0000000   0.0000000   0.0000000   0.0000000   0.0000000   0.0000000   0.0000000   0.0000000   0.0000000   0.0000000
 NQMom=    0.0000000   0.0000000   0.0000000   0.0000000   0.0000000   0.0000000   0.0000000   0.0000000   0.0000000   0.0000000
 NMagM=    0.0000000   0.0000000   2.7928460   0.0000000   2.7928460   0.0000000   2.7928460   0.0000000   2.7928460   0.0000000
 AtZNuc=   6.0000000   6.0000000   1.0000000   6.0000000   1.0000000   6.0000000   1.0000000   6.0000000   1.0000000   6.0000000

  Atom        51          52          53          54          55          56          57          58          59          60
 IAtWgt=           1           1          12           1           1           1           1          14          12          12
 AtmWgt=   1.0078250   1.0078250  12.0000000   1.0078250   1.0078250   1.0078250   1.0078250  14.0030740  12.0000000  12.0000000
 NucSpn=           1           1           0           1           1           1           1           2           0           0
 AtZEff=   0.0000000   0.0000000   0.0000000   0.0000000   0.0000000   0.0000000   0.0000000   0.0000000   0.0000000   0.0000000
 NQMom=    0.0000000   0.0000000   0.0000000   0.0000000   0.0000000   0.0000000   0.0000000   2.0440000   0.0000000   0.0000000
 NMagM=    2.7928460   2.7928460   0.0000000   2.7928460   2.7928460   2.7928460   2.7928460   0.4037610   0.0000000   0.0000000
 AtZNuc=   1.0000000   1.0000000   6.0000000   1.0000000   1.0000000   1.0000000   1.0000000   7.0000000   6.0000000   6.0000000

  Atom        61          62          63          64          65          66          67          68          69          70
 IAtWgt=          12          12          12          12          12           1          12           1          12           1
 AtmWgt=  12.0000000  12.0000000  12.0000000  12.0000000  12.0000000   1.0078250  12.0000000   1.0078250  12.0000000   1.0078250
 NucSpn=           0           0           0           0           0           1           0           1           0           1
 AtZEff=   0.0000000   0.0000000   0.0000000   0.0000000   0.0000000   0.0000000   0.0000000   0.0000000   0.0000000   0.0000000
 NQMom=    0.0000000   0.0000000   0.0000000   0.0000000   0.0000000   0.0000000   0.0000000   0.0000000   0.0000000   0.0000000
 NMagM=    0.0000000   0.0000000   0.0000000   0.0000000   0.0000000   2.7928460   0.0000000   2.7928460   0.0000000   2.7928460
 AtZNuc=   6.0000000   6.0000000   6.0000000   6.0000000   6.0000000   1.0000000   6.0000000   1.0000000   6.0000000   1.0000000

  Atom        71          72          73          74          75          76          77          78          79          80
 IAtWgt=          12           1          12           1           1          12           1           1           1           1
 AtmWgt=  12.0000000   1.0078250  12.0000000   1.0078250   1.0078250  12.0000000   1.0078250   1.0078250   1.0078250   1.0078250
 NucSpn=           0           1           0           1           1           0           1           1           1           1
 AtZEff=   0.0000000   0.0000000   0.0000000   0.0000000   0.0000000   0.0000000   0.0000000   0.0000000   0.0000000   0.0000000
 NQMom=    0.0000000   0.0000000   0.0000000   0.0000000   0.0000000   0.0000000   0.0000000   0.0000000   0.0000000   0.0000000
 NMagM=    0.0000000   2.7928460   0.0000000   2.7928460   2.7928460   0.0000000   2.7928460   2.7928460   2.7928460   2.7928460
 AtZNuc=   6.0000000   1.0000000   6.0000000   1.0000000   1.0000000   6.0000000   1.0000000   1.0000000   1.0000000   1.0000000
 Leave Link  101 at Thu Jun 30 16:24:53 2022, MaxMem=  5242880000 cpu:         1.2
 (Enter /opt/nce/packages/global/g09/l202.exe)
 Stoichiometry    C44H30FN5
 Framework group  C1[X(C44H30FN5)]
 Deg. of freedom   234
 Full point group                 C1      NOp   1
 Largest Abelian subgroup         C1      NOp   1
 Largest concise Abelian subgroup C1      NOp   1
                         Standard orientation:                         
 ---------------------------------------------------------------------
 Center     Atomic      Atomic             Coordinates (Angstroms)
 Number     Number       Type             X           Y           Z
 ---------------------------------------------------------------------
      1          6           0       -0.155272    1.382848    0.009148
      2          6           0       -1.224793    0.548546   -0.305785
      3          6           0       -1.150439   -0.840796   -0.277711
      4          6           0        0.105141   -1.429690    0.007685
      5          6           0        1.218001   -0.628462    0.304924
      6          6           0        1.070199    0.765409    0.352076
      7          6           0        0.248866   -2.840000   -0.001150
      8          6           0        2.138637    1.549104    0.856925
      9          9           0       -2.372055    1.112011   -0.718113
     10          7           0        0.377263   -3.985768   -0.001902
     11          7           0        3.000154    2.171246    1.304115
     12          7           0        2.464255   -1.207968    0.596812
     13          6           0        3.584283   -0.825962   -0.184170
     14          6           0        2.580018   -2.098588    1.693484
     15          6           0        3.417992   -0.567655   -1.546159
     16          6           0        4.844708   -0.671493    0.395445
     17          6           0        1.816164   -1.885940    2.841549
     18          6           0        3.433451   -3.201196    1.628826
     19          6           0        4.497435   -0.148002   -2.312760
     20          1           0        2.445482   -0.692558   -2.003013
     21          6           0        5.921249   -0.272223   -0.383114
     22          1           0        4.976544   -0.850434    1.453092
     23          6           0        1.899498   -2.773046    3.907390
     24          1           0        1.157463   -1.029714    2.897982
     25          6           0        3.524380   -4.070702    2.705538
     26          1           0        4.013879   -3.379973    0.734560
     27          6           0        5.755627   -0.002727   -1.739089
     28          1           0        4.352483    0.054003   -3.366487
     29          1           0        6.892978   -0.152655    0.079285
     30          6           0        2.756491   -3.866205    3.849236
     31          1           0        1.299182   -2.598246    4.791282
     32          1           0        4.187934   -4.923956    2.642953
     33          1           0        6.597093    0.317993   -2.339264
     34          1           0        2.825396   -4.552272    4.683306
     35          7           0       -2.276700   -1.602668   -0.581284
     36          6           0       -2.209578   -2.602577   -1.588432
     37          6           0       -3.500818   -1.300310    0.071191
     38          6           0       -1.468199   -2.371453   -2.745936
     39          6           0       -2.870341   -3.818870   -1.418864
     40          6           0       -3.490167   -0.931316    1.416850
     41          6           0       -4.710437   -1.347934   -0.622636
     42          6           0       -1.374302   -3.359615   -3.717948
     43          1           0       -0.965247   -1.423100   -2.881920
     44          6           0       -2.786971   -4.792485   -2.402992
     45          1           0       -3.434936   -4.001551   -0.515074
     46          6           0       -4.676979   -0.595197    2.054754
     47          1           0       -2.555344   -0.908121    1.960856
     48          6           0       -5.893591   -1.030651    0.029235
     49          1           0       -4.721638   -1.623245   -1.667938
     50          6           0       -2.034733   -4.571954   -3.554259
     51          1           0       -0.792091   -3.172932   -4.611334
     52          1           0       -3.299026   -5.735863   -2.261771
     53          6           0       -5.884798   -0.646816    1.367670
     54          1           0       -4.655372   -0.304347    3.097275
     55          1           0       -6.826882   -1.068373   -0.518282
     56          1           0       -1.965076   -5.338409   -4.315082
     57          1           0       -6.809654   -0.391689    1.868363
     58          7           0       -0.294216    2.764261   -0.027508
     59          6           0        0.687635    3.553253   -0.687645
     60          6           0       -1.429084    3.367531    0.578294
     61          6           0        1.259294    3.095501   -1.874235
     62          6           0        1.096242    4.770845   -0.145241
     63          6           0       -1.913055    2.865260    1.785741
     64          6           0       -2.071893    4.444392   -0.032108
     65          6           0        2.248094    3.842914   -2.500600
     66          1           0        0.935332    2.155671   -2.300708
     67          6           0        2.069715    5.520787   -0.788985
     68          1           0        0.662306    5.119059    0.781711
     69          6           0       -3.043454    3.424654    2.366979
     70          1           0       -1.405815    2.039069    2.265796
     71          6           0       -3.188531    5.010191    0.566549
     72          1           0       -1.702905    4.829518   -0.972577
     73          6           0        2.655662    5.059544   -1.964913
     74          1           0        2.691324    3.475043   -3.417106
     75          1           0        2.384717    6.462950   -0.358740
     76          6           0       -3.684367    4.501403    1.764220
     77          1           0       -3.414999    3.022245    3.300729
     78          1           0       -3.683104    5.844281    0.085156
     79          1           0        3.422470    5.643166   -2.457337
     80          1           0       -4.561161    4.940721    2.221790
 ---------------------------------------------------------------------
 Rotational constants (GHZ):      0.0689591      0.0643241      0.0449212
 Leave Link  202 at Thu Jun 30 16:24:53 2022, MaxMem=  5242880000 cpu:         0.1
 (Enter /opt/nce/packages/global/g09/l301.exe)
 Standard basis: def2TZVP (5D, 7F)
 Ernie: Thresh=  0.10000D-02 Tol=  0.10000D-05 Strict=F.
 There are  1980 symmetry adapted cartesian basis functions of A   symmetry.
 There are  1730 symmetry adapted basis functions of A   symmetry.
  1730 basis functions,  2790 primitive gaussians,  1980 cartesian basis functions
   169 alpha electrons      169 beta electrons
       nuclear repulsion energy      6279.5116833954 Hartrees.
 IExCor=  402 DFT=T Ex+Corr=B3LYP ExCW=0 ScaHFX=  0.200000
 ScaDFX=  0.800000  0.720000  1.000000  0.810000 ScalE2=  1.000000  1.000000
 IRadAn=      5 IRanWt=     -1 IRanGd=            0 ICorTp=0 IEmpDi=141
 NAtoms=   80 NActive=   80 NUniq=   80 SFac= 1.00D+00 NAtFMM=   60 NAOKFM=T Big=T
 Integral buffers will be    131072 words long.
 Regular integral format.
 Two-electron integral symmetry is turned on.
 R6Disp:  Grimme-D3(BJ) Dispersion energy=       -0.2332141844 Hartrees.
 Nuclear repulsion after empirical dispersion term =     6279.2784692110 Hartrees.
 ------------------------------------------------------------------------------
 Polarizable Continuum Model (PCM)
 =================================
 Model                : PCM (using non-symmetric T matrix).
 Atomic radii         : SMD-Coulomb.
 Polarization charges : Total charges.
 Charge compensation  : None.
 Solution method      : On-the-fly selection.
 Cavity type          : VdW (van der Waals Surface) (Alpha=1.000).
 Cavity algorithm     : GePol (No added spheres)
                        Default sphere list used, NSphG=   80.
                        Lebedev-Laikov grids with approx.  5.0 points / Ang**2.
                        Smoothing algorithm: York/Karplus (Gamma=1.0000).
                        Polarization charges: spherical gaussians, with
                                              point-specific exponents (IZeta= 3).
                        Self-potential: point-specific (ISelfS= 7).
                        Self-field    : sphere-specific E.n sum rule (ISelfD= 2).
 Solvent              : Acetonitrile, Eps=  35.688000 Eps(inf)=   1.806874
 ------------------------------------------------------------------------------
 GePol: Number of generator spheres                  =      80
 GePol: Total number of spheres                      =      80
 GePol: Number of exposed spheres                    =      80 (100.00%)
 GePol: Number of points                             =    6078
 GePol: Average weight of points                     =       0.11
 GePol: Minimum weight of points                     =   0.31D-11
 GePol: Maximum weight of points                     =    0.21501
 GePol: Number of points with low weight             =     405
 GePol: Fraction of low-weight points (<1% of avg)   =       6.66%
 GePol: Cavity surface area                          =    656.672 Ang**2
 GePol: Cavity volume                                =    662.610 Ang**3
 ------------------------------------------------------------------------------
 Atomic radii for non-electrostatic terms: SMD-CDS.
 ------------------------------------------------------------------------------
 PCM non-electrostatic energy =        -0.0098772712 Hartrees.
 Nuclear repulsion after PCM non-electrostatic terms =     6279.2685919398 Hartrees.
 Leave Link  301 at Thu Jun 30 16:24:53 2022, MaxMem=  5242880000 cpu:         3.0
 (Enter /opt/nce/packages/global/g09/l302.exe)
 NPDir=0 NMtPBC=     1 NCelOv=     1 NCel=       1 NClECP=     1 NCelD=      1
         NCelK=      1 NCelE2=     1 NClLst=     1 CellRange=     0.0.
 One-electron integrals computed using PRISM.
   1 Symmetry operations used in ECPInt.
 ECPInt:  NShTT=  224785 NPrTT=  697980 LenC2=  171517 LenP2D=  347127.
 LDataN:  DoStor=T MaxTD1= 6 Len=  172
 NBasis=  1730 RedAO= T EigKep=  2.01D-06  NBF=  1730
 NBsUse=  1730 1.00D-06 EigRej= -1.00D+00 NBFU=  1730
 Precomputing XC quadrature grid using
 IXCGrd= 4 IRadAn=           5 IRanWt=          -1 IRanGd=           0 AccXCQ= 0.00D+00.
 Generated NRdTot=       0 NPtTot=           0 NUsed=           0 NTot=          32
 NSgBfM=  1892  1892  1892  1895  1895 MxSgAt=    80 MxSgA2=    80.
 Leave Link  302 at Thu Jun 30 16:25:00 2022, MaxMem=  5242880000 cpu:        86.8
 (Enter /opt/nce/packages/global/g09/l308.exe)
 Leave Link  308 at Thu Jun 30 16:25:02 2022, MaxMem=  5242880000 cpu:        12.5
 (Enter /opt/nce/packages/global/g09/l303.exe)
 DipDrv:  MaxL=1.
 Leave Link  303 at Thu Jun 30 16:25:02 2022, MaxMem=  5242880000 cpu:         6.9
 (Enter /opt/nce/packages/global/g09/l401.exe)
 ExpMin= 9.52D-02 ExpMax= 3.55D+04 ExpMxC= 1.21D+03 IAcc=3 IRadAn=         5 AccDes= 0.00D+00
 Harris functional with IExCor=  402 and IRadAn=       5 diagonalized for initial guess.
 HarFok:  IExCor=  402 AccDes= 0.00D+00 IRadAn=         5 IDoV= 1 UseB2=F ITyADJ=14
 ICtDFT=  3500011 ScaDFX=  1.000000  1.000000  1.000000  1.000000
 FoFCou: FMM=F IPFlag=           0 FMFlag=      100000 FMFlg1=        2001
         NFxFlg=           0 DoJE=T BraDBF=F KetDBF=T FulRan=T
         wScrn=  0.000000 ICntrl=     500 IOpCl=  0 I1Cent=   200000004 NGrid=           0
         NMat0=    1 NMatS0=      1 NMatT0=    0 NMatD0=    1 NMtDS0=    0 NMtDT0=    0
 Petite list used in FoFCou.
 Harris En= -2069.39698770922    
 JPrj=0 DoOrth=F DoCkMO=F.
 Leave Link  401 at Thu Jun 30 16:25:28 2022, MaxMem=  5242880000 cpu:       310.3
 (Enter /opt/nce/packages/global/g09/l502.exe)
 Closed shell SCF:
 Using DIIS extrapolation, IDIIS=  1040.
 Integral symmetry usage will be decided dynamically.
 IVT=    11817950 IEndB=    11817950 NGot=  5242880000 MDV=  5235001071
 LenX=  5235001071 LenY=  5231078691
 Requested convergence on RMS density matrix=1.00D-08 within 128 cycles.
 Requested convergence on MAX density matrix=1.00D-06.
 Requested convergence on             energy=1.00D-06.
 No special actions if energy rises.
 Fock matrices will be formed incrementally for  20 cycles.

 Cycle   1  Pass 1  IDiag  1:
 FoFJK:  IHMeth= 1 ICntrl=       0 DoSepK=F KAlg= 0 I1Cent=   0 FoldK=F
 IRaf= 710000000 NMat=   1 IRICut=       1 DoRegI=T DoRafI=F ISym2E= 0.
 FoFCou: FMM=T IPFlag=           0 FMFlag=      100000 FMFlg1=        2001
         NFxFlg=           0 DoJE=F BraDBF=F KetDBF=F FulRan=T
         wScrn=  0.000000 ICntrl=       0 IOpCl=  0 I1Cent=           0 NGrid=           0
         NMat0=    1 NMatS0=      1 NMatT0=    0 NMatD0=    1 NMtDS0=    0 NMtDT0=    0
 Symmetry not used in FoFCou.
 FMM levels:  10  Number of levels for PrismC:   9
 Inv3:  Mode=1 IEnd=   110826252.
 Iteration    1 A*A^-1 deviation from unit magnitude is 6.22D-15 for   6072.
 Iteration    1 A*A^-1 deviation from orthogonality  is 6.75D-15 for   3113   2932.
 Iteration    1 A^-1*A deviation from unit magnitude is 6.44D-15 for   6062.
 Iteration    1 A^-1*A deviation from orthogonality  is 9.43D-11 for   2703   2657.
 E= -2068.18293673930    
 DIIS: error= 1.56D-02 at cycle   1 NSaved=   1.
 NSaved= 1 IEnMin= 1 EnMin= -2068.18293673930     IErMin= 1 ErrMin= 1.56D-02
 ErrMax= 1.56D-02  0.00D+00 EMaxC= 1.00D-01 BMatC= 1.20D+00 BMatP= 1.20D+00
 IDIUse=3 WtCom= 8.44D-01 WtEn= 1.56D-01
 Coeff-Com:  0.100D+01
 Coeff-En:   0.100D+01
 Coeff:      0.100D+01
 Gap=     0.143 Goal=   None    Shift=    0.000
 GapD=    0.143 DampG=1.000 DampE=0.500 DampFc=0.5000 IDamp=-1.
 Damping current iteration by 5.00D-01
 RMSDP=2.50D-03 MaxDP=4.98D-01              OVMax= 2.69D-01

 Cycle   2  Pass 1  IDiag  1:
 RMSU=  1.25D-03    CP:  9.86D-01
 E= -2068.63823450057     Delta-E=       -0.455297761269 Rises=F Damp=T
 DIIS: error= 5.09D-03 at cycle   2 NSaved=   2.
 NSaved= 2 IEnMin= 2 EnMin= -2068.63823450057     IErMin= 2 ErrMin= 5.09D-03
 ErrMax= 5.09D-03  0.00D+00 EMaxC= 1.00D-01 BMatC= 1.23D-01 BMatP= 1.20D+00
 IDIUse=3 WtCom= 9.49D-01 WtEn= 5.09D-02
 Coeff-Com:  0.752D-01 0.925D+00
 Coeff-En:   0.171D+00 0.829D+00
 Coeff:      0.800D-01 0.920D+00
 Gap=     0.146 Goal=   None    Shift=    0.000
 RMSDP=1.08D-03 MaxDP=2.67D-01 DE=-4.55D-01 OVMax= 2.15D-01

 Cycle   3  Pass 1  IDiag  1:
 RMSU=  8.52D-04    CP:  9.13D-01  5.35D-01
 E= -2069.13847053435     Delta-E=       -0.500236033780 Rises=F Damp=F
 DIIS: error= 9.37D-03 at cycle   3 NSaved=   3.
 NSaved= 3 IEnMin= 3 EnMin= -2069.13847053435     IErMin= 2 ErrMin= 5.09D-03
 ErrMax= 9.37D-03  0.00D+00 EMaxC= 1.00D-01 BMatC= 1.93D-01 BMatP= 1.23D-01
 IDIUse=3 WtCom= 9.36D-02 WtEn= 9.06D-01
 Coeff-Com: -0.453D-01 0.582D+00 0.463D+00
 Coeff-En:   0.000D+00 0.000D+00 0.100D+01
 Coeff:     -0.424D-02 0.545D-01 0.950D+00
 Gap=     0.140 Goal=   None    Shift=    0.000
 RMSDP=1.49D-03 MaxDP=3.48D-01 DE=-5.00D-01 OVMax= 2.45D-01

 Cycle   4  Pass 1  IDiag  1:
 RMSU=  7.60D-04    CP:  9.47D-01  1.37D+00  1.47D-01
 E= -2068.48993523657     Delta-E=        0.648535297780 Rises=F Damp=F
 DIIS: error= 2.36D-02 at cycle   4 NSaved=   4.
 NSaved= 4 IEnMin= 3 EnMin= -2069.13847053435     IErMin= 2 ErrMin= 5.09D-03
 ErrMax= 2.36D-02  0.00D+00 EMaxC= 1.00D-01 BMatC= 8.60D-01 BMatP= 1.23D-01
 IDIUse=2 WtCom= 0.00D+00 WtEn= 1.00D+00
 Coeff-En:   0.000D+00 0.000D+00 0.758D+00 0.242D+00
 Coeff:      0.000D+00 0.000D+00 0.758D+00 0.242D+00
 Gap=     0.125 Goal=   None    Shift=    0.000
 RMSDP=1.06D-03 MaxDP=2.87D-01 DE= 6.49D-01 OVMax= 1.22D-01

 Cycle   5  Pass 1  IDiag  1:
 RMSU=  2.39D-04    CP:  9.14D-01  7.45D-01  7.19D-01  4.31D-01
 E= -2069.27121461064     Delta-E=       -0.781279374065 Rises=F Damp=F
 DIIS: error= 5.15D-03 at cycle   5 NSaved=   5.
 NSaved= 5 IEnMin= 5 EnMin= -2069.27121461064     IErMin= 2 ErrMin= 5.09D-03
 ErrMax= 5.15D-03  0.00D+00 EMaxC= 1.00D-01 BMatC= 5.57D-02 BMatP= 1.23D-01
 IDIUse=3 WtCom= 9.48D-01 WtEn= 5.15D-02
 Coeff-Com:  0.106D-01-0.165D-01 0.346D+00 0.635D-02 0.654D+00
 Coeff-En:   0.000D+00 0.000D+00 0.280D+00 0.000D+00 0.720D+00
 Coeff:      0.101D-01-0.156D-01 0.342D+00 0.603D-02 0.657D+00
 Gap=     0.125 Goal=   None    Shift=    0.000
 RMSDP=2.15D-04 MaxDP=3.12D-02 DE=-7.81D-01 OVMax= 4.86D-02

 Cycle   6  Pass 1  IDiag  1:
 RMSU=  4.42D-05    CP:  9.13D-01  6.54D-01  8.39D-01  2.74D-01  6.53D-01
 E= -2069.32478739468     Delta-E=       -0.053572784043 Rises=F Damp=F
 DIIS: error= 4.76D-04 at cycle   6 NSaved=   6.
 NSaved= 6 IEnMin= 6 EnMin= -2069.32478739468     IErMin= 6 ErrMin= 4.76D-04
 ErrMax= 4.76D-04  0.00D+00 EMaxC= 1.00D-01 BMatC= 1.09D-03 BMatP= 5.57D-02
 IDIUse=3 WtCom= 9.95D-01 WtEn= 4.76D-03
 Coeff-Com:  0.458D-02-0.134D-01 0.143D+00-0.339D-01 0.427D+00 0.472D+00
 Coeff-En:   0.000D+00 0.000D+00 0.000D+00 0.000D+00 0.000D+00 0.100D+01
 Coeff:      0.455D-02-0.133D-01 0.143D+00-0.338D-01 0.425D+00 0.475D+00
 Gap=     0.125 Goal=   None    Shift=    0.000
 RMSDP=2.49D-05 MaxDP=2.21D-03 DE=-5.36D-02 OVMax= 9.71D-03

 Cycle   7  Pass 1  IDiag  1:
 RMSU=  1.86D-05    CP:  9.13D-01  6.52D-01  8.35D-01  2.76D-01  6.88D-01
                    CP:  6.99D-01
 E= -2069.32581162510     Delta-E=       -0.001024230420 Rises=F Damp=F
 DIIS: error= 9.40D-05 at cycle   7 NSaved=   7.
 NSaved= 7 IEnMin= 7 EnMin= -2069.32581162510     IErMin= 7 ErrMin= 9.40D-05
 ErrMax= 9.40D-05  0.00D+00 EMaxC= 1.00D-01 BMatC= 4.02D-05 BMatP= 1.09D-03
 IDIUse=1 WtCom= 1.00D+00 WtEn= 0.00D+00
 Coeff-Com:  0.139D-02-0.363D-02 0.447D-01-0.184D-01 0.158D+00 0.224D+00
 Coeff-Com:  0.594D+00
 Coeff:      0.139D-02-0.363D-02 0.447D-01-0.184D-01 0.158D+00 0.224D+00
 Coeff:      0.594D+00
 Gap=     0.124 Goal=   None    Shift=    0.000
 RMSDP=8.48D-06 MaxDP=1.23D-03 DE=-1.02D-03 OVMax= 1.87D-03

 Cycle   8  Pass 1  IDiag  1:
 RMSU=  5.59D-06    CP:  9.12D-01  6.51D-01  8.36D-01  2.78D-01  7.02D-01
                    CP:  7.14D-01  7.54D-01
 E= -2069.32584395505     Delta-E=       -0.000032329950 Rises=F Damp=F
 DIIS: error= 8.09D-05 at cycle   8 NSaved=   8.
 NSaved= 8 IEnMin= 8 EnMin= -2069.32584395505     IErMin= 8 ErrMin= 8.09D-05
 ErrMax= 8.09D-05  0.00D+00 EMaxC= 1.00D-01 BMatC= 6.69D-06 BMatP= 4.02D-05
 IDIUse=1 WtCom= 1.00D+00 WtEn= 0.00D+00
 Coeff-Com:  0.306D-03-0.422D-03 0.922D-02-0.601D-02 0.358D-01 0.607D-01
 Coeff-Com:  0.319D+00 0.581D+00
 Coeff:      0.306D-03-0.422D-03 0.922D-02-0.601D-02 0.358D-01 0.607D-01
 Coeff:      0.319D+00 0.581D+00
 Gap=     0.124 Goal=   None    Shift=    0.000
 RMSDP=2.50D-06 MaxDP=3.56D-04 DE=-3.23D-05 OVMax= 5.92D-04

 Cycle   9  Pass 1  IDiag  1:
 RMSU=  1.74D-06    CP:  9.12D-01  6.51D-01  8.37D-01  2.77D-01  7.01D-01
                    CP:  7.15D-01  8.06D-01  8.99D-01
 E= -2069.32584998411     Delta-E=       -0.000006029062 Rises=F Damp=F
 DIIS: error= 1.31D-05 at cycle   9 NSaved=   9.
 NSaved= 9 IEnMin= 9 EnMin= -2069.32584998411     IErMin= 9 ErrMin= 1.31D-05
 ErrMax= 1.31D-05  0.00D+00 EMaxC= 1.00D-01 BMatC= 8.08D-07 BMatP= 6.69D-06
 IDIUse=1 WtCom= 1.00D+00 WtEn= 0.00D+00
 Coeff-Com:  0.632D-04 0.131D-05 0.123D-02-0.169D-02 0.511D-02 0.126D-01
 Coeff-Com:  0.132D+00 0.334D+00 0.516D+00
 Coeff:      0.632D-04 0.131D-05 0.123D-02-0.169D-02 0.511D-02 0.126D-01
 Coeff:      0.132D+00 0.334D+00 0.516D+00
 Gap=     0.124 Goal=   None    Shift=    0.000
 RMSDP=1.39D-06 MaxDP=2.89D-04 DE=-6.03D-06 OVMax= 2.39D-04

 Cycle  10  Pass 1  IDiag  1:
 RMSU=  7.04D-07    CP:  9.12D-01  6.51D-01  8.37D-01  2.76D-01  6.99D-01
                    CP:  7.23D-01  8.36D-01  8.70D-01  6.58D-01
 E= -2069.32585067625     Delta-E=       -0.000000692140 Rises=F Damp=F
 DIIS: error= 4.94D-06 at cycle  10 NSaved=  10.
 NSaved=10 IEnMin=10 EnMin= -2069.32585067625     IErMin=10 ErrMin= 4.94D-06
 ErrMax= 4.94D-06  0.00D+00 EMaxC= 1.00D-01 BMatC= 7.95D-08 BMatP= 8.08D-07
 IDIUse=1 WtCom= 1.00D+00 WtEn= 0.00D+00
 Coeff-Com:  0.102D-04-0.238D-04-0.288D-03-0.205D-03-0.120D-02 0.949D-04
 Coeff-Com:  0.322D-01 0.994D-01 0.282D+00 0.588D+00
 Coeff:      0.102D-04-0.238D-04-0.288D-03-0.205D-03-0.120D-02 0.949D-04
 Coeff:      0.322D-01 0.994D-01 0.282D+00 0.588D+00
 Gap=     0.124 Goal=   None    Shift=    0.000
 RMSDP=3.89D-07 MaxDP=6.65D-05 DE=-6.92D-07 OVMax= 8.18D-05

 Cycle  11  Pass 1  IDiag  1:
 RMSU=  2.75D-07    CP:  9.12D-01  6.51D-01  8.37D-01  2.77D-01  6.98D-01
                    CP:  7.23D-01  8.39D-01  8.84D-01  7.24D-01  7.68D-01
 E= -2069.32585074110     Delta-E=       -0.000000064845 Rises=F Damp=F
 DIIS: error= 1.67D-06 at cycle  11 NSaved=  11.
 NSaved=11 IEnMin=11 EnMin= -2069.32585074110     IErMin=11 ErrMin= 1.67D-06
 ErrMax= 1.67D-06  0.00D+00 EMaxC= 1.00D-01 BMatC= 1.57D-08 BMatP= 7.95D-08
 IDIUse=1 WtCom= 1.00D+00 WtEn= 0.00D+00
 Coeff-Com:  0.419D-06-0.110D-04-0.326D-03 0.903D-04-0.145D-02-0.136D-02
 Coeff-Com:  0.508D-02 0.242D-01 0.118D+00 0.373D+00 0.482D+00
 Coeff:      0.419D-06-0.110D-04-0.326D-03 0.903D-04-0.145D-02-0.136D-02
 Coeff:      0.508D-02 0.242D-01 0.118D+00 0.373D+00 0.482D+00
 Gap=     0.124 Goal=   None    Shift=    0.000
 RMSDP=1.38D-07 MaxDP=2.76D-05 DE=-6.48D-08 OVMax= 3.67D-05

 Cycle  12  Pass 1  IDiag  1:
 RMSU=  9.15D-08    CP:  9.12D-01  6.51D-01  8.37D-01  2.77D-01  6.99D-01
                    CP:  7.23D-01  8.38D-01  8.87D-01  7.29D-01  8.09D-01
                    CP:  7.21D-01
 E= -2069.32585075482     Delta-E=       -0.000000013717 Rises=F Damp=F
 DIIS: error= 7.47D-07 at cycle  12 NSaved=  12.
 NSaved=12 IEnMin=12 EnMin= -2069.32585075482     IErMin=12 ErrMin= 7.47D-07
 ErrMax= 7.47D-07  0.00D+00 EMaxC= 1.00D-01 BMatC= 1.91D-09 BMatP= 1.57D-08
 IDIUse=1 WtCom= 1.00D+00 WtEn= 0.00D+00
 Coeff-Com: -0.201D-05-0.108D-05-0.198D-03 0.996D-04-0.822D-03-0.837D-03
 Coeff-Com: -0.137D-02 0.381D-03 0.303D-01 0.142D+00 0.299D+00 0.531D+00
 Coeff:     -0.201D-05-0.108D-05-0.198D-03 0.996D-04-0.822D-03-0.837D-03
 Coeff:     -0.137D-02 0.381D-03 0.303D-01 0.142D+00 0.299D+00 0.531D+00
 Gap=     0.124 Goal=   None    Shift=    0.000
 RMSDP=5.29D-08 MaxDP=8.80D-06 DE=-1.37D-08 OVMax= 9.45D-06

 Cycle  13  Pass 1  IDiag  1:
 RMSU=  3.54D-08    CP:  9.12D-01  6.51D-01  8.37D-01  2.77D-01  6.98D-01
                    CP:  7.23D-01  8.38D-01  8.86D-01  7.31D-01  8.30D-01
                    CP:  7.74D-01  7.29D-01
 E= -2069.32585075621     Delta-E=       -0.000000001392 Rises=F Damp=F
 DIIS: error= 3.28D-07 at cycle  13 NSaved=  13.
 NSaved=13 IEnMin=13 EnMin= -2069.32585075621     IErMin=13 ErrMin= 3.28D-07
 ErrMax= 3.28D-07  0.00D+00 EMaxC= 1.00D-01 BMatC= 3.45D-10 BMatP= 1.91D-09
 IDIUse=1 WtCom= 1.00D+00 WtEn= 0.00D+00
 Coeff-Com: -0.127D-05-0.749D-06-0.838D-04 0.479D-04-0.291D-03-0.231D-03
 Coeff-Com: -0.133D-02-0.334D-02-0.730D-03 0.282D-01 0.119D+00 0.338D+00
 Coeff-Com:  0.520D+00
 Coeff:     -0.127D-05-0.749D-06-0.838D-04 0.479D-04-0.291D-03-0.231D-03
 Coeff:     -0.133D-02-0.334D-02-0.730D-03 0.282D-01 0.119D+00 0.338D+00
 Coeff:      0.520D+00
 Gap=     0.124 Goal=   None    Shift=    0.000
 RMSDP=2.38D-08 MaxDP=3.20D-06 DE=-1.39D-09 OVMax= 4.17D-06

 Cycle  14  Pass 1  IDiag  1:
 RMSU=  1.38D-08    CP:  9.12D-01  6.51D-01  8.37D-01  2.77D-01  6.98D-01
                    CP:  7.24D-01  8.39D-01  8.87D-01  7.31D-01  8.36D-01
                    CP:  7.93D-01  8.18D-01  7.83D-01
 E= -2069.32585075646     Delta-E=       -0.000000000253 Rises=F Damp=F
 DIIS: error= 1.60D-07 at cycle  14 NSaved=  14.
 NSaved=14 IEnMin=14 EnMin= -2069.32585075646     IErMin=14 ErrMin= 1.60D-07
 ErrMax= 1.60D-07  0.00D+00 EMaxC= 1.00D-01 BMatC= 4.82D-11 BMatP= 3.45D-10
 IDIUse=1 WtCom= 1.00D+00 WtEn= 0.00D+00
 Coeff-Com: -0.176D-06-0.851D-06-0.992D-05 0.661D-05 0.565D-05 0.774D-04
 Coeff-Com: -0.290D-03-0.175D-02-0.719D-02-0.146D-01 0.980D-02 0.899D-01
 Coeff-Com:  0.311D+00 0.613D+00
 Coeff:     -0.176D-06-0.851D-06-0.992D-05 0.661D-05 0.565D-05 0.774D-04
 Coeff:     -0.290D-03-0.175D-02-0.719D-02-0.146D-01 0.980D-02 0.899D-01
 Coeff:      0.311D+00 0.613D+00
 Gap=     0.124 Goal=   None    Shift=    0.000
 RMSDP=1.34D-08 MaxDP=2.65D-06 DE=-2.53D-10 OVMax= 1.59D-06

 Cycle  15  Pass 1  IDiag  1:
 RMSU=  8.48D-09    CP:  9.12D-01  6.51D-01  8.37D-01  2.77D-01  6.98D-01
                    CP:  7.24D-01  8.39D-01  8.87D-01  7.30D-01  8.38D-01
                    CP:  8.10D-01  8.25D-01  8.24D-01  8.79D-01
 E= -2069.32585075661     Delta-E=       -0.000000000146 Rises=F Damp=F
 DIIS: error= 2.53D-08 at cycle  15 NSaved=  15.
 NSaved=15 IEnMin=15 EnMin= -2069.32585075661     IErMin=15 ErrMin= 2.53D-08
 ErrMax= 2.53D-08  0.00D+00 EMaxC= 1.00D-01 BMatC= 2.67D-12 BMatP= 4.82D-11
 IDIUse=1 WtCom= 1.00D+00 WtEn= 0.00D+00
 Coeff-Com: -0.464D-07-0.137D-07-0.248D-06 0.472D-06 0.156D-04 0.401D-04
 Coeff-Com: -0.435D-04-0.563D-03-0.305D-02-0.737D-02-0.157D-02 0.189D-01
 Coeff-Com:  0.101D+00 0.283D+00 0.609D+00
 Coeff:     -0.464D-07-0.137D-07-0.248D-06 0.472D-06 0.156D-04 0.401D-04
 Coeff:     -0.435D-04-0.563D-03-0.305D-02-0.737D-02-0.157D-02 0.189D-01
 Coeff:      0.101D+00 0.283D+00 0.609D+00
 Gap=     0.124 Goal=   None    Shift=    0.000
 RMSDP=6.59D-09 MaxDP=5.59D-07 DE=-1.46D-10 OVMax= 5.08D-07

 Error on total polarization charges =  0.08512
 SCF Done:  E(RB3LYP) =  -2069.32585076     A.U. after   15 cycles
            NFock= 15  Conv=0.66D-08     -V/T= 2.0050
 KE= 2.058936064043D+03 PE=-1.736848594043D+04 EE= 6.960955433694D+03
 SMD-CDS (non-electrostatic) energy       (kcal/mol) =      -6.20
 (included in total energy above)
 Leave Link  502 at Thu Jun 30 18:02:37 2022, MaxMem=  5242880000 cpu:     69824.4
 (Enter /opt/nce/packages/global/g09/l801.exe)
 DoSCS=F DFT=T ScalE2(SS,OS)=  1.000000  1.000000
 ExpMin= 9.52D-02 ExpMax= 3.55D+04 ExpMxC= 1.21D+03 IAcc=3 IRadAn=         5 AccDes= 0.00D+00
 HarFok:  IExCor=  205 AccDes= 0.00D+00 IRadAn=         5 IDoV=-2 UseB2=F ITyADJ=14
 ICtDFT= 12500011 ScaDFX=  1.000000  1.000000  1.000000  1.000000
 Largest valence mixing into a core orbital is  5.97D-05
 Largest core mixing into a valence orbital is  2.06D-05
 Range of M.O.s used for correlation:    51  1730
 NBasis=  1730 NAE=   169 NBE=   169 NFC=    50 NFV=     0
 NROrb=   1680 NOA=   119 NOB=   119 NVA=  1561 NVB=  1561

 **** Warning!!: The largest alpha MO coefficient is  0.55774503D+02

 Leave Link  801 at Thu Jun 30 18:02:37 2022, MaxMem=  5242880000 cpu:         7.7
 (Enter /opt/nce/packages/global/g09/l914.exe)
 RHF ground state
 MDV=  5242880000 DFT=T DoStab=F Mixed=T DoRPA=T DoScal=F NonHer=T
 Would need an additional       3398529900000 words for in-memory AO integral storage.
 NEqPCM:  Using non-equilibrium solvation (IEInf=1, Eps=  35.6880, EpsInf=   1.8069)
 Inv3:  Mode=1 IEnd=   110826252.
 Iteration    1 A*A^-1 deviation from unit magnitude is 7.77D-15 for   6070.
 Iteration    1 A*A^-1 deviation from orthogonality  is 2.83D-15 for   3553    187.
 Iteration    1 A^-1*A deviation from unit magnitude is 7.77D-15 for   6078.
 Iteration    1 A^-1*A deviation from orthogonality  is 2.44D-15 for   6076   3783.
 Making orbital integer symmetry assigments:
 Orbital symmetries:
       Occupied  (A) (A) (A) (A) (A) (A) (A) (A) (A) (A) (A) (A)
                 (A) (A) (A) (A) (A) (A) (A) (A) (A) (A) (A) (A)
                 (A) (A) (A) (A) (A) (A) (A) (A) (A) (A) (A) (A)
                 (A) (A) (A) (A) (A) (A) (A) (A) (A) (A) (A) (A)
                 (A) (A) (A) (A) (A) (A) (A) (A) (A) (A) (A) (A)
                 (A) (A) (A) (A) (A) (A) (A) (A) (A) (A) (A) (A)
                 (A) (A) (A) (A) (A) (A) (A) (A) (A) (A) (A) (A)
                 (A) (A) (A) (A) (A) (A) (A) (A) (A) (A) (A) (A)
                 (A) (A) (A) (A) (A) (A) (A) (A) (A) (A) (A) (A)
                 (A) (A) (A) (A) (A) (A) (A) (A) (A) (A) (A) (A)
                 (A) (A) (A) (A) (A) (A) (A) (A) (A) (A) (A) (A)
                 (A) (A) (A) (A) (A) (A) (A) (A) (A) (A) (A) (A)
                 (A) (A) (A) (A) (A) (A) (A) (A) (A) (A) (A) (A)
                 (A) (A) (A) (A) (A) (A) (A) (A) (A) (A) (A) (A)
                 (A)
       Virtual   (A) (A) (A) (A) (A) (A) (A) (A) (A) (A) (A) (A)
                 (A) (A) (A) (A) (A) (A) (A) (A) (A) (A) (A) (A)
                 (A) (A) (A) (A) (A) (A) (A) (A) (A) (A) (A) (A)
                 (A) (A) (A) (A) (A) (A) (A) (A) (A) (A) (A) (A)
                 (A) (A) (A) (A) (A) (A) (A) (A) (A) (A) (A) (A)
                 (A) (A) (A) (A) (A) (A) (A) (A) (A) (A) (A) (A)
                 (A) (A) (A) (A) (A) (A) (A) (A) (A) (A) (A) (A)
                 (A) (A) (A) (A) (A) (A) (A) (A) (A) (A) (A) (A)
                 (A) (A) (A) (A) (A) (A) (A) (A) (A) (A) (A) (A)
                 (A) (A) (A) (A) (A) (A) (A) (A) (A) (A) (A) (A)
                 (A) (A) (A) (A) (A) (A) (A) (A) (A) (A) (A) (A)
                 (A) (A) (A) (A) (A) (A) (A) (A) (A) (A) (A) (A)
                 (A) (A) (A) (A) (A) (A) (A) (A) (A) (A) (A) (A)
                 (A) (A) (A) (A) (A) (A) (A) (A) (A) (A) (A) (A)
                 (A) (A) (A) (A) (A) (A) (A) (A) (A) (A) (A) (A)
                 (A) (A) (A) (A) (A) (A) (A) (A) (A) (A) (A) (A)
                 (A) (A) (A) (A) (A) (A) (A) (A) (A) (A) (A) (A)
                 (A) (A) (A) (A) (A) (A) (A) (A) (A) (A) (A) (A)
                 (A) (A) (A) (A) (A) (A) (A) (A) (A) (A) (A) (A)
                 (A) (A) (A) (A) (A) (A) (A) (A) (A) (A) (A) (A)
                 (A) (A) (A) (A) (A) (A) (A) (A) (A) (A) (A) (A)
                 (A) (A) (A) (A) (A) (A) (A) (A) (A) (A) (A) (A)
                 (A) (A) (A) (A) (A) (A) (A) (A) (A) (A) (A) (A)
                 (A) (A) (A) (A) (A) (A) (A) (A) (A) (A) (A) (A)
                 (A) (A) (A) (A) (A) (A) (A) (A) (A) (A) (A) (A)
                 (A) (A) (A) (A) (A) (A) (A) (A) (A) (A) (A) (A)
                 (A) (A) (A) (A) (A) (A) (A) (A) (A) (A) (A) (A)
                 (A) (A) (A) (A) (A) (A) (A) (A) (A) (A) (A) (A)
                 (A) (A) (A) (A) (A) (A) (A) (A) (A) (A) (A) (A)
                 (A) (A) (A) (A) (A) (A) (A) (A) (A) (A) (A) (A)
                 (A) (A) (A) (A) (A) (A) (A) (A) (A) (A) (A) (A)
                 (A) (A) (A) (A) (A) (A) (A) (A) (A) (A) (A) (A)
                 (A) (A) (A) (A) (A) (A) (A) (A) (A) (A) (A) (A)
                 (A) (A) (A) (A) (A) (A) (A) (A) (A) (A) (A) (A)
                 (A) (A) (A) (A) (A) (A) (A) (A) (A) (A) (A) (A)
                 (A) (A) (A) (A) (A) (A) (A) (A) (A) (A) (A) (A)
                 (A) (A) (A) (A) (A) (A) (A) (A) (A) (A) (A) (A)
                 (A) (A) (A) (A) (A) (A) (A) (A) (A) (A) (A) (A)
                 (A) (A) (A) (A) (A) (A) (A) (A) (A) (A) (A) (A)
                 (A) (A) (A) (A) (A) (A) (A) (A) (A) (A) (A) (A)
                 (A) (A) (A) (A) (A) (A) (A) (A) (A) (A) (A) (A)
                 (A) (A) (A) (A) (A) (A) (A) (A) (A) (A) (A) (A)
                 (A) (A) (A) (A) (A) (A) (A) (A) (A) (A) (A) (A)
                 (A) (A) (A) (A) (A) (A) (A) (A) (A) (A) (A) (A)
                 (A) (A) (A) (A) (A) (A) (A) (A) (A) (A) (A) (A)
                 (A) (A) (A) (A) (A) (A) (A) (A) (A) (A) (A) (A)
                 (A) (A) (A) (A) (A) (A) (A) (A) (A) (A) (A) (A)
                 (A) (A) (A) (A) (A) (A) (A) (A) (A) (A) (A) (A)
                 (A) (A) (A) (A) (A) (A) (A) (A) (A) (A) (A) (A)
                 (A) (A) (A) (A) (A) (A) (A) (A) (A) (A) (A) (A)
                 (A) (A) (A) (A) (A) (A) (A) (A) (A) (A) (A) (A)
                 (A) (A) (A) (A) (A) (A) (A) (A) (A) (A) (A) (A)
                 (A) (A) (A) (A) (A) (A) (A) (A) (A) (A) (A) (A)
                 (A) (A) (A) (A) (A) (A) (A) (A) (A) (A) (A) (A)
                 (A) (A) (A) (A) (A) (A) (A) (A) (A) (A) (A) (A)
                 (A) (A) (A) (A) (A) (A) (A) (A) (A) (A) (A) (A)
                 (A) (A) (A) (A) (A) (A) (A) (A) (A) (A) (A) (A)
                 (A) (A) (A) (A) (A) (A) (A) (A) (A) (A) (A) (A)
                 (A) (A) (A) (A) (A) (A) (A) (A) (A) (A) (A) (A)
                 (A) (A) (A) (A) (A) (A) (A) (A) (A) (A) (A) (A)
                 (A) (A) (A) (A) (A) (A) (A) (A) (A) (A) (A) (A)
                 (A) (A) (A) (A) (A) (A) (A) (A) (A) (A) (A) (A)
                 (A) (A) (A) (A) (A) (A) (A) (A) (A) (A) (A) (A)
                 (A) (A) (A) (A) (A) (A) (A) (A) (A) (A) (A) (A)
                 (A) (A) (A) (A) (A) (A) (A) (A) (A) (A) (A) (A)
                 (A) (A) (A) (A) (A) (A) (A) (A) (A) (A) (A) (A)
                 (A) (A) (A) (A) (A) (A) (A) (A) (A) (A) (A) (A)
                 (A) (A) (A) (A) (A) (A) (A) (A) (A) (A) (A) (A)
                 (A) (A) (A) (A) (A) (A) (A) (A) (A) (A) (A) (A)
                 (A) (A) (A) (A) (A) (A) (A) (A) (A) (A) (A) (A)
                 (A) (A) (A) (A) (A) (A) (A) (A) (A) (A) (A) (A)
                 (A) (A) (A) (A) (A) (A) (A) (A) (A) (A) (A) (A)
                 (A) (A) (A) (A) (A) (A) (A) (A) (A) (A) (A) (A)
                 (A) (A) (A) (A) (A) (A) (A) (A) (A) (A) (A) (A)
                 (A) (A) (A) (A) (A) (A) (A) (A) (A) (A) (A) (A)
                 (A) (A) (A) (A) (A) (A) (A) (A) (A) (A) (A) (A)
                 (A) (A) (A) (A) (A) (A) (A) (A) (A) (A) (A) (A)
                 (A) (A) (A) (A) (A) (A) (A) (A) (A) (A) (A) (A)
                 (A) (A) (A) (A) (A) (A) (A) (A) (A) (A) (A) (A)
                 (A) (A) (A) (A) (A) (A) (A) (A) (A) (A) (A) (A)
                 (A) (A) (A) (A) (A) (A) (A) (A) (A) (A) (A) (A)
                 (A) (A) (A) (A) (A) (A) (A) (A) (A) (A) (A) (A)
                 (A) (A) (A) (A) (A) (A) (A) (A) (A) (A) (A) (A)
                 (A) (A) (A) (A) (A) (A) (A) (A) (A) (A) (A) (A)
                 (A) (A) (A) (A) (A) (A) (A) (A) (A) (A) (A) (A)
                 (A) (A) (A) (A) (A) (A) (A) (A) (A) (A) (A) (A)
                 (A) (A) (A) (A) (A) (A) (A) (A) (A) (A) (A) (A)
                 (A) (A) (A) (A) (A) (A) (A) (A) (A) (A) (A) (A)
                 (A) (A) (A) (A) (A) (A) (A) (A) (A) (A) (A) (A)
                 (A) (A) (A) (A) (A) (A) (A) (A) (A) (A) (A) (A)
                 (A) (A) (A) (A) (A) (A) (A) (A) (A) (A) (A) (A)
                 (A) (A) (A) (A) (A) (A) (A) (A) (A) (A) (A) (A)
                 (A) (A) (A) (A) (A) (A) (A) (A) (A) (A) (A) (A)
                 (A) (A) (A) (A) (A) (A) (A) (A) (A) (A) (A) (A)
                 (A) (A) (A) (A) (A) (A) (A) (A) (A) (A) (A) (A)
                 (A) (A) (A) (A) (A) (A) (A) (A) (A) (A) (A) (A)
                 (A) (A) (A) (A) (A) (A) (A) (A) (A) (A) (A) (A)
                 (A) (A) (A) (A) (A) (A) (A) (A) (A) (A) (A) (A)
                 (A) (A) (A) (A) (A) (A) (A) (A) (A) (A) (A) (A)
                 (A) (A) (A) (A) (A) (A) (A) (A) (A) (A) (A) (A)
                 (A) (A) (A) (A) (A) (A) (A) (A) (A) (A) (A) (A)
                 (A) (A) (A) (A) (A) (A) (A) (A) (A) (A) (A) (A)
                 (A) (A) (A) (A) (A) (A) (A) (A) (A) (A) (A) (A)
                 (A) (A) (A) (A) (A) (A) (A) (A) (A) (A) (A) (A)
                 (A) (A) (A) (A) (A) (A) (A) (A) (A) (A) (A) (A)
                 (A) (A) (A) (A) (A) (A) (A) (A) (A) (A) (A) (A)
                 (A) (A) (A) (A) (A) (A) (A) (A) (A) (A) (A) (A)
                 (A) (A) (A) (A) (A) (A) (A) (A) (A) (A) (A) (A)
                 (A) (A) (A) (A) (A) (A) (A) (A) (A) (A) (A) (A)
                 (A) (A) (A) (A) (A) (A) (A) (A) (A) (A) (A) (A)
                 (A) (A) (A) (A) (A) (A) (A) (A) (A) (A) (A) (A)
                 (A) (A) (A) (A) (A) (A) (A) (A) (A) (A) (A) (A)
                 (A) (A) (A) (A) (A) (A) (A) (A) (A) (A) (A) (A)
                 (A) (A) (A) (A) (A) (A) (A) (A) (A) (A) (A) (A)
                 (A) (A) (A) (A) (A) (A) (A) (A) (A) (A) (A) (A)
                 (A) (A) (A) (A) (A) (A) (A) (A) (A) (A) (A) (A)
                 (A) (A) (A) (A) (A) (A) (A) (A) (A) (A) (A) (A)
                 (A) (A) (A) (A) (A) (A) (A) (A) (A) (A) (A) (A)
                 (A) (A) (A) (A) (A) (A) (A) (A) (A) (A) (A) (A)
                 (A) (A) (A) (A) (A) (A) (A) (A) (A) (A) (A) (A)
                 (A) (A) (A) (A) (A) (A) (A) (A) (A) (A) (A) (A)
                 (A) (A) (A) (A) (A) (A) (A) (A) (A) (A) (A) (A)
                 (A) (A) (A) (A) (A) (A) (A) (A) (A) (A) (A) (A)
                 (A) (A) (A) (A) (A) (A) (A) (A) (A) (A) (A) (A)
                 (A) (A) (A) (A) (A) (A) (A) (A) (A) (A) (A) (A)
                 (A) (A) (A) (A) (A) (A) (A) (A) (A) (A) (A) (A)
                 (A) (A) (A) (A) (A) (A) (A) (A) (A) (A) (A) (A)
                 (A) (A) (A) (A) (A) (A) (A) (A) (A) (A) (A) (A)
                 (A) (A) (A) (A) (A) (A) (A) (A) (A) (A) (A) (A)
                 (A) (A) (A) (A) (A) (A) (A) (A) (A) (A) (A) (A)
                 (A)
   200 initial guesses have been made.
 Convergence on wavefunction:    0.001000000000000
 Davidson Disk Diagonalization:  ConvIn= 1.00D-03 SkipCon=T Conv= 1.00D-03.
 Max sub-space:   800 roots to seek:   200 dimension of matrix:       371518
 Iteration     1 Dimension   200 NMult     0 NNew    200
 CISAX will form    72 AO SS matrices at one time.
 NMat=    72 NSing=    72 JSym2X= 0.
 FoFJK:  IHMeth= 1 ICntrl=       0 DoSepK=F KAlg= 0 I1Cent=   0 FoldK=F
 IRaf=         0 NMat= 144 IRICut=       1 DoRegI=T DoRafI=F ISym2E= 0.
 NMat=    72 NSing=    72 JSym2X= 0.
 NMat=    56 NSing=    56 JSym2X= 0.
 New state      2 was old state      3
 New state      3 was old state      2
 New state      8 was old state      9
 New state      9 was old state     11
 New state     10 was old state      8
 New state     11 was old state     12
 New state     12 was old state     13
 New state     13 was old state     22
 New state     14 was old state     15
 New state     15 was old state     10
 New state     17 was old state     14
 New state     18 was old state     19
 New state     19 was old state     21
 New state     20 was old state     17
 New state     21 was old state     24
 New state     22 was old state     26
 New state     23 was old state     20
 New state     24 was old state     30
 New state     25 was old state     23
 New state     26 was old state     25
 New state     28 was old state     35
 New state     29 was old state     28
 New state     30 was old state     29
 New state     31 was old state     32
 New state     32 was old state     18
 New state     33 was old state     31
 New state     34 was old state     33
 New state     35 was old state     34
 New state     38 was old state     39
 New state     39 was old state     38
 New state     40 was old state     41
 New state     41 was old state     44
 New state     42 was old state     40
 New state     43 was old state     45
 New state     44 was old state     49
 New state     45 was old state     47
 New state     46 was old state     43
 New state     47 was old state     51
 New state     48 was old state     42
 New state     49 was old state     46
 New state     50 was old state     48
 Excitation Energies [eV] at current iteration:
 Root      1 :     2.792921506501573
 Root      2 :     3.021707243085113
 Root      3 :     3.141820668623605
 Root      4 :     3.327751034946813
 Root      5 :     3.469519090131462
 Root      6 :     3.532646001373959
 Root      7 :     4.232454820698552
 Root      8 :     4.265250212972116
 Root      9 :     4.293815363361058
 Root     10 :     4.311080321521296
 Root     11 :     4.329592374838912
 Root     12 :     4.338738272072461
 Root     13 :     4.351414506129032
 Root     14 :     4.365350432005116
 Root     15 :     4.373188140285173
 Root     16 :     4.403662418539972
 Root     17 :     4.420926542136537
 Root     18 :     4.435152165207567
 Root     19 :     4.463779764045614
 Root     20 :     4.486700146688398
 Root     21 :     4.491109395474957
 Root     22 :     4.520293273638218
 Root     23 :     4.522191722693729
 Root     24 :     4.547677175272646
 Root     25 :     4.573658991470896
 Root     26 :     4.592924260481806
 Root     27 :     4.606558354861109
 Root     28 :     4.622469874027403
 Root     29 :     4.653810992934895
 Root     30 :     4.661137110441934
 Root     31 :     4.675176875573541
 Root     32 :     4.689550295685649
 Root     33 :     4.709592705407693
 Root     34 :     4.729407815604322
 Root     35 :     4.768308260219158
 Root     36 :     4.793986556327170
 Root     37 :     4.846822795036262
 Root     38 :     4.851597043864329
 Root     39 :     4.862000448048190
 Root     40 :     4.883642324153936
 Root     41 :     4.894550607002542
 Root     42 :     4.917399860151062
 Root     43 :     4.932248645030514
 Root     44 :     4.949393939631777
 Root     45 :     4.964138047239098
 Root     46 :     4.984520219729078
 Root     47 :     5.002635779740706
 Root     48 :     5.021631008530474
 Root     49 :     5.029827990589342
 Root     50 :     5.051818630350981
 Root     51 :     5.061471443126478
 Root     52 :     5.099689630229578
 Root     53 :     5.112019978600463
 Root     54 :     5.134186955684121
 Root     55 :     5.138068535076616
 Root     56 :     5.188119495985817
 Root     57 :     5.283626408712281
 Root     58 :     5.334059472740369
 Root     59 :     5.344278890125709
 Root     60 :     5.385467615156713
 Root     61 :     5.437775961098868
 Root     62 :     5.442379199613151
 Root     63 :     5.536397911688157
 Root     64 :     5.566487278654533
 Root     65 :     5.663973222235327
 Root     66 :     5.668105820846027
 Root     67 :     5.677652076641772
 Root     68 :     5.678565713656314
 Root     69 :     5.694967332439994
 Root     70 :     5.707845598028045
 Root     71 :     5.714987323084721
 Root     72 :     5.722157940289291
 Root     73 :     5.741246883037706
 Root     74 :     5.791409371278451
 Root     75 :     5.803807731749155
 Root     76 :     5.820261845545564
 Root     77 :     5.839062526448058
 Root     78 :     5.844742211350954
 Root     79 :     5.870491778222851
 Root     80 :     5.885869628084881
 Root     81 :     5.895170513257657
 Root     82 :     5.899090794201681
 Root     83 :     5.908519390872554
 Root     84 :     5.912235002865796
 Root     85 :     5.946351354483828
 Root     86 :     5.957158448974478
 Root     87 :     5.966901018869438
 Root     88 :     5.977441178488705
 Root     89 :     5.979158998646052
 Root     90 :     5.990840323227003
 Root     91 :     6.001734699360680
 Root     92 :     6.015388255387481
 Root     93 :     6.020233501425487
 Root     94 :     6.030783112146040
 Root     95 :     6.032761303425414
 Root     96 :     6.040120092895015
 Root     97 :     6.053884660007824
 Root     98 :     6.059317813341949
 Root     99 :     6.063244600283280
 Root    100 :     6.068272354268563
 Root    101 :     6.070932841824450
 Root    102 :     6.087500450507243
 Root    103 :     6.093927846943376
 Root    104 :     6.100845344255301
 Root    105 :     6.116138701913213
 Root    106 :     6.123014968908820
 Root    107 :     6.126350726289065
 Root    108 :     6.135543562923045
 Root    109 :     6.136793594133724
 Root    110 :     6.145734979006944
 Root    111 :     6.162135527447758
 Root    112 :     6.167300728147886
 Root    113 :     6.172703176247191
 Root    114 :     6.178098959321590
 Root    115 :     6.180352638375660
 Root    116 :     6.189203614956464
 Root    117 :     6.193547828439248
 Root    118 :     6.205948787427378
 Root    119 :     6.215988376504828
 Root    120 :     6.221500102996286
 Root    121 :     6.226386958311297
 Root    122 :     6.240507084317173
 Root    123 :     6.241869219999323
 Root    124 :     6.253840690647503
 Root    125 :     6.269693984833121
 Root    126 :     6.287849213703846
 Root    127 :     6.291216232681444
 Root    128 :     6.294943554412812
 Root    129 :     6.302318031741600
 Root    130 :     6.323026035788692
 Root    131 :     6.328943231297006
 Root    132 :     6.335777484685238
 Root    133 :     6.339726245534949
 Root    134 :     6.349142000592616
 Root    135 :     6.352437897028322
 Root    136 :     6.382452912628548
 Root    137 :     6.387494156858939
 Root    138 :     6.398481339699886
 Root    139 :     6.404522436389296
 Root    140 :     6.405988058412738
 Root    141 :     6.413090978632983
 Root    142 :     6.419513112581130
 Root    143 :     6.424474765834375
 Root    144 :     6.434578245825128
 Root    145 :     6.446410846872972
 Root    146 :     6.453641767915625
 Root    147 :     6.457709828141672
 Root    148 :     6.464613941565855
 Root    149 :     6.469454514863443
 Root    150 :     6.489781532534749
 Root    151 :     6.493302930829930
 Root    152 :     6.500436183122453
 Root    153 :     6.510455816463326
 Root    154 :     6.531002685183745
 Root    155 :     6.542532409321629
 Root    156 :     6.554362475148509
 Root    157 :     6.564170242673354
 Root    158 :     6.570989398469629
 Root    159 :     6.582056162164736
 Root    160 :     6.584978268778044
 Root    161 :     6.595064934313913
 Root    162 :     6.598049545588895
 Root    163 :     6.611185141913051
 Root    164 :     6.618493921305602
 Root    165 :     6.622255660641929
 Root    166 :     6.624364003625085
 Root    167 :     6.642292202421033
 Root    168 :     6.649351846875025
 Root    169 :     6.656429149807253
 Root    170 :     6.670317568161383
 Root    171 :     6.684323919225070
 Root    172 :     6.686834718370275
 Root    173 :     6.709230771663724
 Root    174 :     6.723408226108737
 Root    175 :     6.724013901746082
 Root    176 :     6.730632602564388
 Root    177 :     6.746788233796154
 Root    178 :     6.756332787818751
 Root    179 :     6.764172778878299
 Root    180 :     6.781034645123285
 Root    181 :     6.791927460271128
 Root    182 :     6.798718319654004
 Root    183 :     6.811690946273895
 Root    184 :     6.827699987152183
 Root    185 :     6.840025029444430
 Root    186 :     6.870453485606308
 Root    187 :     6.900253406622317
 Root    188 :     7.076360432885908
 Root    189 :     7.385138506110237
 Root    190 :     7.427535967016722
 Root    191 :     7.521881641654538
 Root    192 :     7.561213878886551
 Root    193 :     7.572047620728831
 Root    194 :     7.628346412778045
 Root    195 :     7.680378663365278
 Root    196 :     7.699829306050133
 Root    197 :     7.803596158300404
 Root    198 :     8.284284179852326
 Root    199 :     8.308962961619020
 Root    200 :     8.388864892323172
 Iteration     2 Dimension   300 NMult   200 NNew    100
 CISAX will form   100 AO SS matrices at one time.
 NMat=   100 NSing=   100 JSym2X= 0.
 Root      1 not converged, maximum delta is    0.095556500839793
 Root      2 not converged, maximum delta is    0.126017973466795
 Root      3 not converged, maximum delta is    0.213085466009283
 Root      4 not converged, maximum delta is    0.161579203434267
 Root      5 not converged, maximum delta is    0.146650399144659
 Root      6 not converged, maximum delta is    0.131446260834112
 Root      7 not converged, maximum delta is    0.376899742910478
 Root      8 not converged, maximum delta is    0.411299296795570
 New state      9 was old state     11
 Root      9 not converged, maximum delta is    0.215277550482826
 New state     10 was old state     12
 Root     10 not converged, maximum delta is    0.379831878118270
 New state     11 was old state     10
 Root     11 not converged, maximum delta is    0.316449846953683
 New state     12 was old state      9
 Root     12 not converged, maximum delta is    0.245116652652935
 Root     13 not converged, maximum delta is    0.120307650340001
 Root     14 not converged, maximum delta is    0.325042491158326
 Root     15 not converged, maximum delta is    0.344175172316234
 Root     16 not converged, maximum delta is    0.226953866758679
 Root     17 not converged, maximum delta is    0.268182886753491
 Root     18 not converged, maximum delta is    0.135910426899870
 Root     19 not converged, maximum delta is    0.258960211676771
 Root     20 not converged, maximum delta is    0.288326125631987
 Root     21 not converged, maximum delta is    0.249459850794018
 New state     22 was old state     23
 Root     22 not converged, maximum delta is    0.449039620113378
 New state     23 was old state     22
 Root     23 not converged, maximum delta is    0.364366099712259
 New state     24 was old state     25
 Root     24 not converged, maximum delta is    0.336427962879171
 New state     25 was old state     24
 Root     25 not converged, maximum delta is    0.375903774422421
 New state     26 was old state     31
 Root     26 not converged, maximum delta is    0.263441449598543
 New state     27 was old state     26
 Root     27 not converged, maximum delta is    0.349983307001534
 Root     28 not converged, maximum delta is    0.321132015348342
 New state     29 was old state     27
 Root     29 not converged, maximum delta is    0.349991634879066
 New state     30 was old state     32
 Root     30 not converged, maximum delta is    0.340265179033731
 New state     31 was old state     29
 Root     31 not converged, maximum delta is    0.297816681188271
 New state     32 was old state     30
 Root     32 not converged, maximum delta is    0.344435308702447
 Root     33 not converged, maximum delta is    0.138473265930396
 Root     34 not converged, maximum delta is    0.169470480388133
 Root     35 not converged, maximum delta is    0.211865804959463
 Root     36 not converged, maximum delta is    0.250108913365053
 New state     37 was old state     38
 Root     37 not converged, maximum delta is    0.219721069459190
 New state     38 was old state     37
 Root     38 not converged, maximum delta is    0.365031592521332
 Root     39 not converged, maximum delta is    0.203669489822824
 New state     40 was old state     41
 Root     40 not converged, maximum delta is    0.227315512102609
 New state     41 was old state     40
 Root     41 not converged, maximum delta is    0.248014755078672
 Root     42 not converged, maximum delta is    0.388353806399425
 New state     43 was old state     45
 Root     43 not converged, maximum delta is    0.350361798932357
 New state     44 was old state     43
 Root     44 not converged, maximum delta is    0.263658825554908
 New state     45 was old state     44
 Root     45 not converged, maximum delta is    0.387488014942475
 Root     46 not converged, maximum delta is    0.276595144728894
 Root     47 not converged, maximum delta is    0.304527713422074
 New state     48 was old state     49
 Root     48 not converged, maximum delta is    0.165153174102252
 New state     49 was old state     48
 Root     49 not converged, maximum delta is    0.133516389627886
 Root     50 not converged, maximum delta is    0.297121634450467
 Excitation Energies [eV] at current iteration:
 Root      1 :     2.745346008727942   Change is   -0.047575497773631
 Root      2 :     2.912696063145925   Change is   -0.109011179939187
 Root      3 :     2.994608267068048   Change is   -0.147212401555557
 Root      4 :     3.169758632763729   Change is   -0.157992402183084
 Root      5 :     3.376163622095287   Change is   -0.093355468036175
 Root      6 :     3.432679582610739   Change is   -0.099966418763220
 Root      7 :     4.121025071393698   Change is   -0.111429749304853
 Root      8 :     4.194382994027049   Change is   -0.070867218945067
 Root      9 :     4.221573666176336   Change is   -0.108018708662576
 Root     10 :     4.248917488271069   Change is   -0.089820783801391
 Root     11 :     4.263086193312834   Change is   -0.047994128208463
 Root     12 :     4.274780424436315   Change is   -0.019034938924743
 Root     13 :     4.296752239726572   Change is   -0.054662266402460
 Root     14 :     4.313757369536916   Change is   -0.051593062468200
 Root     15 :     4.347134003117559   Change is   -0.026054137167613
 Root     16 :     4.365226296691412   Change is   -0.038436121848561
 Root     17 :     4.385535688219833   Change is   -0.035390853916704
 Root     18 :     4.420489035645257   Change is   -0.014663129562310
 Root     19 :     4.435701020725205   Change is   -0.028078743320409
 Root     20 :     4.449241623220514   Change is   -0.037458523467884
 Root     21 :     4.466878848670545   Change is   -0.024230546804411
 Root     22 :     4.484737756118998   Change is   -0.037453966574731
 Root     23 :     4.492553828090322   Change is   -0.027739445547897
 Root     24 :     4.511600748051608   Change is   -0.062058243419289
 Root     25 :     4.512798805535159   Change is   -0.034878369737488
 Root     26 :     4.539060426470073   Change is   -0.136116449103469
 Root     27 :     4.550235875231204   Change is   -0.042688385250602
 Root     28 :     4.579959349666151   Change is   -0.042510524361253
 Root     29 :     4.603083219290037   Change is   -0.003475135571072
 Root     30 :     4.618316801396461   Change is   -0.071233494289187
 Root     31 :     4.637361158498865   Change is   -0.016449834436030
 Root     32 :     4.640117309233395   Change is   -0.021019801208539
 Root     33 :     4.672891259605943   Change is   -0.036701445801750
 Root     34 :     4.693505497212084   Change is   -0.035902318392238
 Root     35 :     4.727602849408222   Change is   -0.040705410810936
 Root     36 :     4.742893794712136   Change is   -0.051092761615035
 Root     37 :     4.770479216954011   Change is   -0.081117826910318
 Root     38 :     4.776445883642383   Change is   -0.070376911393880
 Root     39 :     4.818235526296450   Change is   -0.043764921751740
 Root     40 :     4.828794127268853   Change is   -0.065756479733690
 Root     41 :     4.854661970235991   Change is   -0.028980353917944
 Root     42 :     4.864214132490763   Change is   -0.053185727660299
 Root     43 :     4.879419962843125   Change is   -0.084718084395974
 Root     44 :     4.901080748935873   Change is   -0.031167896094641
 Root     45 :     4.922984490657023   Change is   -0.026409448974754
 Root     46 :     4.937451790824769   Change is   -0.047068428904310
 Root     47 :     4.957531328354801   Change is   -0.045104451385906
 Root     48 :     4.985966420458098   Change is   -0.043861570131244
 Root     49 :     4.999495492163438   Change is   -0.022135516367036
 Root     50 :     5.017251746773829   Change is   -0.034566883577152
 Iteration     3 Dimension   400 NMult   300 NNew    100
 CISAX will form   100 AO SS matrices at one time.
 NMat=   100 NSing=   100 JSym2X= 0.
 Root      1 not converged, maximum delta is    0.006383520884679
 Root      2 not converged, maximum delta is    0.006102225205780
 Root      3 not converged, maximum delta is    0.005769550539648
 Root      4 not converged, maximum delta is    0.003930486537039
 Root      5 not converged, maximum delta is    0.015212625578357
 Root      6 not converged, maximum delta is    0.015091591373167
 Root      7 not converged, maximum delta is    0.009307183793685
 Root      8 not converged, maximum delta is    0.011983448555380
 Root      9 not converged, maximum delta is    0.008700997443763
 Root     10 not converged, maximum delta is    0.030575096034448
 Root     11 not converged, maximum delta is    0.029814175873192
 Root     12 not converged, maximum delta is    0.022825094161195
 Root     13 not converged, maximum delta is    0.007559139481452
 Root     14 not converged, maximum delta is    0.017259384031294
 Root     15 not converged, maximum delta is    0.005918800957415
 Root     16 not converged, maximum delta is    0.011556705490820
 Root     17 not converged, maximum delta is    0.004662252768145
 Root     18 not converged, maximum delta is    0.016329746712521
 Root     19 not converged, maximum delta is    0.027219146693959
 Root     20 not converged, maximum delta is    0.027300981459544
 Root     21 not converged, maximum delta is    0.016302640005015
 Root     22 not converged, maximum delta is    0.023549795923842
 Root     23 not converged, maximum delta is    0.011123702399229
 Root     24 not converged, maximum delta is    0.184562903031957
 Root     25 not converged, maximum delta is    0.111411371388720
 Root     26 not converged, maximum delta is    0.014242947082202
 Root     27 not converged, maximum delta is    0.017317233902018
 Root     28 not converged, maximum delta is    0.016392848359777
 Root     29 not converged, maximum delta is    0.011890544276902
 Root     30 not converged, maximum delta is    0.005339746695136
 Root     31 not converged, maximum delta is    0.016726888733417
 Root     32 not converged, maximum delta is    0.014044082908612
 Root     33 not converged, maximum delta is    0.021334973669280
 Root     34 not converged, maximum delta is    0.013426959183936
 Root     35 not converged, maximum delta is    0.021452185227698
 Root     36 not converged, maximum delta is    0.031760990417293
 Root     37 not converged, maximum delta is    0.023741524139096
 Root     38 not converged, maximum delta is    0.015862181119719
 Root     39 not converged, maximum delta is    0.021698107815002
 Root     40 not converged, maximum delta is    0.023851168236519
 Root     41 not converged, maximum delta is    0.052980795761228
 Root     42 not converged, maximum delta is    0.068953042544943
 Root     43 not converged, maximum delta is    0.018691961942217
 Root     44 not converged, maximum delta is    0.024924417135218
 Root     45 not converged, maximum delta is    0.046191924896502
 Root     46 not converged, maximum delta is    0.027042943364757
 Root     47 not converged, maximum delta is    0.025119881814969
 Root     48 not converged, maximum delta is    0.014665849775899
 Root     49 not converged, maximum delta is    0.033904456709033
 Root     50 not converged, maximum delta is    0.080247630462301
 Excitation Energies [eV] at current iteration:
 Root      1 :     2.742627751434615   Change is   -0.002718257293326
 Root      2 :     2.908158963977340   Change is   -0.004537099168585
 Root      3 :     2.989847655209925   Change is   -0.004760611858123
 Root      4 :     3.165354755206712   Change is   -0.004403877557017
 Root      5 :     3.373111226472122   Change is   -0.003052395623165
 Root      6 :     3.429028712012831   Change is   -0.003650870597908
 Root      7 :     4.114674898505806   Change is   -0.006350172887893
 Root      8 :     4.189996725046676   Change is   -0.004386268980373
 Root      9 :     4.215620354136688   Change is   -0.005953312039648
 Root     10 :     4.245834187754939   Change is   -0.003083300516130
 Root     11 :     4.260533815984433   Change is   -0.002552377328401
 Root     12 :     4.272893996461020   Change is   -0.001886427975295
 Root     13 :     4.293680389047350   Change is   -0.003071850679221
 Root     14 :     4.311009477108237   Change is   -0.002747892428679
 Root     15 :     4.346126625349873   Change is   -0.001007377767686
 Root     16 :     4.363138065133924   Change is   -0.002088231557487
 Root     17 :     4.384732118556516   Change is   -0.000803569663317
 Root     18 :     4.419865194479636   Change is   -0.000623841165621
 Root     19 :     4.433514847300858   Change is   -0.002186173424347
 Root     20 :     4.445816596450549   Change is   -0.003425026769965
 Root     21 :     4.465162712638501   Change is   -0.001716136032044
 Root     22 :     4.482671418890354   Change is   -0.002066337228644
 Root     23 :     4.491634288494123   Change is   -0.000919539596198
 Root     24 :     4.509762742285088   Change is   -0.001838005766520
 Root     25 :     4.511658349221905   Change is   -0.001140456313253
 Root     26 :     4.535997258606157   Change is   -0.003063167863916
 Root     27 :     4.548082831098549   Change is   -0.002153044132655
 Root     28 :     4.577929434137444   Change is   -0.002029915528706
 Root     29 :     4.601860563107354   Change is   -0.001222656182683
 Root     30 :     4.615928129447948   Change is   -0.002388671948514
 Root     31 :     4.636079065825372   Change is   -0.001282092673492
 Root     32 :     4.638832197091323   Change is   -0.001285112142073
 Root     33 :     4.670074589504097   Change is   -0.002816670101846
 Root     34 :     4.692084722112957   Change is   -0.001420775099127
 Root     35 :     4.724701177500886   Change is   -0.002901671907335
 Root     36 :     4.739711990285087   Change is   -0.003181804427049
 Root     37 :     4.765026360910454   Change is   -0.005452856043557
 Root     38 :     4.772131735871724   Change is   -0.004314147770658
 Root     39 :     4.815902290123882   Change is   -0.002333236172569
 Root     40 :     4.824401805430480   Change is   -0.004392321838373
 Root     41 :     4.852132283739343   Change is   -0.002529686496648
 Root     42 :     4.860577840121628   Change is   -0.003636292369135
 Root     43 :     4.877308270696346   Change is   -0.002111692146778
 Root     44 :     4.898409972960703   Change is   -0.002670775975169
 Root     45 :     4.918925886451388   Change is   -0.004058604205635
 Root     46 :     4.934614377520508   Change is   -0.002837413304261
 Root     47 :     4.954478767847966   Change is   -0.003052560506834
 Root     48 :     4.983725497175582   Change is   -0.002240923282516
 Root     49 :     4.998379995860891   Change is   -0.001115496302547
 Root     50 :     5.007992121950214   Change is   -0.009259624823615
 Iteration     4 Dimension   500 NMult   400 NNew    100
 CISAX will form   100 AO SS matrices at one time.
 NMat=   100 NSing=   100 JSym2X= 0.
 Root      1 has converged.
 Root      2 has converged.
 Root      3 has converged.
 Root      4 has converged.
 Root      5 has converged.
 Root      6 has converged.
 Root      7 has converged.
 Root      8 has converged.
 Root      9 has converged.
 Root     10 not converged, maximum delta is    0.001532181300437
 Root     11 not converged, maximum delta is    0.001535725807962
 Root     12 not converged, maximum delta is    0.001237634948464
 Root     13 has converged.
 Root     14 has converged.
 Root     15 has converged.
 Root     16 has converged.
 Root     17 has converged.
 Root     18 has converged.
 Root     19 not converged, maximum delta is    0.001241571161476
 Root     20 not converged, maximum delta is    0.001448760944278
 Root     21 has converged.
 Root     22 not converged, maximum delta is    0.001224411523470
 Root     23 has converged.
 Root     24 not converged, maximum delta is    0.005419507710512
 Root     25 not converged, maximum delta is    0.003678927883734
 Root     26 has converged.
 Root     27 has converged.
[...]
 Alpha virt. eigenvalues --    2.56650   2.57341   2.57858   2.59075   2.59934
 Alpha virt. eigenvalues --    2.60158   2.60345   2.60901   2.61157   2.61238
 Alpha virt. eigenvalues --    2.62062   2.62254   2.62801   2.62886   2.63108
 Alpha virt. eigenvalues --    2.63597   2.63901   2.64040   2.64196   2.64586
 Alpha virt. eigenvalues --    2.64717   2.64961   2.65166   2.65324   2.65690
 Alpha virt. eigenvalues --    2.65925   2.66132   2.66156   2.66338   2.66440
 Alpha virt. eigenvalues --    2.66753   2.66861   2.67003   2.67360   2.67417
 Alpha virt. eigenvalues --    2.67762   2.67818   2.67937   2.67995   2.68428
 Alpha virt. eigenvalues --    2.68560   2.68804   2.69048   2.69189   2.69496
 Alpha virt. eigenvalues --    2.69701   2.69937   2.70268   2.70342   2.70927
 Alpha virt. eigenvalues --    2.71450   2.71623   2.72232   2.72438   2.72648
 Alpha virt. eigenvalues --    2.72712   2.73077   2.73301   2.73774   2.74234
 Alpha virt. eigenvalues --    2.74351   2.74441   2.74830   2.74977   2.75381
 Alpha virt. eigenvalues --    2.75581   2.75796   2.76034   2.76236   2.76410
 Alpha virt. eigenvalues --    2.76740   2.77149   2.77173   2.77520   2.77738
 Alpha virt. eigenvalues --    2.77957   2.78136   2.78310   2.78501   2.78831
 Alpha virt. eigenvalues --    2.79449   2.79620   2.79806   2.80078   2.80342
 Alpha virt. eigenvalues --    2.80518   2.80669   2.81012   2.81400   2.81534
 Alpha virt. eigenvalues --    2.81899   2.82350   2.82523   2.82957   2.83169
 Alpha virt. eigenvalues --    2.83505   2.83944   2.84189   2.84477   2.84593
 Alpha virt. eigenvalues --    2.84881   2.85009   2.85380   2.85521   2.85886
 Alpha virt. eigenvalues --    2.86103   2.86233   2.86650   2.86838   2.87079
 Alpha virt. eigenvalues --    2.87353   2.87420   2.87704   2.88008   2.88161
 Alpha virt. eigenvalues --    2.88657   2.88922   2.89100   2.89262   2.89670
 Alpha virt. eigenvalues --    2.89953   2.90197   2.90482   2.90845   2.91099
 Alpha virt. eigenvalues --    2.91257   2.92277   2.92471   2.92646   2.92762
 Alpha virt. eigenvalues --    2.93118   2.93417   2.94048   2.94152   2.94352
 Alpha virt. eigenvalues --    2.94862   2.95214   2.95410   2.95692   2.95762
 Alpha virt. eigenvalues --    2.96674   2.96879   2.97338   2.97798   2.98285
 Alpha virt. eigenvalues --    2.98437   2.98778   2.99645   3.00154   3.00619
 Alpha virt. eigenvalues --    3.00989   3.01289   3.01879   3.02161   3.02569
 Alpha virt. eigenvalues --    3.02807   3.03299   3.03809   3.04923   3.05560
 Alpha virt. eigenvalues --    3.05966   3.06775   3.06883   3.07374   3.07676
 Alpha virt. eigenvalues --    3.08004   3.08484   3.08632   3.09186   3.09374
 Alpha virt. eigenvalues --    3.09867   3.09965   3.10367   3.10989   3.11347
 Alpha virt. eigenvalues --    3.11549   3.11935   3.12234   3.12395   3.12622
 Alpha virt. eigenvalues --    3.12690   3.12847   3.13027   3.13489   3.13776
 Alpha virt. eigenvalues --    3.14129   3.14347   3.14668   3.14805   3.14986
 Alpha virt. eigenvalues --    3.15194   3.15395   3.15708   3.15825   3.16239
 Alpha virt. eigenvalues --    3.16510   3.17015   3.17113   3.17348   3.17486
 Alpha virt. eigenvalues --    3.17927   3.18033   3.18205   3.18424   3.18662
 Alpha virt. eigenvalues --    3.19106   3.19381   3.19715   3.20117   3.20255
 Alpha virt. eigenvalues --    3.20668   3.20783   3.21060   3.21236   3.21291
 Alpha virt. eigenvalues --    3.21753   3.22082   3.22669   3.23005   3.23245
 Alpha virt. eigenvalues --    3.23688   3.23950   3.24432   3.24557   3.24895
 Alpha virt. eigenvalues --    3.25289   3.25568   3.25796   3.25902   3.26177
 Alpha virt. eigenvalues --    3.26487   3.26713   3.27115   3.27461   3.27818
 Alpha virt. eigenvalues --    3.28374   3.28458   3.28641   3.29004   3.29449
 Alpha virt. eigenvalues --    3.29814   3.29973   3.30166   3.30230   3.30531
 Alpha virt. eigenvalues --    3.30682   3.30790   3.31772   3.32127   3.32330
 Alpha virt. eigenvalues --    3.32480   3.33182   3.33342   3.33638   3.34079
 Alpha virt. eigenvalues --    3.34333   3.34678   3.34819   3.34894   3.35174
 Alpha virt. eigenvalues --    3.35410   3.35880   3.36018   3.36412   3.36641
 Alpha virt. eigenvalues --    3.36886   3.37448   3.37608   3.37791   3.37952
 Alpha virt. eigenvalues --    3.38489   3.38781   3.39275   3.39731   3.39853
 Alpha virt. eigenvalues --    3.40100   3.40366   3.40394   3.40658   3.40777
 Alpha virt. eigenvalues --    3.41037   3.41386   3.41703   3.41965   3.42190
 Alpha virt. eigenvalues --    3.42297   3.42655   3.43173   3.43335   3.43467
 Alpha virt. eigenvalues --    3.43895   3.44041   3.44069   3.44755   3.44889
 Alpha virt. eigenvalues --    3.45202   3.45245   3.45619   3.45761   3.46033
 Alpha virt. eigenvalues --    3.46192   3.46798   3.47009   3.47193   3.47519
 Alpha virt. eigenvalues --    3.47690   3.48031   3.48370   3.48429   3.48694
 Alpha virt. eigenvalues --    3.48892   3.48980   3.49167   3.49418   3.49494
 Alpha virt. eigenvalues --    3.49564   3.49824   3.50054   3.50190   3.50395
 Alpha virt. eigenvalues --    3.50517   3.50778   3.51093   3.51347   3.51597
 Alpha virt. eigenvalues --    3.51646   3.52007   3.52786   3.52936   3.53187
 Alpha virt. eigenvalues --    3.53609   3.53701   3.54064   3.54526   3.54883
 Alpha virt. eigenvalues --    3.55057   3.55301   3.55604   3.55744   3.56241
 Alpha virt. eigenvalues --    3.56918   3.57059   3.57764   3.57885   3.58297
 Alpha virt. eigenvalues --    3.58665   3.59055   3.59290   3.59815   3.59950
 Alpha virt. eigenvalues --    3.60574   3.60781   3.61173   3.61883   3.62260
 Alpha virt. eigenvalues --    3.63443   3.64397   3.64822   3.65059   3.65860
 Alpha virt. eigenvalues --    3.66335   3.67173   3.67271   3.68346   3.68499
 Alpha virt. eigenvalues --    3.68698   3.68866   3.69691   3.70416   3.70613
 Alpha virt. eigenvalues --    3.71104   3.71621   3.71766   3.72195   3.72360
 Alpha virt. eigenvalues --    3.72683   3.73271   3.74077   3.74279   3.74440
 Alpha virt. eigenvalues --    3.74676   3.75454   3.76314   3.76715   3.77053
 Alpha virt. eigenvalues --    3.77627   3.78190   3.79188   3.79289   3.79570
 Alpha virt. eigenvalues --    3.79819   3.81149   3.81443   3.81853   3.82001
 Alpha virt. eigenvalues --    3.82176   3.83178   3.84101   3.84588   3.86155
 Alpha virt. eigenvalues --    3.87261   3.89914   3.90884   3.91486   3.91716
 Alpha virt. eigenvalues --    3.92390   3.92689   3.92712   3.93175   3.93302
 Alpha virt. eigenvalues --    3.94932   3.95447   3.95551   3.96460   3.96753
 Alpha virt. eigenvalues --    3.97033   3.97229   3.97791   3.97903   3.99028
 Alpha virt. eigenvalues --    3.99406   3.99897   4.00456   4.01139   4.01908
 Alpha virt. eigenvalues --    4.02362   4.03264   4.03345   4.03519   4.03930
 Alpha virt. eigenvalues --    4.03995   4.04335   4.04656   4.05180   4.05535
 Alpha virt. eigenvalues --    4.05820   4.06419   4.06641   4.06933   4.07262
 Alpha virt. eigenvalues --    4.07520   4.08013   4.08365   4.08735   4.09222
 Alpha virt. eigenvalues --    4.09818   4.10018   4.10343   4.10569   4.10665
 Alpha virt. eigenvalues --    4.11002   4.11626   4.11825   4.12495   4.13209
 Alpha virt. eigenvalues --    4.14254   4.14860   4.15089   4.15645   4.15816
 Alpha virt. eigenvalues --    4.16135   4.16633   4.16841   4.18171   4.18445
 Alpha virt. eigenvalues --    4.18836   4.19466   4.20021   4.20240   4.20416
 Alpha virt. eigenvalues --    4.20667   4.20877   4.21030   4.21544   4.21883
 Alpha virt. eigenvalues --    4.22211   4.22455   4.22669   4.23184   4.23956
 Alpha virt. eigenvalues --    4.24175   4.24769   4.24835   4.25160   4.25309
 Alpha virt. eigenvalues --    4.25764   4.25858   4.26152   4.26415   4.26638
 Alpha virt. eigenvalues --    4.27354   4.27862   4.28204   4.28510   4.28770
 Alpha virt. eigenvalues --    4.29259   4.29946   4.30145   4.30315   4.30796
 Alpha virt. eigenvalues --    4.31866   4.32056   4.32379   4.32803   4.33089
 Alpha virt. eigenvalues --    4.33266   4.33594   4.33843   4.34068   4.34772
 Alpha virt. eigenvalues --    4.35352   4.35561   4.36414   4.36652   4.36975
 Alpha virt. eigenvalues --    4.36991   4.37191   4.37579   4.38452   4.40056
 Alpha virt. eigenvalues --    4.40690   4.42079   4.42750   4.43484   4.44707
 Alpha virt. eigenvalues --    4.46644   4.46901   4.47511   4.48968   4.51080
 Alpha virt. eigenvalues --    4.52905   4.53851   4.54341   4.55760   4.57718
 Alpha virt. eigenvalues --    4.58821   4.59326   4.59949   4.60596   4.61256
 Alpha virt. eigenvalues --    4.62461   4.63213   4.63544   4.63743   4.64703
 Alpha virt. eigenvalues --    4.65024   4.65291   4.65531   4.66247   4.66320
 Alpha virt. eigenvalues --    4.67296   4.68028   4.68101   4.69298   4.69807
 Alpha virt. eigenvalues --    4.70852   4.71391   4.72093   4.72221   4.72937
 Alpha virt. eigenvalues --    4.73117   4.73661   4.73958   4.74226   4.74427
 Alpha virt. eigenvalues --    4.74715   4.75340   4.75786   4.76652   4.77092
 Alpha virt. eigenvalues --    4.77513   4.78493   4.78926   4.79961   4.82186
 Alpha virt. eigenvalues --    4.82677   4.84421   4.86418   4.87494   4.87845
 Alpha virt. eigenvalues --    4.88252   4.88826   4.89375   4.90338   4.90604
 Alpha virt. eigenvalues --    4.90655   4.91381   4.92046   4.93248   4.93577
 Alpha virt. eigenvalues --    4.94444   4.94923   4.95480   4.95837   4.96447
 Alpha virt. eigenvalues --    4.96852   4.98304   5.00462   5.03108   5.05207
 Alpha virt. eigenvalues --    5.06014   5.06229   5.08371   5.09699   5.09778
 Alpha virt. eigenvalues --    5.11167   5.12533   5.13280   5.13428   5.13609
 Alpha virt. eigenvalues --    5.13875   5.14914   5.17550   5.18708   5.19271
 Alpha virt. eigenvalues --    5.19663   5.21174   5.22409   5.23837   5.24503
 Alpha virt. eigenvalues --    5.24716   5.25469   5.25668   5.26138   5.26904
 Alpha virt. eigenvalues --    5.28293   5.28629   5.29365   5.29993   5.31031
 Alpha virt. eigenvalues --    5.32457   5.32535   5.33072   5.33913   5.34962
 Alpha virt. eigenvalues --    5.36075   5.36496   5.37508   5.37942   5.39325
 Alpha virt. eigenvalues --    5.40897   5.41335   5.42454   5.45027   5.45952
 Alpha virt. eigenvalues --    5.48419   5.49291   5.50455   5.52895   5.54104
 Alpha virt. eigenvalues --    5.55129   5.56991   5.57322   5.57924   5.58818
 Alpha virt. eigenvalues --    5.59656   5.60114   5.60789   5.64541   5.66246
 Alpha virt. eigenvalues --    5.66948   5.68360   5.74862   5.75073   5.76832
 Alpha virt. eigenvalues --    5.77889   5.78155   5.80561   5.82190   5.83202
 Alpha virt. eigenvalues --    5.84163   5.88870   5.93719   5.95215   5.97368
 Alpha virt. eigenvalues --    5.99352   6.00927   6.03783   6.05403   6.05882
 Alpha virt. eigenvalues --    6.06505   6.09600   6.13481   6.15561   6.17599
 Alpha virt. eigenvalues --    6.21609   6.22025   6.41862   6.45685   6.86084
 Alpha virt. eigenvalues --    6.88999   6.97302   7.10507   7.23234   7.45373
 Alpha virt. eigenvalues --    7.62100   8.40534   8.59103   8.77157   9.05264
 Alpha virt. eigenvalues --    9.08905  22.18612  22.18732  22.20353  22.24638
 Alpha virt. eigenvalues --   22.27341  22.28309  22.58781  22.59451  22.59910
 Alpha virt. eigenvalues --   22.60216  22.60282  22.60595  22.60979  22.61461
 Alpha virt. eigenvalues --   22.61548  22.61798  22.62120  22.62358  22.66171
 Alpha virt. eigenvalues --   22.78526  22.78713  22.79480  22.79677  22.80588
 Alpha virt. eigenvalues --   22.81517  22.82844  22.83485  22.84255  22.85858
 Alpha virt. eigenvalues --   22.86550  22.87146  23.06556  23.10741  23.15491
 Alpha virt. eigenvalues --   23.17882  23.19817  23.21894  23.22840  23.25403
 Alpha virt. eigenvalues --   23.26813  23.30885  23.56280  23.79416  23.89231
 Alpha virt. eigenvalues --   32.28501  32.29254  33.29339  33.30137  33.33497
 Alpha virt. eigenvalues --   57.56083
          Condensed to atoms (all electrons):
 Mulliken charges:
               1
     1  C   -0.159792
     2  C    0.508911
     3  C   -0.223504
     4  C    0.226492
     5  C   -0.234809
     6  C    0.182647
     7  C   -0.160266
     8  C   -0.130273
     9  F   -0.223386
    10  N   -0.056154
    11  N   -0.060814
    12  N    0.061521
    13  C    0.129756
    14  C    0.118565
    15  C   -0.230351
    16  C   -0.246229
    17  C   -0.219671
    18  C   -0.247978
    19  C   -0.152477
    20  H    0.172600
    21  C   -0.112670
    22  H    0.156694
    23  C   -0.150662
    24  H    0.170988
    25  C   -0.117073
    26  H    0.156607
    27  C   -0.162516
    28  H    0.148021
    29  H    0.149164
    30  C   -0.161375
    31  H    0.148296
    32  H    0.149489
    33  H    0.147939
    34  H    0.148342
    35  N    0.096645
    36  C    0.073971
    37  C    0.140352
    38  C   -0.202124
    39  C   -0.216099
    40  C   -0.219939
    41  C   -0.237001
    42  C   -0.149812
    43  H    0.168395
    44  C   -0.128027
    45  H    0.157884
    46  C   -0.154414
    47  H    0.170015
    48  C   -0.129417
    49  H    0.160644
    50  C   -0.148326
    51  H    0.149469
    52  H    0.150496
    53  C   -0.152862
    54  H    0.149815
    55  H    0.149867
    56  H    0.149745
    57  H    0.149038
    58  N    0.099129
    59  C    0.082178
    60  C    0.130768
    61  C   -0.201017
    62  C   -0.217078
    63  C   -0.210274
    64  C   -0.237868
    65  C   -0.149312
    66  H    0.166447
    67  C   -0.125191
    68  H    0.158511
    69  C   -0.150977
    70  H    0.170337
    71  C   -0.126853
    72  H    0.160432
    73  C   -0.150143
    74  H    0.150030
    75  H    0.150557
    76  C   -0.153534
    77  H    0.150224
    78  H    0.150260
    79  H    0.149650
    80  H    0.149386
 Sum of Mulliken charges =  -0.00000
 Mulliken charges with hydrogens summed into heavy atoms:
               1
     1  C   -0.159792
     2  C    0.508911
     3  C   -0.223504
     4  C    0.226492
     5  C   -0.234809
     6  C    0.182647
     7  C   -0.160266
     8  C   -0.130273
     9  F   -0.223386
    10  N   -0.056154
    11  N   -0.060814
    12  N    0.061521
    13  C    0.129756
    14  C    0.118565
    15  C   -0.057751
    16  C   -0.089535
    17  C   -0.048684
    18  C   -0.091372
    19  C   -0.004456
    21  C    0.036494
    23  C   -0.002366
    25  C    0.032415
    27  C   -0.014577
    30  C   -0.013033
    35  N    0.096645
    36  C    0.073971
    37  C    0.140352
    38  C   -0.033730
    39  C   -0.058216
    40  C   -0.049925
    41  C   -0.076358
    42  C   -0.000344
    44  C    0.022469
    46  C   -0.004599
    48  C    0.020450
    50  C    0.001419
    53  C   -0.003824
    58  N    0.099129
    59  C    0.082178
    60  C    0.130768
    61  C   -0.034570
    62  C   -0.058568
    63  C   -0.039937
    64  C   -0.077436
    65  C    0.000717
    67  C    0.025366
    69  C   -0.000752
    71  C    0.023407
    73  C   -0.000493
    76  C   -0.004148
 Electronic spatial extent (au):  <R**2>=          25991.0424
 Charge=             -0.0000 electrons
 Dipole moment (field-independent basis, Debye):
    X=             -4.4939    Y=              2.7421    Z=             -1.8920  Tot=              5.5941
 Quadrupole moment (field-independent basis, Debye-Ang):
   XX=           -273.0831   YY=           -295.2872   ZZ=           -261.6288
   XY=             -6.2314   XZ=            -17.4946   YZ=             -4.1614
 Traceless Quadrupole moment (field-independent basis, Debye-Ang):
   XX=              3.5833   YY=            -18.6208   ZZ=             15.0375
   XY=             -6.2314   XZ=            -17.4946   YZ=             -4.1614
 Octapole moment (field-independent basis, Debye-Ang**2):
  XXX=            -86.3061  YYY=            156.7253  ZZZ=            -14.2534  XYY=            -53.5026
  XXY=            -24.0848  XXZ=            -14.8916  XZZ=            -14.7381  YZZ=            -38.9595
  YYZ=            -32.3159  XYZ=            -80.8951
 Hexadecapole moment (field-independent basis, Debye-Ang**3):
 XXXX=         -14842.9891 YYYY=         -14242.0326 ZZZZ=          -5266.5701 XXXY=           -197.0121
 XXXZ=           -331.1790 YYYX=             33.7691 YYYZ=              3.0927 ZZZX=           -228.9001
 ZZZY=            -37.5594 XXYY=          -4832.6184 XXZZ=          -3479.6989 YYZZ=          -3195.0102
 XXYZ=            -96.7941 YYXZ=             81.7368 ZZXY=            -45.8761
 N-N= 6.279268591940D+03 E-N=-1.736848594442D+04  KE= 2.058936064043D+03
 Leave Link  601 at Fri Jul  1 21:34:56 2022, MaxMem=  5242880000 cpu:        14.5
 (Enter /opt/nce/packages/global/g09/l9999.exe)
 1\1\GINC-CN065\SP\RB3LYP TD-FC\def2TZVP\C44H30F1N5\PNG4RJV\01-Jul-2022
 \0\\#p b3lyp/def2TZVP td=(NStates=50) int=ultrafine scrf=(SMD,solvent=
 Acetonitrile) EmpiricalDispersion=GD3BJ\\Title\\0,1\C,0,-0.155273,1.38
 2848,0.009148\C,0,-1.224793,0.548545,-0.305785\C,0,-1.150439,-0.840797
 ,-0.277711\C,0,0.105142,-1.42969,0.007685\C,0,1.218001,-0.628461,0.304
 924\C,0,1.070199,0.765409,0.352076\C,0,0.248867,-2.84,-0.00115\C,0,2.1
 38636,1.549105,0.856925\F,0,-2.372056,1.11201,-0.718113\N,0,0.377265,-
 3.985768,-0.001902\N,0,3.000153,2.171247,1.304115\N,0,2.464256,-1.2079
 67,0.596812\C,0,3.584283,-0.82596,-0.18417\C,0,2.580019,-2.098587,1.69
 3484\C,0,3.417992,-0.567653,-1.546159\C,0,4.844708,-0.671491,0.395445\
 C,0,1.816165,-1.885939,2.841549\C,0,3.433452,-3.201194,1.628826\C,0,4.
 497435,-0.148,-2.31276\H,0,2.445482,-0.692557,-2.003013\C,0,5.921249,-
 0.27222,-0.383114\H,0,4.976544,-0.850432,1.453092\C,0,1.899499,-2.7730
 45,3.90739\H,0,1.157463,-1.029713,2.897982\C,0,3.524382,-4.0707,2.7055
 38\H,0,4.013881,-3.379971,0.73456\C,0,5.755627,-0.002724,-1.739089\H,0
 ,4.352483,0.054005,-3.366487\H,0,6.892978,-0.152652,0.079285\C,0,2.756
 493,-3.866204,3.849236\H,0,1.299183,-2.598245,4.791282\H,0,4.187936,-4
 .923954,2.642953\H,0,6.597093,0.317996,-2.339264\H,0,2.825398,-4.55227
 1,4.683306\N,0,-2.276699,-1.602669,-0.581284\C,0,-2.209577,-2.602578,-
 1.588432\C,0,-3.500817,-1.300312,0.071191\C,0,-1.468198,-2.371454,-2.7
 45936\C,0,-2.870339,-3.818871,-1.418864\C,0,-3.490167,-0.931318,1.4168
 5\C,0,-4.710436,-1.347936,-0.622636\C,0,-1.3743,-3.359616,-3.717948\H,
 0,-0.965246,-1.4231,-2.88192\C,0,-2.786969,-4.792486,-2.402992\H,0,-3.
 434934,-4.001553,-0.515074\C,0,-4.676979,-0.595199,2.054754\H,0,-2.555
 344,-0.908122,1.960856\C,0,-5.893591,-1.030654,0.029235\H,0,-4.721637,
 -1.623247,-1.667938\C,0,-2.034731,-4.571955,-3.554259\H,0,-0.79209,-3.
 172932,-4.611334\H,0,-3.299023,-5.735865,-2.261771\C,0,-5.884798,-0.64
 6819,1.36767\H,0,-4.655372,-0.304349,3.097275\H,0,-6.826882,-1.068376,
 -0.518282\H,0,-1.965073,-5.33841,-4.315082\H,0,-6.809654,-0.391692,1.8
 68363\N,0,-0.294217,2.764261,-0.027508\C,0,0.687633,3.553253,-0.687645
 \C,0,-1.429086,3.36753,0.578294\C,0,1.259293,3.095502,-1.874235\C,0,1.
 09624,4.770845,-0.145241\C,0,-1.913056,2.865259,1.785741\C,0,-2.071895
 ,4.444391,-0.032108\C,0,2.248092,3.842915,-2.5006\H,0,0.935331,2.15567
 1,-2.300708\C,0,2.069712,5.520788,-0.788985\H,0,0.662304,5.119059,0.78
 1711\C,0,-3.043456,3.424653,2.366979\H,0,-1.405816,2.039068,2.265796\C
 ,0,-3.188533,5.010189,0.566549\H,0,-1.702907,4.829517,-0.972577\C,0,2.
 65566,5.059545,-1.964913\H,0,2.691322,3.475044,-3.417106\H,0,2.384714,
 6.462951,-0.35874\C,0,-3.684369,4.501401,1.76422\H,0,-3.415,3.022243,3
 .300729\H,0,-3.683107,5.844279,0.085156\H,0,3.422467,5.643168,-2.45733
 7\H,0,-4.561163,4.940719,2.22179\\Version=ES64L-G09RevE.01\State=1-A\H
 F=-2069.3258508\RMSD=6.587e-09\PG=C01 [X(C44H30F1N5)]\\@


 THERE ARE TWO THINGS THAT EVERYBODY THINKS THEY CAN DO BETTER THAN
 ANYONE ELSE - PUNCH THE FIRE, AND EDIT A DAILY PAPER.
 -- UNCLE ESEK, "CENTURY MAGAZINE", 1885
 Job cpu time:      14 days 13 hours 39 minutes 53.1 seconds.
 File lengths (MBytes):  RWF=  20543 Int=      0 D2E=      0 Chk=   4174 Scr=      1
 Normal termination of Gaussian 09 at Fri Jul  1 21:35:03 2022.
