 Entering Gaussian System, Link 0=g09
 Input=/home/png4rjv/fotokatalizis/benchmark/OPCs/CA_50_states/CA_2b_M062X_def2TZVP.gjf
 Output=/home/png4rjv/fotokatalizis/benchmark/OPCs/CA_50_states/CA_2b_M062X_def2TZVP.log
 Initial command:
 /opt/nce/packages/global/g09/l1.exe "/home/png4rjv/fotokatalizis/benchmark/OPCs/CA_50_states/CA_2b_M062X_def2TZVP/Gau-10809.inp" -scrdir="/home/png4rjv/fotokatalizis/benchmark/OPCs/CA_50_states/CA_2b_M062X_def2TZVP/"
 Default is to use a total of  12 processors:
                               12 via shared-memory
                                1 via Linda
 Entering Link 1 = /opt/nce/packages/global/g09/l1.exe PID=     10810.
  
 Copyright (c) 1988,1990,1992,1993,1995,1998,2003,2009,2015,
            Gaussian, Inc.  All Rights Reserved.
  
 This is part of the Gaussian(R) 09 program.  It is based on
 the Gaussian(R) 03 system (copyright 2003, Gaussian, Inc.),
 the Gaussian(R) 98 system (copyright 1998, Gaussian, Inc.),
 the Gaussian(R) 94 system (copyright 1995, Gaussian, Inc.),
 the Gaussian 92(TM) system (copyright 1992, Gaussian, Inc.),
 the Gaussian 90(TM) system (copyright 1990, Gaussian, Inc.),
 the Gaussian 88(TM) system (copyright 1988, Gaussian, Inc.),
 the Gaussian 86(TM) system (copyright 1986, Carnegie Mellon
 University), and the Gaussian 82(TM) system (copyright 1983,
 Carnegie Mellon University). Gaussian is a federally registered
 trademark of Gaussian, Inc.
  
 This software contains proprietary and confidential information,
 including trade secrets, belonging to Gaussian, Inc.
  
 This software is provided under written license and may be
 used, copied, transmitted, or stored only in accord with that
 written license.
  
 The following legend is applicable only to US Government
 contracts under FAR:
  
                    RESTRICTED RIGHTS LEGEND
  
 Use, reproduction and disclosure by the US Government is
 subject to restrictions as set forth in subparagraphs (a)
 and (c) of the Commercial Computer Software - Restricted
 Rights clause in FAR 52.227-19.
  
 Gaussian, Inc.
 340 Quinnipiac St., Bldg. 40, Wallingford CT 06492
  
  
 ---------------------------------------------------------------
 Warning -- This program may not be used in any manner that
 competes with the business of Gaussian, Inc. or will provide
 assistance to any competitor of Gaussian, Inc.  The licensee
 of this program is prohibited from giving any competitor of
 Gaussian, Inc. access to this program.  By using this program,
 the user acknowledges that Gaussian, Inc. is engaged in the
 business of creating and licensing software in the field of
 computational chemistry and represents and warrants to the
 licensee that it is not a competitor of Gaussian, Inc. and that
 it will not use this program in any manner prohibited above.
 ---------------------------------------------------------------
  

 Cite this work as:
 Gaussian 09, Revision E.01,
 M. J. Frisch, G. W. Trucks, H. B. Schlegel, G. E. Scuseria, 
 M. A. Robb, J. R. Cheeseman, G. Scalmani, V. Barone, B. Mennucci, 
 G. A. Petersson, H. Nakatsuji, M. Caricato, X. Li, H. P. Hratchian, 
 A. F. Izmaylov, J. Bloino, G. Zheng, J. L. Sonnenberg, M. Hada, 
 M. Ehara, K. Toyota, R. Fukuda, J. Hasegawa, M. Ishida, T. Nakajima, 
 Y. Honda, O. Kitao, H. Nakai, T. Vreven, J. A. Montgomery, Jr., 
 J. E. Peralta, F. Ogliaro, M. Bearpark, J. J. Heyd, E. Brothers, 
 K. N. Kudin, V. N. Staroverov, T. Keith, R. Kobayashi, J. Normand, 
 K. Raghavachari, A. Rendell, J. C. Burant, S. S. Iyengar, J. Tomasi, 
 M. Cossi, N. Rega, J. M. Millam, M. Klene, J. E. Knox, J. B. Cross, 
 V. Bakken, C. Adamo, J. Jaramillo, R. Gomperts, R. E. Stratmann, 
 O. Yazyev, A. J. Austin, R. Cammi, C. Pomelli, J. W. Ochterski, 
 R. L. Martin, K. Morokuma, V. G. Zakrzewski, G. A. Voth, 
 P. Salvador, J. J. Dannenberg, S. Dapprich, A. D. Daniels, 
 O. Farkas, J. B. Foresman, J. V. Ortiz, J. Cioslowski, 
 and D. J. Fox, Gaussian, Inc., Wallingford CT, 2013.
 
 ******************************************
 Gaussian 09:  ES64L-G09RevE.01 30-Nov-2015
                30-Jun-2022 
 ******************************************
 %chk=cp.chk
 Default route:  MaxDisk=500GB
 ----------------------------------------------------------------------
 #p m062x/def2TZVP td=(NStates=50) int=ultrafine scrf=(SMD,solvent=Acet
 onitrile)
 ----------------------------------------------------------------------
 1/38=1/1;
 2/12=2,17=6,18=5,40=1/2;
 3/5=44,7=101,11=9,16=1,25=1,30=1,70=32201,72=2,74=-55,75=-5/1,2,8,3;
 4//1;
 5/5=2,38=5,53=2/2;
 8/6=1,10=1,108=50/1;
 9/41=50,42=1,70=2/14;
 6/7=2,8=2,9=2,10=2/1;
 99/5=1,9=1/99;
 Leave Link    1 at Thu Jun 30 22:09:53 2022, MaxMem=           0 cpu:         0.9
 (Enter /opt/nce/packages/global/g09/l101.exe)
 -----
 Title
 -----
 Symbolic Z-matrix:
 Charge =  0 Multiplicity = 1
 C                    -0.15157   1.38492   0.00583 
 C                    -1.22629   0.55407  -0.29754 
 C                    -1.15268  -0.83395  -0.27097 
 C                     0.1      -1.41984   0.00893 
 C                     1.21804  -0.62713   0.29302 
 C                     1.07206   0.76455   0.33047 
 C                     0.23845  -2.83989   0.00889 
 C                     2.16187   1.55208   0.80855 
 F                    -2.36979   1.11626  -0.69434 
 N                     0.35972  -3.9821    0.01586 
 N                     3.03567   2.17072   1.22489 
 N                     2.4619   -1.21174   0.57818 
 C                     3.59308  -0.80816  -0.17775 
 C                     2.57187  -2.13219   1.65297 
 C                     3.44469  -0.50136  -1.52927 
 C                     4.84477  -0.6829    0.42326 
 C                     1.79764  -1.95706   2.79736 
 C                     3.43052  -3.22666   1.56087 
 C                     4.53638  -0.06252  -2.26617 
 H                     2.47634  -0.60823  -2.0037 
 C                     5.932    -0.26199  -0.32619 
 H                     4.96149  -0.90168   1.47682 
 C                     1.87552  -2.87631   3.83504 
 H                     1.13435  -1.10372   2.87423 
 C                     3.51361  -4.12871   2.6091 
 H                     4.0209   -3.3733    0.66544 
 C                     5.78539   0.05585  -1.67201 
 H                     4.40661   0.17569  -3.31453 
 H                     6.89855  -0.16563   0.15242 
 C                     2.73497  -3.96275   3.74978 
 H                     1.26657  -2.73155   4.71857 
 H                     4.18173  -4.9768    2.52655 
 H                     6.63651   0.39217  -2.24971 
 H                     2.79852  -4.67482   4.56226 
 N                    -2.28039  -1.59266  -0.57092 
 C                    -2.20535  -2.6203   -1.55188 
 C                    -3.51565  -1.26861   0.05117 
 C                    -1.44286  -2.42742  -2.6996 
 C                    -2.87808  -3.82421  -1.35701 
 C                    -3.52892  -0.83761   1.37607 
 C                    -4.71214  -1.36329  -0.65699 
 C                    -1.33827  -3.44492  -3.6387 
 H                    -0.9311   -1.48461  -2.85387 
 C                    -2.78172  -4.82722  -2.30798 
 H                    -3.46227  -3.97348  -0.45772 
 C                    -4.72926  -0.49095   1.98011 
 H                    -2.60195  -0.77861   1.93424 
 C                    -5.90753  -1.03181  -0.03809 
 H                    -4.70393  -1.68806  -1.68938 
 C                    -2.00732  -4.64626  -3.44945 
 H                    -0.73874  -3.28911  -4.52668 
 H                    -3.30321  -5.76261  -2.14839 
 C                    -5.92423  -0.58959   1.2798 
 H                    -4.72709  -0.15439   3.00933 
 H                    -6.83177  -1.10744  -0.59719 
 H                    -1.92824  -5.43633  -4.18494 
 H                    -6.85982  -0.3256    1.75544 
 N                    -0.29518   2.7647   -0.02622 
 C                     0.69746   3.56535  -0.65857 
 C                    -1.44136   3.36446   0.5645 
 C                     1.29668   3.12253  -1.83436 
 C                     1.08649   4.77684  -0.09306 
 C                    -1.96161   2.84369   1.74634 
 C                    -2.05284   4.46074  -0.03938 
 C                     2.29619   3.88081  -2.42842 
 H                     0.98334   2.18593  -2.28017 
 C                     2.07244   5.53556  -0.70376 
 H                     0.62665   5.11341   0.82743 
 C                    -3.09606   3.40937   2.3113 
 H                    -1.47705   1.9998    2.22336 
 C                    -3.17524   5.02934   0.5425 
 H                    -1.65338   4.86014  -0.96284 
 C                     2.68681   5.08993  -1.86914 
 H                     2.76128   3.52589  -3.33951 
 H                     2.37312   6.47439  -0.25602 
 C                    -3.70584   4.50568   1.71616 
 H                    -3.49485   2.99504   3.2288 
 H                    -3.6455    5.88044   0.06627 
 H                     3.46282   5.68196  -2.33665 
 H                    -4.58637   4.94951   2.1622 
 
 NAtoms=     80 NQM=       80 NQMF=       0 NMMI=      0 NMMIF=      0
                NMic=       0 NMicF=      0.
                    Isotopes and Nuclear Properties:
 (Nuclear quadrupole moments (NQMom) in fm**2, nuclear magnetic moments (NMagM)
  in nuclear magnetons)

  Atom         1           2           3           4           5           6           7           8           9          10
 IAtWgt=          12          12          12          12          12          12          12          12          19          14
 AtmWgt=  12.0000000  12.0000000  12.0000000  12.0000000  12.0000000  12.0000000  12.0000000  12.0000000  18.9984033  14.0030740
 NucSpn=           0           0           0           0           0           0           0           0           1           2
 AtZEff=   0.0000000   0.0000000   0.0000000   0.0000000   0.0000000   0.0000000   0.0000000   0.0000000   0.0000000   0.0000000
 NQMom=    0.0000000   0.0000000   0.0000000   0.0000000   0.0000000   0.0000000   0.0000000   0.0000000   0.0000000   2.0440000
 NMagM=    0.0000000   0.0000000   0.0000000   0.0000000   0.0000000   0.0000000   0.0000000   0.0000000   2.6288670   0.4037610
 AtZNuc=   6.0000000   6.0000000   6.0000000   6.0000000   6.0000000   6.0000000   6.0000000   6.0000000   9.0000000   7.0000000

  Atom        11          12          13          14          15          16          17          18          19          20
 IAtWgt=          14          14          12          12          12          12          12          12          12           1
 AtmWgt=  14.0030740  14.0030740  12.0000000  12.0000000  12.0000000  12.0000000  12.0000000  12.0000000  12.0000000   1.0078250
 NucSpn=           2           2           0           0           0           0           0           0           0           1
 AtZEff=   0.0000000   0.0000000   0.0000000   0.0000000   0.0000000   0.0000000   0.0000000   0.0000000   0.0000000   0.0000000
 NQMom=    2.0440000   2.0440000   0.0000000   0.0000000   0.0000000   0.0000000   0.0000000   0.0000000   0.0000000   0.0000000
 NMagM=    0.4037610   0.4037610   0.0000000   0.0000000   0.0000000   0.0000000   0.0000000   0.0000000   0.0000000   2.7928460
 AtZNuc=   7.0000000   7.0000000   6.0000000   6.0000000   6.0000000   6.0000000   6.0000000   6.0000000   6.0000000   1.0000000

  Atom        21          22          23          24          25          26          27          28          29          30
 IAtWgt=          12           1          12           1          12           1          12           1           1          12
 AtmWgt=  12.0000000   1.0078250  12.0000000   1.0078250  12.0000000   1.0078250  12.0000000   1.0078250   1.0078250  12.0000000
 NucSpn=           0           1           0           1           0           1           0           1           1           0
 AtZEff=   0.0000000   0.0000000   0.0000000   0.0000000   0.0000000   0.0000000   0.0000000   0.0000000   0.0000000   0.0000000
 NQMom=    0.0000000   0.0000000   0.0000000   0.0000000   0.0000000   0.0000000   0.0000000   0.0000000   0.0000000   0.0000000
 NMagM=    0.0000000   2.7928460   0.0000000   2.7928460   0.0000000   2.7928460   0.0000000   2.7928460   2.7928460   0.0000000
 AtZNuc=   6.0000000   1.0000000   6.0000000   1.0000000   6.0000000   1.0000000   6.0000000   1.0000000   1.0000000   6.0000000

  Atom        31          32          33          34          35          36          37          38          39          40
 IAtWgt=           1           1           1           1          14          12          12          12          12          12
 AtmWgt=   1.0078250   1.0078250   1.0078250   1.0078250  14.0030740  12.0000000  12.0000000  12.0000000  12.0000000  12.0000000
 NucSpn=           1           1           1           1           2           0           0           0           0           0
 AtZEff=   0.0000000   0.0000000   0.0000000   0.0000000   0.0000000   0.0000000   0.0000000   0.0000000   0.0000000   0.0000000
 NQMom=    0.0000000   0.0000000   0.0000000   0.0000000   2.0440000   0.0000000   0.0000000   0.0000000   0.0000000   0.0000000
 NMagM=    2.7928460   2.7928460   2.7928460   2.7928460   0.4037610   0.0000000   0.0000000   0.0000000   0.0000000   0.0000000
 AtZNuc=   1.0000000   1.0000000   1.0000000   1.0000000   7.0000000   6.0000000   6.0000000   6.0000000   6.0000000   6.0000000

  Atom        41          42          43          44          45          46          47          48          49          50
 IAtWgt=          12          12           1          12           1          12           1          12           1          12
 AtmWgt=  12.0000000  12.0000000   1.0078250  12.0000000   1.0078250  12.0000000   1.0078250  12.0000000   1.0078250  12.0000000
 NucSpn=           0           0           1           0           1           0           1           0           1           0
 AtZEff=   0.0000000   0.0000000   0.0000000   0.0000000   0.0000000   0.0000000   0.0000000   0.0000000   0.0000000   0.0000000
 NQMom=    0.0000000   0.0000000   0.0000000   0.0000000   0.0000000   0.0000000   0.0000000   0.0000000   0.0000000   0.0000000
 NMagM=    0.0000000   0.0000000   2.7928460   0.0000000   2.7928460   0.0000000   2.7928460   0.0000000   2.7928460   0.0000000
 AtZNuc=   6.0000000   6.0000000   1.0000000   6.0000000   1.0000000   6.0000000   1.0000000   6.0000000   1.0000000   6.0000000

  Atom        51          52          53          54          55          56          57          58          59          60
 IAtWgt=           1           1          12           1           1           1           1          14          12          12
 AtmWgt=   1.0078250   1.0078250  12.0000000   1.0078250   1.0078250   1.0078250   1.0078250  14.0030740  12.0000000  12.0000000
 NucSpn=           1           1           0           1           1           1           1           2           0           0
 AtZEff=   0.0000000   0.0000000   0.0000000   0.0000000   0.0000000   0.0000000   0.0000000   0.0000000   0.0000000   0.0000000
 NQMom=    0.0000000   0.0000000   0.0000000   0.0000000   0.0000000   0.0000000   0.0000000   2.0440000   0.0000000   0.0000000
 NMagM=    2.7928460   2.7928460   0.0000000   2.7928460   2.7928460   2.7928460   2.7928460   0.4037610   0.0000000   0.0000000
 AtZNuc=   1.0000000   1.0000000   6.0000000   1.0000000   1.0000000   1.0000000   1.0000000   7.0000000   6.0000000   6.0000000

  Atom        61          62          63          64          65          66          67          68          69          70
 IAtWgt=          12          12          12          12          12           1          12           1          12           1
 AtmWgt=  12.0000000  12.0000000  12.0000000  12.0000000  12.0000000   1.0078250  12.0000000   1.0078250  12.0000000   1.0078250
 NucSpn=           0           0           0           0           0           1           0           1           0           1
 AtZEff=   0.0000000   0.0000000   0.0000000   0.0000000   0.0000000   0.0000000   0.0000000   0.0000000   0.0000000   0.0000000
 NQMom=    0.0000000   0.0000000   0.0000000   0.0000000   0.0000000   0.0000000   0.0000000   0.0000000   0.0000000   0.0000000
 NMagM=    0.0000000   0.0000000   0.0000000   0.0000000   0.0000000   2.7928460   0.0000000   2.7928460   0.0000000   2.7928460
 AtZNuc=   6.0000000   6.0000000   6.0000000   6.0000000   6.0000000   1.0000000   6.0000000   1.0000000   6.0000000   1.0000000

  Atom        71          72          73          74          75          76          77          78          79          80
 IAtWgt=          12           1          12           1           1          12           1           1           1           1
 AtmWgt=  12.0000000   1.0078250  12.0000000   1.0078250   1.0078250  12.0000000   1.0078250   1.0078250   1.0078250   1.0078250
 NucSpn=           0           1           0           1           1           0           1           1           1           1
 AtZEff=   0.0000000   0.0000000   0.0000000   0.0000000   0.0000000   0.0000000   0.0000000   0.0000000   0.0000000   0.0000000
 NQMom=    0.0000000   0.0000000   0.0000000   0.0000000   0.0000000   0.0000000   0.0000000   0.0000000   0.0000000   0.0000000
 NMagM=    0.0000000   2.7928460   0.0000000   2.7928460   2.7928460   0.0000000   2.7928460   2.7928460   2.7928460   2.7928460
 AtZNuc=   6.0000000   1.0000000   6.0000000   1.0000000   1.0000000   6.0000000   1.0000000   1.0000000   1.0000000   1.0000000
 Leave Link  101 at Thu Jun 30 22:09:53 2022, MaxMem=  5242880000 cpu:         1.2
 (Enter /opt/nce/packages/global/g09/l202.exe)
 Stoichiometry    C44H30FN5
 Framework group  C1[X(C44H30FN5)]
 Deg. of freedom   234
 Full point group                 C1      NOp   1
 Largest Abelian subgroup         C1      NOp   1
 Largest concise Abelian subgroup C1      NOp   1
                         Standard orientation:                         
 ---------------------------------------------------------------------
 Center     Atomic      Atomic             Coordinates (Angstroms)
 Number     Number       Type             X           Y           Z
 ---------------------------------------------------------------------
      1          6           0       -0.151569    1.384922    0.005829
      2          6           0       -1.226289    0.554074   -0.297541
      3          6           0       -1.152677   -0.833950   -0.270974
      4          6           0        0.099995   -1.419842    0.008928
      5          6           0        1.218040   -0.627127    0.293023
      6          6           0        1.072059    0.764553    0.330472
      7          6           0        0.238446   -2.839886    0.008887
      8          6           0        2.161869    1.552084    0.808549
      9          9           0       -2.369794    1.116261   -0.694339
     10          7           0        0.359718   -3.982104    0.015855
     11          7           0        3.035667    2.170716    1.224886
     12          7           0        2.461898   -1.211741    0.578182
     13          6           0        3.593077   -0.808157   -0.177745
     14          6           0        2.571872   -2.132186    1.652973
     15          6           0        3.444692   -0.501359   -1.529273
     16          6           0        4.844770   -0.682901    0.423257
     17          6           0        1.797639   -1.957063    2.797360
     18          6           0        3.430523   -3.226659    1.560869
     19          6           0        4.536383   -0.062520   -2.266170
     20          1           0        2.476335   -0.608227   -2.003697
     21          6           0        5.932000   -0.261992   -0.326187
     22          1           0        4.961492   -0.901684    1.476823
     23          6           0        1.875520   -2.876307    3.835041
     24          1           0        1.134346   -1.103721    2.874232
     25          6           0        3.513611   -4.128708    2.609103
     26          1           0        4.020902   -3.373295    0.665436
     27          6           0        5.785387    0.055852   -1.672005
     28          1           0        4.406613    0.175692   -3.314532
     29          1           0        6.898553   -0.165626    0.152421
     30          6           0        2.734974   -3.962754    3.749781
     31          1           0        1.266566   -2.731549    4.718566
     32          1           0        4.181730   -4.976796    2.526554
     33          1           0        6.636505    0.392174   -2.249711
     34          1           0        2.798518   -4.674818    4.562260
     35          7           0       -2.280393   -1.592664   -0.570921
     36          6           0       -2.205354   -2.620304   -1.551877
     37          6           0       -3.515645   -1.268609    0.051172
     38          6           0       -1.442859   -2.427423   -2.699601
     39          6           0       -2.878084   -3.824213   -1.357007
     40          6           0       -3.528916   -0.837608    1.376073
     41          6           0       -4.712136   -1.363293   -0.656986
     42          6           0       -1.338266   -3.444919   -3.638699
     43          1           0       -0.931101   -1.484611   -2.853872
     44          6           0       -2.781715   -4.827219   -2.307983
     45          1           0       -3.462265   -3.973483   -0.457717
     46          6           0       -4.729262   -0.490950    1.980106
     47          1           0       -2.601946   -0.778610    1.934242
     48          6           0       -5.907533   -1.031814   -0.038089
     49          1           0       -4.703927   -1.688061   -1.689377
     50          6           0       -2.007315   -4.646263   -3.449452
     51          1           0       -0.738736   -3.289107   -4.526675
     52          1           0       -3.303209   -5.762609   -2.148390
     53          6           0       -5.924234   -0.589592    1.279801
     54          1           0       -4.727093   -0.154389    3.009333
     55          1           0       -6.831765   -1.107444   -0.597186
     56          1           0       -1.928240   -5.436332   -4.184937
     57          1           0       -6.859818   -0.325598    1.755435
     58          7           0       -0.295176    2.764698   -0.026218
     59          6           0        0.697456    3.565345   -0.658571
     60          6           0       -1.441355    3.364460    0.564500
     61          6           0        1.296675    3.122526   -1.834364
     62          6           0        1.086485    4.776841   -0.093056
     63          6           0       -1.961614    2.843685    1.746340
     64          6           0       -2.052843    4.460739   -0.039383
     65          6           0        2.296190    3.880806   -2.428421
     66          1           0        0.983340    2.185929   -2.280165
     67          6           0        2.072438    5.535562   -0.703759
     68          1           0        0.626651    5.113405    0.827431
     69          6           0       -3.096064    3.409372    2.311304
     70          1           0       -1.477045    1.999798    2.223357
     71          6           0       -3.175235    5.029340    0.542500
     72          1           0       -1.653377    4.860135   -0.962836
     73          6           0        2.686811    5.089929   -1.869143
     74          1           0        2.761276    3.525894   -3.339506
     75          1           0        2.373115    6.474388   -0.256020
     76          6           0       -3.705844    4.505682    1.716163
     77          1           0       -3.494849    2.995038    3.228796
     78          1           0       -3.645503    5.880437    0.066272
     79          1           0        3.462823    5.681957   -2.336649
     80          1           0       -4.586366    4.949511    2.162198
 ---------------------------------------------------------------------
 Rotational constants (GHZ):      0.0693164      0.0648362      0.0444905
 Leave Link  202 at Thu Jun 30 22:09:53 2022, MaxMem=  5242880000 cpu:         0.2
 (Enter /opt/nce/packages/global/g09/l301.exe)
 Standard basis: def2TZVP (5D, 7F)
 Ernie: Thresh=  0.10000D-02 Tol=  0.10000D-05 Strict=F.
 There are  1980 symmetry adapted cartesian basis functions of A   symmetry.
 There are  1730 symmetry adapted basis functions of A   symmetry.
  1730 basis functions,  2790 primitive gaussians,  1980 cartesian basis functions
   169 alpha electrons      169 beta electrons
       nuclear repulsion energy      6288.6695109502 Hartrees.
 IExCor= 4336 DFT=T Ex+Corr=M062X ExCW=0 ScaHFX=  0.540000
 ScaDFX=  1.000000  1.000000  1.000000  1.000000 ScalE2=  1.000000  1.000000
 IRadAn=      5 IRanWt=     -1 IRanGd=            0 ICorTp=0 IEmpDi=  4
 NAtoms=   80 NActive=   80 NUniq=   80 SFac= 1.00D+00 NAtFMM=   60 NAOKFM=T Big=T
 Integral buffers will be    131072 words long.
 Regular integral format.
 Two-electron integral symmetry is turned on.
 ------------------------------------------------------------------------------
 Polarizable Continuum Model (PCM)
 =================================
 Model                : PCM (using non-symmetric T matrix).
 Atomic radii         : SMD-Coulomb.
 Polarization charges : Total charges.
 Charge compensation  : None.
 Solution method      : On-the-fly selection.
 Cavity type          : VdW (van der Waals Surface) (Alpha=1.000).
 Cavity algorithm     : GePol (No added spheres)
                        Default sphere list used, NSphG=   80.
                        Lebedev-Laikov grids with approx.  5.0 points / Ang**2.
                        Smoothing algorithm: York/Karplus (Gamma=1.0000).
                        Polarization charges: spherical gaussians, with
                                              point-specific exponents (IZeta= 3).
                        Self-potential: point-specific (ISelfS= 7).
                        Self-field    : sphere-specific E.n sum rule (ISelfD= 2).
 Solvent              : Acetonitrile, Eps=  35.688000 Eps(inf)=   1.806874
 ------------------------------------------------------------------------------
 GePol: Number of generator spheres                  =      80
 GePol: Total number of spheres                      =      80
 GePol: Number of exposed spheres                    =      80 (100.00%)
 GePol: Number of points                             =    6026
 GePol: Average weight of points                     =       0.11
 GePol: Minimum weight of points                     =   0.34D-10
 GePol: Maximum weight of points                     =    0.21501
 GePol: Number of points with low weight             =     349
 GePol: Fraction of low-weight points (<1% of avg)   =       5.79%
 GePol: Cavity surface area                          =    651.168 Ang**2
 GePol: Cavity volume                                =    660.494 Ang**3
 ------------------------------------------------------------------------------
 Atomic radii for non-electrostatic terms: SMD-CDS.
 ------------------------------------------------------------------------------
 PCM non-electrostatic energy =        -0.0099401035 Hartrees.
 Nuclear repulsion after PCM non-electrostatic terms =     6288.6595708467 Hartrees.
 Leave Link  301 at Thu Jun 30 22:09:53 2022, MaxMem=  5242880000 cpu:         1.8
 (Enter /opt/nce/packages/global/g09/l302.exe)
 NPDir=0 NMtPBC=     1 NCelOv=     1 NCel=       1 NClECP=     1 NCelD=      1
         NCelK=      1 NCelE2=     1 NClLst=     1 CellRange=     0.0.
 One-electron integrals computed using PRISM.
   1 Symmetry operations used in ECPInt.
 ECPInt:  NShTT=  224785 NPrTT=  697980 LenC2=  171531 LenP2D=  347404.
 LDataN:  DoStor=T MaxTD1= 6 Len=  172
 NBasis=  1730 RedAO= T EigKep=  2.02D-06  NBF=  1730
 NBsUse=  1730 1.00D-06 EigRej= -1.00D+00 NBFU=  1730
 Precomputing XC quadrature grid using
 IXCGrd= 4 IRadAn=           5 IRanWt=          -1 IRanGd=           0 AccXCQ= 0.00D+00.
 Generated NRdTot=       0 NPtTot=           0 NUsed=           0 NTot=          32
 NSgBfM=  1888  1892  1897  1897  1898 MxSgAt=    80 MxSgA2=    80.
 Leave Link  302 at Thu Jun 30 22:10:01 2022, MaxMem=  5242880000 cpu:        89.0
 (Enter /opt/nce/packages/global/g09/l308.exe)
 Leave Link  308 at Thu Jun 30 22:10:02 2022, MaxMem=  5242880000 cpu:        12.4
 (Enter /opt/nce/packages/global/g09/l303.exe)
 DipDrv:  MaxL=1.
 Leave Link  303 at Thu Jun 30 22:10:03 2022, MaxMem=  5242880000 cpu:         7.0
 (Enter /opt/nce/packages/global/g09/l401.exe)
 ExpMin= 9.52D-02 ExpMax= 3.55D+04 ExpMxC= 1.21D+03 IAcc=3 IRadAn=         5 AccDes= 0.00D+00
 Harris functional with IExCor= 1009 and IRadAn=       5 diagonalized for initial guess.
 HarFok:  IExCor= 1009 AccDes= 0.00D+00 IRadAn=         5 IDoV= 1 UseB2=F ITyADJ=14
 ICtDFT=  3500011 ScaDFX=  1.000000  1.000000  1.000000  1.000000
 FoFCou: FMM=F IPFlag=           0 FMFlag=      100000 FMFlg1=        2001
         NFxFlg=           0 DoJE=T BraDBF=F KetDBF=T FulRan=T
         wScrn=  0.000000 ICntrl=     500 IOpCl=  0 I1Cent=   200000004 NGrid=           0
         NMat0=    1 NMatS0=      1 NMatT0=    0 NMatD0=    1 NMtDS0=    0 NMtDT0=    0
 Petite list used in FoFCou.
 Harris En= -2067.23684257953    
 JPrj=0 DoOrth=F DoCkMO=F.
 Leave Link  401 at Thu Jun 30 22:10:29 2022, MaxMem=  5242880000 cpu:       312.7
 (Enter /opt/nce/packages/global/g09/l502.exe)
 Closed shell SCF:
 Using DIIS extrapolation, IDIIS=  1040.
 Integral symmetry usage will be decided dynamically.
 IVT=    11817950 IEndB=    11817950 NGot=  5242880000 MDV=  5235001071
 LenX=  5235001071 LenY=  5231078691
 Requested convergence on RMS density matrix=1.00D-08 within 128 cycles.
 Requested convergence on MAX density matrix=1.00D-06.
 Requested convergence on             energy=1.00D-06.
 No special actions if energy rises.
 Fock matrices will be formed incrementally for  20 cycles.

 Cycle   1  Pass 1  IDiag  1:
 FoFJK:  IHMeth= 1 ICntrl=       0 DoSepK=F KAlg= 0 I1Cent=   0 FoldK=F
 IRaf= 710000000 NMat=   1 IRICut=       1 DoRegI=T DoRafI=F ISym2E= 0.
 FoFCou: FMM=T IPFlag=           0 FMFlag=      100000 FMFlg1=        2001
         NFxFlg=           0 DoJE=F BraDBF=F KetDBF=F FulRan=T
         wScrn=  0.000000 ICntrl=       0 IOpCl=  0 I1Cent=           0 NGrid=           0
         NMat0=    1 NMatS0=      1 NMatT0=    0 NMatD0=    1 NMtDS0=    0 NMtDT0=    0
 Symmetry not used in FoFCou.
 FMM levels:  10  Number of levels for PrismC:   9
 Inv3:  Mode=1 IEnd=   108938028.
 Iteration    1 A*A^-1 deviation from unit magnitude is 6.88D-15 for   6025.
 Iteration    1 A*A^-1 deviation from orthogonality  is 5.33D-15 for   6022   2573.
 Iteration    1 A^-1*A deviation from unit magnitude is 6.88D-15 for   6025.
 Iteration    1 A^-1*A deviation from orthogonality  is 1.51D-11 for   1848   1837.
 E= -2067.15368224781    
 DIIS: error= 1.54D-02 at cycle   1 NSaved=   1.
 NSaved= 1 IEnMin= 1 EnMin= -2067.15368224781     IErMin= 1 ErrMin= 1.54D-02
 ErrMax= 1.54D-02  0.00D+00 EMaxC= 1.00D-01 BMatC= 1.37D+00 BMatP= 1.37D+00
 IDIUse=3 WtCom= 8.46D-01 WtEn= 1.54D-01
 Coeff-Com:  0.100D+01
 Coeff-En:   0.100D+01
 Coeff:      0.100D+01
 Gap=     0.225 Goal=   None    Shift=    0.000
 GapD=    0.225 DampG=1.000 DampE=0.500 DampFc=0.5000 IDamp=-1.
 Damping current iteration by 5.00D-01
 RMSDP=2.13D-03 MaxDP=2.47D-01              OVMax= 2.12D-01

 Cycle   2  Pass 1  IDiag  1:
 RMSU=  1.05D-03    CP:  9.61D-01
 E= -2067.72412808077     Delta-E=       -0.570445832951 Rises=F Damp=T
 DIIS: error= 4.55D-03 at cycle   2 NSaved=   2.
 NSaved= 2 IEnMin= 2 EnMin= -2067.72412808077     IErMin= 2 ErrMin= 4.55D-03
 ErrMax= 4.55D-03  0.00D+00 EMaxC= 1.00D-01 BMatC= 1.42D-01 BMatP= 1.37D+00
 IDIUse=3 WtCom= 9.54D-01 WtEn= 4.55D-02
 Coeff-Com: -0.140D+00 0.114D+01
 Coeff-En:   0.000D+00 0.100D+01
 Coeff:     -0.134D+00 0.113D+01
 Gap=     0.221 Goal=   None    Shift=    0.000
 RMSDP=1.16D-03 MaxDP=2.80D-01 DE=-5.70D-01 OVMax= 1.31D-01

 Cycle   3  Pass 1  IDiag  1:
 RMSU=  1.05D-03    CP:  8.60D-01  1.12D+00
 E= -2068.21675972476     Delta-E=       -0.492631643991 Rises=F Damp=F
 DIIS: error= 4.82D-03 at cycle   3 NSaved=   3.
 NSaved= 3 IEnMin= 3 EnMin= -2068.21675972476     IErMin= 2 ErrMin= 4.55D-03
 ErrMax= 4.82D-03  0.00D+00 EMaxC= 1.00D-01 BMatC= 8.80D-02 BMatP= 1.42D-01
 IDIUse=3 WtCom= 9.52D-01 WtEn= 4.82D-02
 Coeff-Com: -0.149D+00 0.557D+00 0.592D+00
 Coeff-En:   0.000D+00 0.000D+00 0.100D+01
 Coeff:     -0.142D+00 0.530D+00 0.612D+00
 Gap=     0.204 Goal=   None    Shift=    0.000
 RMSDP=3.26D-04 MaxDP=4.93D-02 DE=-4.93D-01 OVMax= 5.83D-02

 Cycle   4  Pass 1  IDiag  1:
 RMSU=  2.57D-04    CP:  8.63D-01  1.27D+00  8.79D-01
 E= -2068.28597603985     Delta-E=       -0.069216315098 Rises=F Damp=F
 DIIS: error= 2.32D-03 at cycle   4 NSaved=   4.
 NSaved= 4 IEnMin= 4 EnMin= -2068.28597603985     IErMin= 4 ErrMin= 2.32D-03
 ErrMax= 2.32D-03  0.00D+00 EMaxC= 1.00D-01 BMatC= 1.43D-02 BMatP= 8.80D-02
 IDIUse=3 WtCom= 9.77D-01 WtEn= 2.32D-02
 Coeff-Com: -0.556D-01 0.151D+00 0.337D+00 0.568D+00
 Coeff-En:   0.000D+00 0.000D+00 0.107D+00 0.893D+00
 Coeff:     -0.544D-01 0.147D+00 0.331D+00 0.576D+00
 Gap=     0.197 Goal=   None    Shift=    0.000
 RMSDP=1.27D-04 MaxDP=2.12D-02 DE=-6.92D-02 OVMax= 2.12D-02

 Cycle   5  Pass 1  IDiag  1:
 RMSU=  7.84D-05    CP:  8.57D-01  1.22D+00  9.23D-01  7.52D-01
 E= -2068.29796081973     Delta-E=       -0.011984779880 Rises=F Damp=F
 DIIS: error= 4.78D-04 at cycle   5 NSaved=   5.
 NSaved= 5 IEnMin= 5 EnMin= -2068.29796081973     IErMin= 5 ErrMin= 4.78D-04
 ErrMax= 4.78D-04  0.00D+00 EMaxC= 1.00D-01 BMatC= 8.07D-04 BMatP= 1.43D-02
 IDIUse=3 WtCom= 9.95D-01 WtEn= 4.78D-03
 Coeff-Com: -0.173D-01 0.358D-01 0.128D+00 0.286D+00 0.568D+00
 Coeff-En:   0.000D+00 0.000D+00 0.000D+00 0.000D+00 0.100D+01
 Coeff:     -0.172D-01 0.357D-01 0.127D+00 0.284D+00 0.570D+00
 Gap=     0.198 Goal=   None    Shift=    0.000
 RMSDP=3.76D-05 MaxDP=5.49D-03 DE=-1.20D-02 OVMax= 5.24D-03

 Cycle   6  Pass 1  IDiag  1:
 RMSU=  3.05D-05    CP:  8.59D-01  1.23D+00  9.20D-01  7.41D-01  7.67D-01
 E= -2068.29859793882     Delta-E=       -0.000637119085 Rises=F Damp=F
 DIIS: error= 1.23D-04 at cycle   6 NSaved=   6.
 NSaved= 6 IEnMin= 6 EnMin= -2068.29859793882     IErMin= 6 ErrMin= 1.23D-04
 ErrMax= 1.23D-04  0.00D+00 EMaxC= 1.00D-01 BMatC= 7.17D-05 BMatP= 8.07D-04
 IDIUse=3 WtCom= 9.99D-01 WtEn= 1.23D-03
 Coeff-Com: -0.268D-02 0.291D-02 0.285D-01 0.759D-01 0.264D+00 0.631D+00
 Coeff-En:   0.000D+00 0.000D+00 0.000D+00 0.000D+00 0.000D+00 0.100D+01
 Coeff:     -0.268D-02 0.291D-02 0.284D-01 0.758D-01 0.264D+00 0.632D+00
 Gap=     0.199 Goal=   None    Shift=    0.000
 RMSDP=1.07D-05 MaxDP=1.25D-03 DE=-6.37D-04 OVMax= 2.60D-03

 Cycle   7  Pass 1  IDiag  1:
 RMSU=  9.46D-06    CP:  8.59D-01  1.23D+00  9.22D-01  7.42D-01  8.01D-01
                    CP:  1.10D+00
 E= -2068.29866789069     Delta-E=       -0.000069951871 Rises=F Damp=F
 DIIS: error= 3.71D-05 at cycle   7 NSaved=   7.
 NSaved= 7 IEnMin= 7 EnMin= -2068.29866789069     IErMin= 7 ErrMin= 3.71D-05
 ErrMax= 3.71D-05  0.00D+00 EMaxC= 1.00D-01 BMatC= 6.25D-06 BMatP= 7.17D-05
 IDIUse=1 WtCom= 1.00D+00 WtEn= 0.00D+00
 Coeff-Com:  0.152D-02-0.387D-02-0.711D-02-0.147D-01-0.632D-02 0.210D+00
 Coeff-Com:  0.820D+00
 Coeff:      0.152D-02-0.387D-02-0.711D-02-0.147D-01-0.632D-02 0.210D+00
 Coeff:      0.820D+00
 Gap=     0.199 Goal=   None    Shift=    0.000
 RMSDP=5.63D-06 MaxDP=6.87D-04 DE=-7.00D-05 OVMax= 1.15D-03

 Cycle   8  Pass 1  IDiag  1:
 RMSU=  4.01D-06    CP:  8.59D-01  1.23D+00  9.22D-01  7.47D-01  8.25D-01
                    CP:  1.20D+00  1.02D+00
 E= -2068.29867571108     Delta-E=       -0.000007820390 Rises=F Damp=F
 DIIS: error= 2.12D-05 at cycle   8 NSaved=   8.
 NSaved= 8 IEnMin= 8 EnMin= -2068.29867571108     IErMin= 8 ErrMin= 2.12D-05
 ErrMax= 2.12D-05  0.00D+00 EMaxC= 1.00D-01 BMatC= 8.61D-07 BMatP= 6.25D-06
 IDIUse=1 WtCom= 1.00D+00 WtEn= 0.00D+00
 Coeff-Com:  0.103D-02-0.218D-02-0.609D-02-0.154D-01-0.358D-01 0.195D-01
 Coeff-Com:  0.341D+00 0.698D+00
 Coeff:      0.103D-02-0.218D-02-0.609D-02-0.154D-01-0.358D-01 0.195D-01
 Coeff:      0.341D+00 0.698D+00
 Gap=     0.199 Goal=   None    Shift=    0.000
 RMSDP=2.02D-06 MaxDP=2.82D-04 DE=-7.82D-06 OVMax= 2.83D-04

 Cycle   9  Pass 1  IDiag  1:
 RMSU=  1.16D-06    CP:  8.59D-01  1.22D+00  9.22D-01  7.47D-01  8.25D-01
                    CP:  1.24D+00  1.11D+00  1.05D+00
 E= -2068.29867682257     Delta-E=       -0.000001111486 Rises=F Damp=F
 DIIS: error= 3.97D-06 at cycle   9 NSaved=   9.
 NSaved= 9 IEnMin= 9 EnMin= -2068.29867682257     IErMin= 9 ErrMin= 3.97D-06
 ErrMax= 3.97D-06  0.00D+00 EMaxC= 1.00D-01 BMatC= 8.55D-08 BMatP= 8.61D-07
 IDIUse=1 WtCom= 1.00D+00 WtEn= 0.00D+00
 Coeff-Com:  0.264D-03-0.500D-03-0.158D-02-0.466D-02-0.148D-01-0.132D-01
 Coeff-Com:  0.556D-01 0.259D+00 0.720D+00
 Coeff:      0.264D-03-0.500D-03-0.158D-02-0.466D-02-0.148D-01-0.132D-01
 Coeff:      0.556D-01 0.259D+00 0.720D+00
 Gap=     0.199 Goal=   None    Shift=    0.000
 RMSDP=8.30D-07 MaxDP=1.30D-04 DE=-1.11D-06 OVMax= 1.33D-04

 Cycle  10  Pass 1  IDiag  1:
 RMSU=  4.74D-07    CP:  8.59D-01  1.22D+00  9.22D-01  7.47D-01  8.21D-01
                    CP:  1.26D+00  1.15D+00  1.11D+00  1.18D+00
 E= -2068.29867692883     Delta-E=       -0.000000106265 Rises=F Damp=F
 DIIS: error= 2.00D-06 at cycle  10 NSaved=  10.
 NSaved=10 IEnMin=10 EnMin= -2068.29867692883     IErMin=10 ErrMin= 2.00D-06
 ErrMax= 2.00D-06  0.00D+00 EMaxC= 1.00D-01 BMatC= 1.52D-08 BMatP= 8.55D-08
 IDIUse=1 WtCom= 1.00D+00 WtEn= 0.00D+00
 Coeff-Com: -0.798D-04 0.194D-03 0.528D-03 0.108D-02 0.456D-03-0.806D-02
 Coeff-Com: -0.377D-01-0.258D-01 0.294D+00 0.776D+00
 Coeff:     -0.798D-04 0.194D-03 0.528D-03 0.108D-02 0.456D-03-0.806D-02
 Coeff:     -0.377D-01-0.258D-01 0.294D+00 0.776D+00
 Gap=     0.199 Goal=   None    Shift=    0.000
 RMSDP=2.93D-07 MaxDP=4.32D-05 DE=-1.06D-07 OVMax= 7.63D-05

 Cycle  11  Pass 1  IDiag  1:
 RMSU=  2.00D-07    CP:  8.59D-01  1.23D+00  9.22D-01  7.47D-01  8.21D-01
                    CP:  1.26D+00  1.15D+00  1.14D+00  1.28D+00  1.07D+00
 E= -2068.29867695011     Delta-E=       -0.000000021279 Rises=F Damp=F
 DIIS: error= 7.27D-07 at cycle  11 NSaved=  11.
 NSaved=11 IEnMin=11 EnMin= -2068.29867695011     IErMin=11 ErrMin= 7.27D-07
 ErrMax= 7.27D-07  0.00D+00 EMaxC= 1.00D-01 BMatC= 2.53D-09 BMatP= 1.52D-08
 IDIUse=1 WtCom= 1.00D+00 WtEn= 0.00D+00
 Coeff-Com: -0.601D-04 0.133D-03 0.384D-03 0.977D-03 0.161D-02-0.218D-02
 Coeff-Com: -0.210D-01-0.390D-01 0.446D-01 0.347D+00 0.667D+00
 Coeff:     -0.601D-04 0.133D-03 0.384D-03 0.977D-03 0.161D-02-0.218D-02
 Coeff:     -0.210D-01-0.390D-01 0.446D-01 0.347D+00 0.667D+00
 Gap=     0.199 Goal=   None    Shift=    0.000
 RMSDP=9.89D-08 MaxDP=2.01D-05 DE=-2.13D-08 OVMax= 2.32D-05

 Cycle  12  Pass 1  IDiag  1:
 RMSU=  6.43D-08    CP:  8.59D-01  1.23D+00  9.22D-01  7.47D-01  8.21D-01
                    CP:  1.26D+00  1.15D+00  1.14D+00  1.31D+00  1.17D+00
                    CP:  9.81D-01
 E= -2068.29867695337     Delta-E=       -0.000000003258 Rises=F Damp=F
 DIIS: error= 3.56D-07 at cycle  12 NSaved=  12.
 NSaved=12 IEnMin=12 EnMin= -2068.29867695337     IErMin=12 ErrMin= 3.56D-07
 ErrMax= 3.56D-07  0.00D+00 EMaxC= 1.00D-01 BMatC= 5.48D-10 BMatP= 2.53D-09
 IDIUse=1 WtCom= 1.00D+00 WtEn= 0.00D+00
 Coeff-Com: -0.155D-04 0.322D-04 0.930D-04 0.304D-03 0.647D-03 0.134D-04
 Coeff-Com: -0.361D-02-0.162D-01-0.323D-01 0.461D-01 0.343D+00 0.662D+00
 Coeff:     -0.155D-04 0.322D-04 0.930D-04 0.304D-03 0.647D-03 0.134D-04
 Coeff:     -0.361D-02-0.162D-01-0.323D-01 0.461D-01 0.343D+00 0.662D+00
 Gap=     0.199 Goal=   None    Shift=    0.000
 RMSDP=5.22D-08 MaxDP=8.82D-06 DE=-3.26D-09 OVMax= 1.32D-05

 Cycle  13  Pass 1  IDiag  1:
 RMSU=  2.69D-08    CP:  8.59D-01  1.23D+00  9.22D-01  7.47D-01  8.20D-01
                    CP:  1.26D+00  1.15D+00  1.15D+00  1.33D+00  1.21D+00
                    CP:  1.07D+00  1.02D+00
 E= -2068.29867695411     Delta-E=       -0.000000000739 Rises=F Damp=F
 DIIS: error= 1.62D-07 at cycle  13 NSaved=  13.
 NSaved=13 IEnMin=13 EnMin= -2068.29867695411     IErMin=13 ErrMin= 1.62D-07
 ErrMax= 1.62D-07  0.00D+00 EMaxC= 1.00D-01 BMatC= 7.88D-11 BMatP= 5.48D-10
 IDIUse=1 WtCom= 1.00D+00 WtEn= 0.00D+00
 Coeff-Com:  0.537D-05-0.130D-04-0.378D-04-0.531D-04-0.241D-04 0.406D-03
 Coeff-Com:  0.307D-02 0.227D-03-0.265D-01-0.483D-01 0.278D-01 0.300D+00
 Coeff-Com:  0.744D+00
 Coeff:      0.537D-05-0.130D-04-0.378D-04-0.531D-04-0.241D-04 0.406D-03
 Coeff:      0.307D-02 0.227D-03-0.265D-01-0.483D-01 0.278D-01 0.300D+00
 Coeff:      0.744D+00
 Gap=     0.199 Goal=   None    Shift=    0.000
 RMSDP=2.32D-08 MaxDP=2.69D-06 DE=-7.39D-10 OVMax= 5.94D-06

 Cycle  14  Pass 1  IDiag  1:
 RMSU=  1.57D-08    CP:  8.59D-01  1.23D+00  9.22D-01  7.47D-01  8.20D-01
                    CP:  1.26D+00  1.15D+00  1.15D+00  1.32D+00  1.22D+00
                    CP:  1.13D+00  1.11D+00  1.12D+00
 E= -2068.29867695421     Delta-E=       -0.000000000104 Rises=F Damp=F
 DIIS: error= 5.77D-08 at cycle  14 NSaved=  14.
 NSaved=14 IEnMin=14 EnMin= -2068.29867695421     IErMin=14 ErrMin= 5.77D-08
 ErrMax= 5.77D-08  0.00D+00 EMaxC= 1.00D-01 BMatC= 1.29D-11 BMatP= 7.88D-11
 IDIUse=1 WtCom= 1.00D+00 WtEn= 0.00D+00
 Coeff-Com:  0.393D-05-0.900D-05-0.267D-04-0.546D-04-0.782D-04 0.149D-03
 Coeff-Com:  0.187D-02 0.199D-02-0.731D-02-0.243D-01-0.307D-01 0.396D-01
 Coeff-Com:  0.325D+00 0.694D+00
 Coeff:      0.393D-05-0.900D-05-0.267D-04-0.546D-04-0.782D-04 0.149D-03
 Coeff:      0.187D-02 0.199D-02-0.731D-02-0.243D-01-0.307D-01 0.396D-01
 Coeff:      0.325D+00 0.694D+00
 Gap=     0.199 Goal=   None    Shift=    0.000
 RMSDP=1.16D-08 MaxDP=1.20D-06 DE=-1.04D-10 OVMax= 2.48D-06

 Cycle  15  Pass 1  IDiag  1:
 RMSU=  8.48D-09    CP:  8.59D-01  1.23D+00  9.22D-01  7.47D-01  8.20D-01
                    CP:  1.26D+00  1.15D+00  1.15D+00  1.32D+00  1.23D+00
                    CP:  1.13D+00  1.14D+00  1.31D+00  1.19D+00
 E= -2068.29867695424     Delta-E=       -0.000000000035 Rises=F Damp=F
 DIIS: error= 2.99D-08 at cycle  15 NSaved=  15.
 NSaved=15 IEnMin=15 EnMin= -2068.29867695424     IErMin=15 ErrMin= 2.99D-08
 ErrMax= 2.99D-08  0.00D+00 EMaxC= 1.00D-01 BMatC= 3.27D-12 BMatP= 1.29D-11
 IDIUse=1 WtCom= 1.00D+00 WtEn= 0.00D+00
 Coeff-Com:  0.496D-06-0.105D-05-0.433D-05-0.120D-04-0.276D-04-0.452D-04
 Coeff-Com:  0.234D-03 0.740D-03 0.202D-02-0.474D-03-0.212D-01-0.492D-01
 Coeff-Com: -0.774D-02 0.362D+00 0.714D+00
 Coeff:      0.496D-06-0.105D-05-0.433D-05-0.120D-04-0.276D-04-0.452D-04
 Coeff:      0.234D-03 0.740D-03 0.202D-02-0.474D-03-0.212D-01-0.492D-01
 Coeff:     -0.774D-02 0.362D+00 0.714D+00
 Gap=     0.199 Goal=   None    Shift=    0.000
 RMSDP=1.21D-08 MaxDP=7.77D-07 DE=-3.46D-11 OVMax= 1.27D-06

 Cycle  16  Pass 1  IDiag  1:
 RMSU=  8.42D-09    CP:  8.59D-01  1.23D+00  9.22D-01  7.47D-01  8.20D-01
                    CP:  1.26D+00  1.15D+00  1.15D+00  1.33D+00  1.23D+00
                    CP:  1.13D+00  1.15D+00  1.40D+00  1.45D+00  1.78D+00
 E= -2068.29867695433     Delta-E=       -0.000000000084 Rises=F Damp=F
 DIIS: error= 8.30D-09 at cycle  16 NSaved=  16.
 NSaved=16 IEnMin=16 EnMin= -2068.29867695433     IErMin=16 ErrMin= 8.30D-09
 ErrMax= 8.30D-09  0.00D+00 EMaxC= 1.00D-01 BMatC= 2.82D-13 BMatP= 3.27D-12
 IDIUse=1 WtCom= 1.00D+00 WtEn= 0.00D+00
 Coeff-Com: -0.184D-06 0.433D-06 0.480D-06 0.621D-06-0.267D-05-0.369D-04
 Coeff-Com: -0.743D-04 0.890D-04 0.129D-02 0.186D-02-0.512D-02-0.221D-01
 Coeff-Com: -0.372D-01 0.539D-01 0.241D+00 0.766D+00
 Coeff:     -0.184D-06 0.433D-06 0.480D-06 0.621D-06-0.267D-05-0.369D-04
 Coeff:     -0.743D-04 0.890D-04 0.129D-02 0.186D-02-0.512D-02-0.221D-01
 Coeff:     -0.372D-01 0.539D-01 0.241D+00 0.766D+00
 Gap=     0.199 Goal=   None    Shift=    0.000
 RMSDP=1.66D-08 MaxDP=8.92D-07 DE=-8.37D-11 OVMax= 4.09D-07

 Cycle  17  Pass 1  IDiag  1:
 RMSU=  8.21D-09    CP:  8.59D-01  1.23D+00  9.22D-01  7.47D-01  8.20D-01
                    CP:  1.26D+00  1.15D+00  1.15D+00  1.33D+00  1.23D+00
                    CP:  1.13D+00  1.15D+00  1.46D+00  1.66D+00  2.85D+00
                    CP:  2.23D+00
 E= -2068.29867695440     Delta-E=       -0.000000000076 Rises=F Damp=F
 DIIS: error= 1.30D-08 at cycle  17 NSaved=  17.
 NSaved=17 IEnMin=17 EnMin= -2068.29867695440     IErMin=16 ErrMin= 8.30D-09
 ErrMax= 1.30D-08  0.00D+00 EMaxC= 1.00D-01 BMatC= 1.80D-13 BMatP= 2.82D-13
 IDIUse=1 WtCom= 1.00D+00 WtEn= 0.00D+00
 Coeff-Com: -0.133D-06 0.310D-06 0.332D-06 0.547D-06-0.176D-05-0.266D-04
 Coeff-Com: -0.511D-04 0.607D-04 0.892D-03 0.135D-02-0.330D-02-0.150D-01
 Coeff-Com: -0.263D-01 0.348D-01 0.164D+00 0.545D+00 0.298D+00
 Coeff:     -0.133D-06 0.310D-06 0.332D-06 0.547D-06-0.176D-05-0.266D-04
 Coeff:     -0.511D-04 0.607D-04 0.892D-03 0.135D-02-0.330D-02-0.150D-01
 Coeff:     -0.263D-01 0.348D-01 0.164D+00 0.545D+00 0.298D+00
 Gap=     0.199 Goal=   None    Shift=    0.000
 RMSDP=8.91D-09 MaxDP=4.91D-07 DE=-7.64D-11 OVMax= 2.90D-08

 Error on total polarization charges =  0.08094
 SCF Done:  E(RM062X) =  -2068.29867695     A.U. after   17 cycles
            NFock= 17  Conv=0.89D-08     -V/T= 2.0049
 KE= 2.058265145212D+03 PE=-1.738464392320D+04 EE= 6.969420530184D+03
 SMD-CDS (non-electrostatic) energy       (kcal/mol) =      -6.24
 (included in total energy above)
 Leave Link  502 at Fri Jul  1 00:04:44 2022, MaxMem=  5242880000 cpu:     82090.2
 (Enter /opt/nce/packages/global/g09/l801.exe)
 DoSCS=F DFT=T ScalE2(SS,OS)=  1.000000  1.000000
 ExpMin= 9.52D-02 ExpMax= 3.55D+04 ExpMxC= 1.21D+03 IAcc=3 IRadAn=         5 AccDes= 0.00D+00
 HarFok:  IExCor=  205 AccDes= 0.00D+00 IRadAn=         5 IDoV=-2 UseB2=F ITyADJ=14
 ICtDFT= 12500011 ScaDFX=  1.000000  1.000000  1.000000  1.000000
 Largest valence mixing into a core orbital is  1.07D-04
 Largest core mixing into a valence orbital is  4.13D-05
 Range of M.O.s used for correlation:    51  1730
 NBasis=  1730 NAE=   169 NBE=   169 NFC=    50 NFV=     0
 NROrb=   1680 NOA=   119 NOB=   119 NVA=  1561 NVB=  1561

 **** Warning!!: The largest alpha MO coefficient is  0.58113363D+02

 Leave Link  801 at Fri Jul  1 00:04:45 2022, MaxMem=  5242880000 cpu:         7.6
 (Enter /opt/nce/packages/global/g09/l914.exe)
 RHF ground state
 MDV=  5242880000 DFT=T DoStab=F Mixed=T DoRPA=T DoScal=F NonHer=T
 Would need an additional       3398529900000 words for in-memory AO integral storage.
 NEqPCM:  Using non-equilibrium solvation (IEInf=1, Eps=  35.6880, EpsInf=   1.8069)
 Inv3:  Mode=1 IEnd=   108938028.
 Iteration    1 A*A^-1 deviation from unit magnitude is 7.33D-15 for   6023.
 Iteration    1 A*A^-1 deviation from orthogonality  is 2.45D-15 for   3772   3215.
 Iteration    1 A^-1*A deviation from unit magnitude is 7.22D-15 for   6023.
 Iteration    1 A^-1*A deviation from orthogonality  is 7.86D-14 for   4577   4533.
 Making orbital integer symmetry assigments:
 Orbital symmetries:
       Occupied  (A) (A) (A) (A) (A) (A) (A) (A) (A) (A) (A) (A)
                 (A) (A) (A) (A) (A) (A) (A) (A) (A) (A) (A) (A)
                 (A) (A) (A) (A) (A) (A) (A) (A) (A) (A) (A) (A)
                 (A) (A) (A) (A) (A) (A) (A) (A) (A) (A) (A) (A)
                 (A) (A) (A) (A) (A) (A) (A) (A) (A) (A) (A) (A)
                 (A) (A) (A) (A) (A) (A) (A) (A) (A) (A) (A) (A)
                 (A) (A) (A) (A) (A) (A) (A) (A) (A) (A) (A) (A)
                 (A) (A) (A) (A) (A) (A) (A) (A) (A) (A) (A) (A)
                 (A) (A) (A) (A) (A) (A) (A) (A) (A) (A) (A) (A)
                 (A) (A) (A) (A) (A) (A) (A) (A) (A) (A) (A) (A)
                 (A) (A) (A) (A) (A) (A) (A) (A) (A) (A) (A) (A)
                 (A) (A) (A) (A) (A) (A) (A) (A) (A) (A) (A) (A)
                 (A) (A) (A) (A) (A) (A) (A) (A) (A) (A) (A) (A)
                 (A) (A) (A) (A) (A) (A) (A) (A) (A) (A) (A) (A)
                 (A)
       Virtual   (A) (A) (A) (A) (A) (A) (A) (A) (A) (A) (A) (A)
                 (A) (A) (A) (A) (A) (A) (A) (A) (A) (A) (A) (A)
                 (A) (A) (A) (A) (A) (A) (A) (A) (A) (A) (A) (A)
                 (A) (A) (A) (A) (A) (A) (A) (A) (A) (A) (A) (A)
                 (A) (A) (A) (A) (A) (A) (A) (A) (A) (A) (A) (A)
                 (A) (A) (A) (A) (A) (A) (A) (A) (A) (A) (A) (A)
                 (A) (A) (A) (A) (A) (A) (A) (A) (A) (A) (A) (A)
                 (A) (A) (A) (A) (A) (A) (A) (A) (A) (A) (A) (A)
                 (A) (A) (A) (A) (A) (A) (A) (A) (A) (A) (A) (A)
                 (A) (A) (A) (A) (A) (A) (A) (A) (A) (A) (A) (A)
                 (A) (A) (A) (A) (A) (A) (A) (A) (A) (A) (A) (A)
                 (A) (A) (A) (A) (A) (A) (A) (A) (A) (A) (A) (A)
                 (A) (A) (A) (A) (A) (A) (A) (A) (A) (A) (A) (A)
                 (A) (A) (A) (A) (A) (A) (A) (A) (A) (A) (A) (A)
                 (A) (A) (A) (A) (A) (A) (A) (A) (A) (A) (A) (A)
                 (A) (A) (A) (A) (A) (A) (A) (A) (A) (A) (A) (A)
                 (A) (A) (A) (A) (A) (A) (A) (A) (A) (A) (A) (A)
                 (A) (A) (A) (A) (A) (A) (A) (A) (A) (A) (A) (A)
                 (A) (A) (A) (A) (A) (A) (A) (A) (A) (A) (A) (A)
                 (A) (A) (A) (A) (A) (A) (A) (A) (A) (A) (A) (A)
                 (A) (A) (A) (A) (A) (A) (A) (A) (A) (A) (A) (A)
                 (A) (A) (A) (A) (A) (A) (A) (A) (A) (A) (A) (A)
                 (A) (A) (A) (A) (A) (A) (A) (A) (A) (A) (A) (A)
                 (A) (A) (A) (A) (A) (A) (A) (A) (A) (A) (A) (A)
                 (A) (A) (A) (A) (A) (A) (A) (A) (A) (A) (A) (A)
                 (A) (A) (A) (A) (A) (A) (A) (A) (A) (A) (A) (A)
                 (A) (A) (A) (A) (A) (A) (A) (A) (A) (A) (A) (A)
                 (A) (A) (A) (A) (A) (A) (A) (A) (A) (A) (A) (A)
                 (A) (A) (A) (A) (A) (A) (A) (A) (A) (A) (A) (A)
                 (A) (A) (A) (A) (A) (A) (A) (A) (A) (A) (A) (A)
                 (A) (A) (A) (A) (A) (A) (A) (A) (A) (A) (A) (A)
                 (A) (A) (A) (A) (A) (A) (A) (A) (A) (A) (A) (A)
                 (A) (A) (A) (A) (A) (A) (A) (A) (A) (A) (A) (A)
                 (A) (A) (A) (A) (A) (A) (A) (A) (A) (A) (A) (A)
                 (A) (A) (A) (A) (A) (A) (A) (A) (A) (A) (A) (A)
                 (A) (A) (A) (A) (A) (A) (A) (A) (A) (A) (A) (A)
                 (A) (A) (A) (A) (A) (A) (A) (A) (A) (A) (A) (A)
                 (A) (A) (A) (A) (A) (A) (A) (A) (A) (A) (A) (A)
                 (A) (A) (A) (A) (A) (A) (A) (A) (A) (A) (A) (A)
                 (A) (A) (A) (A) (A) (A) (A) (A) (A) (A) (A) (A)
                 (A) (A) (A) (A) (A) (A) (A) (A) (A) (A) (A) (A)
                 (A) (A) (A) (A) (A) (A) (A) (A) (A) (A) (A) (A)
                 (A) (A) (A) (A) (A) (A) (A) (A) (A) (A) (A) (A)
                 (A) (A) (A) (A) (A) (A) (A) (A) (A) (A) (A) (A)
                 (A) (A) (A) (A) (A) (A) (A) (A) (A) (A) (A) (A)
                 (A) (A) (A) (A) (A) (A) (A) (A) (A) (A) (A) (A)
                 (A) (A) (A) (A) (A) (A) (A) (A) (A) (A) (A) (A)
                 (A) (A) (A) (A) (A) (A) (A) (A) (A) (A) (A) (A)
                 (A) (A) (A) (A) (A) (A) (A) (A) (A) (A) (A) (A)
                 (A) (A) (A) (A) (A) (A) (A) (A) (A) (A) (A) (A)
                 (A) (A) (A) (A) (A) (A) (A) (A) (A) (A) (A) (A)
                 (A) (A) (A) (A) (A) (A) (A) (A) (A) (A) (A) (A)
                 (A) (A) (A) (A) (A) (A) (A) (A) (A) (A) (A) (A)
                 (A) (A) (A) (A) (A) (A) (A) (A) (A) (A) (A) (A)
                 (A) (A) (A) (A) (A) (A) (A) (A) (A) (A) (A) (A)
                 (A) (A) (A) (A) (A) (A) (A) (A) (A) (A) (A) (A)
                 (A) (A) (A) (A) (A) (A) (A) (A) (A) (A) (A) (A)
                 (A) (A) (A) (A) (A) (A) (A) (A) (A) (A) (A) (A)
                 (A) (A) (A) (A) (A) (A) (A) (A) (A) (A) (A) (A)
                 (A) (A) (A) (A) (A) (A) (A) (A) (A) (A) (A) (A)
                 (A) (A) (A) (A) (A) (A) (A) (A) (A) (A) (A) (A)
                 (A) (A) (A) (A) (A) (A) (A) (A) (A) (A) (A) (A)
                 (A) (A) (A) (A) (A) (A) (A) (A) (A) (A) (A) (A)
                 (A) (A) (A) (A) (A) (A) (A) (A) (A) (A) (A) (A)
                 (A) (A) (A) (A) (A) (A) (A) (A) (A) (A) (A) (A)
                 (A) (A) (A) (A) (A) (A) (A) (A) (A) (A) (A) (A)
                 (A) (A) (A) (A) (A) (A) (A) (A) (A) (A) (A) (A)
                 (A) (A) (A) (A) (A) (A) (A) (A) (A) (A) (A) (A)
                 (A) (A) (A) (A) (A) (A) (A) (A) (A) (A) (A) (A)
                 (A) (A) (A) (A) (A) (A) (A) (A) (A) (A) (A) (A)
                 (A) (A) (A) (A) (A) (A) (A) (A) (A) (A) (A) (A)
                 (A) (A) (A) (A) (A) (A) (A) (A) (A) (A) (A) (A)
                 (A) (A) (A) (A) (A) (A) (A) (A) (A) (A) (A) (A)
                 (A) (A) (A) (A) (A) (A) (A) (A) (A) (A) (A) (A)
                 (A) (A) (A) (A) (A) (A) (A) (A) (A) (A) (A) (A)
                 (A) (A) (A) (A) (A) (A) (A) (A) (A) (A) (A) (A)
                 (A) (A) (A) (A) (A) (A) (A) (A) (A) (A) (A) (A)
                 (A) (A) (A) (A) (A) (A) (A) (A) (A) (A) (A) (A)
                 (A) (A) (A) (A) (A) (A) (A) (A) (A) (A) (A) (A)
                 (A) (A) (A) (A) (A) (A) (A) (A) (A) (A) (A) (A)
                 (A) (A) (A) (A) (A) (A) (A) (A) (A) (A) (A) (A)
                 (A) (A) (A) (A) (A) (A) (A) (A) (A) (A) (A) (A)
                 (A) (A) (A) (A) (A) (A) (A) (A) (A) (A) (A) (A)
                 (A) (A) (A) (A) (A) (A) (A) (A) (A) (A) (A) (A)
                 (A) (A) (A) (A) (A) (A) (A) (A) (A) (A) (A) (A)
                 (A) (A) (A) (A) (A) (A) (A) (A) (A) (A) (A) (A)
                 (A) (A) (A) (A) (A) (A) (A) (A) (A) (A) (A) (A)
                 (A) (A) (A) (A) (A) (A) (A) (A) (A) (A) (A) (A)
                 (A) (A) (A) (A) (A) (A) (A) (A) (A) (A) (A) (A)
                 (A) (A) (A) (A) (A) (A) (A) (A) (A) (A) (A) (A)
                 (A) (A) (A) (A) (A) (A) (A) (A) (A) (A) (A) (A)
                 (A) (A) (A) (A) (A) (A) (A) (A) (A) (A) (A) (A)
                 (A) (A) (A) (A) (A) (A) (A) (A) (A) (A) (A) (A)
                 (A) (A) (A) (A) (A) (A) (A) (A) (A) (A) (A) (A)
                 (A) (A) (A) (A) (A) (A) (A) (A) (A) (A) (A) (A)
                 (A) (A) (A) (A) (A) (A) (A) (A) (A) (A) (A) (A)
                 (A) (A) (A) (A) (A) (A) (A) (A) (A) (A) (A) (A)
                 (A) (A) (A) (A) (A) (A) (A) (A) (A) (A) (A) (A)
                 (A) (A) (A) (A) (A) (A) (A) (A) (A) (A) (A) (A)
                 (A) (A) (A) (A) (A) (A) (A) (A) (A) (A) (A) (A)
                 (A) (A) (A) (A) (A) (A) (A) (A) (A) (A) (A) (A)
                 (A) (A) (A) (A) (A) (A) (A) (A) (A) (A) (A) (A)
                 (A) (A) (A) (A) (A) (A) (A) (A) (A) (A) (A) (A)
                 (A) (A) (A) (A) (A) (A) (A) (A) (A) (A) (A) (A)
                 (A) (A) (A) (A) (A) (A) (A) (A) (A) (A) (A) (A)
                 (A) (A) (A) (A) (A) (A) (A) (A) (A) (A) (A) (A)
                 (A) (A) (A) (A) (A) (A) (A) (A) (A) (A) (A) (A)
                 (A) (A) (A) (A) (A) (A) (A) (A) (A) (A) (A) (A)
                 (A) (A) (A) (A) (A) (A) (A) (A) (A) (A) (A) (A)
                 (A) (A) (A) (A) (A) (A) (A) (A) (A) (A) (A) (A)
                 (A) (A) (A) (A) (A) (A) (A) (A) (A) (A) (A) (A)
                 (A) (A) (A) (A) (A) (A) (A) (A) (A) (A) (A) (A)
                 (A) (A) (A) (A) (A) (A) (A) (A) (A) (A) (A) (A)
                 (A) (A) (A) (A) (A) (A) (A) (A) (A) (A) (A) (A)
                 (A) (A) (A) (A) (A) (A) (A) (A) (A) (A) (A) (A)
                 (A) (A) (A) (A) (A) (A) (A) (A) (A) (A) (A) (A)
                 (A) (A) (A) (A) (A) (A) (A) (A) (A) (A) (A) (A)
                 (A) (A) (A) (A) (A) (A) (A) (A) (A) (A) (A) (A)
                 (A) (A) (A) (A) (A) (A) (A) (A) (A) (A) (A) (A)
                 (A) (A) (A) (A) (A) (A) (A) (A) (A) (A) (A) (A)
                 (A) (A) (A) (A) (A) (A) (A) (A) (A) (A) (A) (A)
                 (A) (A) (A) (A) (A) (A) (A) (A) (A) (A) (A) (A)
                 (A) (A) (A) (A) (A) (A) (A) (A) (A) (A) (A) (A)
                 (A) (A) (A) (A) (A) (A) (A) (A) (A) (A) (A) (A)
                 (A) (A) (A) (A) (A) (A) (A) (A) (A) (A) (A) (A)
                 (A) (A) (A) (A) (A) (A) (A) (A) (A) (A) (A) (A)
                 (A) (A) (A) (A) (A) (A) (A) (A) (A) (A) (A) (A)
                 (A) (A) (A) (A) (A) (A) (A) (A) (A) (A) (A) (A)
                 (A) (A) (A) (A) (A) (A) (A) (A) (A) (A) (A) (A)
                 (A) (A) (A) (A) (A) (A) (A) (A) (A) (A) (A) (A)
                 (A)
   200 initial guesses have been made.
 Convergence on wavefunction:    0.001000000000000
 Davidson Disk Diagonalization:  ConvIn= 1.00D-03 SkipCon=T Conv= 1.00D-03.
 Max sub-space:   800 roots to seek:   200 dimension of matrix:       371518
 Iteration     1 Dimension   200 NMult     0 NNew    200
 CISAX will form    72 AO SS matrices at one time.
 NMat=    72 NSing=    72 JSym2X= 0.
 FoFJK:  IHMeth= 1 ICntrl=       0 DoSepK=F KAlg= 0 I1Cent=   0 FoldK=F
 IRaf=         0 NMat= 144 IRICut=       1 DoRegI=T DoRafI=F ISym2E= 0.
 NMat=    72 NSing=    72 JSym2X= 0.
 NMat=    56 NSing=    56 JSym2X= 0.
 New state      7 was old state      8
 New state      8 was old state     21
 New state      9 was old state     15
 New state     10 was old state     32
 New state     11 was old state      9
 New state     12 was old state     18
 New state     13 was old state     12
 New state     14 was old state     19
 New state     15 was old state     35
 New state     16 was old state     14
 New state     17 was old state     22
 New state     18 was old state      7
 New state     19 was old state     27
 New state     20 was old state     11
 New state     21 was old state     13
 New state     22 was old state     10
 New state     24 was old state     30
 New state     25 was old state     28
 New state     26 was old state     46
 New state     27 was old state     20
 New state     28 was old state     65
 New state     29 was old state     17
 New state     30 was old state     33
 New state     31 was old state     16
 New state     32 was old state     24
 New state     33 was old state     26
 New state     34 was old state     48
 New state     35 was old state     37
 New state     36 was old state     25
 New state     37 was old state     29
 New state     38 was old state     44
 New state     39 was old state     50
 New state     40 was old state     34
 New state     41 was old state     31
 New state     42 was old state     36
 New state     43 was old state     38
 New state     44 was old state     42
 New state     46 was old state     57
 New state     47 was old state     51
 New state     48 was old state     58
 New state     49 was old state     52
 New state     50 was old state     66
 Excitation Energies [eV] at current iteration:
 Root      1 :     3.493238596643373
 Root      2 :     3.730929381048231
 Root      3 :     3.852674735488988
 Root      4 :     3.950960317447953
 Root      5 :     4.266991821631240
 Root      6 :     4.406480264355162
 Root      7 :     4.947623448307008
 Root      8 :     4.996363370134682
 Root      9 :     5.019031230761970
 Root     10 :     5.051758013701923
 Root     11 :     5.106916192024255
 Root     12 :     5.129109406018488
 Root     13 :     5.258941107677579
 Root     14 :     5.285890018996361
 Root     15 :     5.346374066080633
 Root     16 :     5.555067796175136
 Root     17 :     5.590069205511561
 Root     18 :     5.591794290584232
 Root     19 :     5.606319857854799
 Root     20 :     5.640478687550180
 Root     21 :     5.648390894633933
 Root     22 :     5.683724784991512
 Root     23 :     5.709591842149371
 Root     24 :     5.726905555166599
 Root     25 :     5.749907639713846
 Root     26 :     5.775874136572059
 Root     27 :     5.809378229567446
 Root     28 :     5.829944749949174
 Root     29 :     5.846331870896434
 Root     30 :     5.861080531429724
 Root     31 :     5.883250730812290
 Root     32 :     5.896959091301785
 Root     33 :     5.959055740665989
 Root     34 :     5.974733080447518
 Root     35 :     5.994760804358193
 Root     36 :     6.006847777023431
 Root     37 :     6.050441244437835
 Root     38 :     6.066740563285165
 Root     39 :     6.084541226150154
 Root     40 :     6.104509680599381
 Root     41 :     6.139895304842809
 Root     42 :     6.145282705687274
 Root     43 :     6.194519286374539
 Root     44 :     6.231382119693063
 Root     45 :     6.240212719613707
 Root     46 :     6.250690994319791
 Root     47 :     6.261606966691002
 Root     48 :     6.289624482593638
 Root     49 :     6.308684617521067
 Root     50 :     6.356343130990224
 Root     51 :     6.373499402557984
 Root     52 :     6.376709021372365
 Root     53 :     6.412496956485207
 Root     54 :     6.424330988867036
 Root     55 :     6.456155335201846
 Root     56 :     6.470860086206415
 Root     57 :     6.509594754065459
 Root     58 :     6.528964067043467
 Root     59 :     6.543483835131659
 Root     60 :     6.551394705534778
 Root     61 :     6.576971131664929
 Root     62 :     6.577140512053150
 Root     63 :     6.598346041097395
 Root     64 :     6.610474407577631
 Root     65 :     6.657072069876004
 Root     66 :     6.684495863424850
 Root     67 :     6.699476538118042
 Root     68 :     6.713689136865051
 Root     69 :     6.753118307573492
 Root     70 :     6.764841482401449
 Root     71 :     6.838439702867589
 Root     72 :     6.842220378166948
 Root     73 :     6.863069063909498
 Root     74 :     6.891512733664441
 Root     75 :     6.945853104850406
 Root     76 :     6.987349093976166
 Root     77 :     7.041421198768534
 Root     78 :     7.052858586742823
 Root     79 :     7.085621831851452
 Root     80 :     7.107517363569155
 Root     81 :     7.125064200026423
 Root     82 :     7.142016493126101
 Root     83 :     7.154365892657230
 Root     84 :     7.160340026480108
 Root     85 :     7.194451166307563
 Root     86 :     7.203376026013763
 Root     87 :     7.267031604895947
 Root     88 :     7.311603830347525
 Root     89 :     7.345315171384634
 Root     90 :     7.375169392374996
 Root     91 :     7.412531473891098
 Root     92 :     7.427011697646584
 Root     93 :     7.430279093877320
 Root     94 :     7.439362629699806
 Root     95 :     7.451496346384267
 Root     96 :     7.463447856603874
 Root     97 :     7.467854987201806
 Root     98 :     7.478146554328408
 Root     99 :     7.485338068707513
 Root    100 :     7.493113228631781
 Root    101 :     7.498107101825806
 Root    102 :     7.504335172360824
 Root    103 :     7.514807927633790
 Root    104 :     7.527280086182631
 Root    105 :     7.537449490955490
 Root    106 :     7.548033662331529
 Root    107 :     7.554441609097324
 Root    108 :     7.574165018715278
 Root    109 :     7.578236309155030
 Root    110 :     7.584054298207992
 Root    111 :     7.585396408791773
 Root    112 :     7.599989449967658
 Root    113 :     7.606625249272141
 Root    114 :     7.629321098843406
 Root    115 :     7.638754751210237
 Root    116 :     7.650366585284665
 Root    117 :     7.651999386240675
 Root    118 :     7.678998797088425
 Root    119 :     7.687662287916603
 Root    120 :     7.696732697741561
 Root    121 :     7.701959389155803
 Root    122 :     7.712435533611149
 Root    123 :     7.716692912254675
 Root    124 :     7.735963350139548
 Root    125 :     7.751160606950518
 Root    126 :     7.760729037108196
 Root    127 :     7.762564985694866
 Root    128 :     7.771863649621992
 Root    129 :     7.772763476774413
 Root    130 :     7.777509797238513
 Root    131 :     7.790544578886646
 Root    132 :     7.801810316983504
 Root    133 :     7.806959265274478
 Root    134 :     7.821274075970234
 Root    135 :     7.828301225371024
 Root    136 :     7.836738129579847
 Root    137 :     7.844578577847916
 Root    138 :     7.849030226657997
 Root    139 :     7.851084429371406
 Root    140 :     7.867390838318308
 Root    141 :     7.873420549793579
 Root    142 :     7.881330335046308
 Root    143 :     7.888754589582240
 Root    144 :     7.894373853279701
 Root    145 :     7.905568930231985
 Root    146 :     7.921454883136951
 Root    147 :     7.924327769555277
 Root    148 :     7.926815365938770
 Root    149 :     7.934698180244847
 Root    150 :     7.939967157054417
 Root    151 :     7.949071694442044
 Root    152 :     7.955035944666734
 Root    153 :     7.961151676110196
 Root    154 :     7.979378068288840
 Root    155 :     7.989608907542418
 Root    156 :     7.999423268944579
 Root    157 :     8.003002957937166
 Root    158 :     8.018039023179218
 Root    159 :     8.020235788795576
 Root    160 :     8.036360044923111
 Root    161 :     8.051181936649426
 Root    162 :     8.057579289873994
 Root    163 :     8.078479340523522
 Root    164 :     8.084674702431247
 Root    165 :     8.089403159680838
 Root    166 :     8.096407482932960
 Root    167 :     8.101565520639282
 Root    168 :     8.115750761033651
 Root    169 :     8.123323252049087
 Root    170 :     8.144506735616931
 Root    171 :     8.155966106699276
 Root    172 :     8.183632348546807
 Root    173 :     8.193530717395383
 Root    174 :     8.197625956467800
 Root    175 :     8.210750434575969
 Root    176 :     8.228503897557301
 Root    177 :     8.236921228805336
 Root    178 :     8.242371458500019
 Root    179 :     8.251467333974144
 Root    180 :     8.256653307944006
 Root    181 :     8.287411814361272
 Root    182 :     8.301639258527990
 Root    183 :     8.313005760204490
 Root    184 :     8.322473248602027
 Root    185 :     8.327274389827805
 Root    186 :     8.334460400658012
 Root    187 :     8.357622550190028
 Root    188 :     8.368710256047981
 Root    189 :     8.393595939883497
 Root    190 :     8.408755287632440
 Root    191 :     8.420912738498306
 Root    192 :     8.430343152510018
 Root    193 :     8.448458185674781
 Root    194 :     8.461398487356826
 Root    195 :     8.474214329218176
 Root    196 :     8.508496912974428
 Root    197 :     8.540295021648999
 Root    198 :     8.558735986437581
 Root    199 :     8.579904542266613
 Root    200 :     8.598156906539369
 Iteration     2 Dimension   300 NMult   200 NNew    100
 CISAX will form   100 AO SS matrices at one time.
 NMat=   100 NSing=   100 JSym2X= 0.
 Root      1 not converged, maximum delta is    0.087310820513907
 Root      2 not converged, maximum delta is    0.226219714047163
 New state      3 was old state      4
 Root      3 not converged, maximum delta is    0.337446644420069
 New state      4 was old state      3
 Root      4 not converged, maximum delta is    0.247278235378845
 Root      5 not converged, maximum delta is    0.047245914702013
 Root      6 not converged, maximum delta is    0.052251768544090
 Root      7 not converged, maximum delta is    0.145892235808602
 Root      8 not converged, maximum delta is    0.215861874658483
 Root      9 not converged, maximum delta is    0.227083994060533
 Root     10 not converged, maximum delta is    0.202185599227193
 Root     11 not converged, maximum delta is    0.275136417676125
 Root     12 not converged, maximum delta is    0.205265782693040
 New state     13 was old state     15
 Root     13 not converged, maximum delta is    0.183059712740376
 New state     14 was old state     13
 Root     14 not converged, maximum delta is    0.196879817368620
 New state     15 was old state     14
 Root     15 not converged, maximum delta is    0.178057649576501
 Root     16 not converged, maximum delta is    0.216815817697157
 New state     17 was old state     18
 Root     17 not converged, maximum delta is    0.233703746955883
 New state     18 was old state     19
 Root     18 not converged, maximum delta is    0.204419806479778
 New state     19 was old state     21
 Root     19 not converged, maximum delta is    0.208802468746902
 New state     20 was old state     17
 Root     20 not converged, maximum delta is    0.467161625785093
 New state     21 was old state     20
 Root     21 not converged, maximum delta is    0.171598669529979
 Root     22 not converged, maximum delta is    0.236935853918353
 New state     23 was old state     28
 Root     23 not converged, maximum delta is    0.426158066652919
 New state     24 was old state     25
 Root     24 not converged, maximum delta is    0.258075893913840
 New state     25 was old state     23
 Root     25 not converged, maximum delta is    0.315834116730347
 New state     26 was old state     24
 Root     26 not converged, maximum delta is    0.233783295431717
 Root     27 not converged, maximum delta is    0.170827602486965
 New state     28 was old state     26
 Root     28 not converged, maximum delta is    0.380971437055554
 New state     29 was old state     30
 Root     29 not converged, maximum delta is    0.252105412238598
 New state     30 was old state     36
 Root     30 not converged, maximum delta is    0.397287692029296
 Root     31 not converged, maximum delta is    0.263843451442550
 New state     32 was old state     29
 Root     32 not converged, maximum delta is    0.096408330893852
 New state     33 was old state     34
 Root     33 not converged, maximum delta is    0.143683135863902
 New state     34 was old state     32
 Root     34 not converged, maximum delta is    0.240674552940011
 Root     35 not converged, maximum delta is    0.265453498941029
 New state     36 was old state     33
 Root     36 not converged, maximum delta is    0.310437147433469
 New state     37 was old state     49
 Root     37 not converged, maximum delta is    0.333263101723030
 New state     38 was old state     37
 Root     38 not converged, maximum delta is    0.247251269385201
 Root     39 not converged, maximum delta is    0.266971199365515
 New state     40 was old state     46
 Root     40 not converged, maximum delta is    0.303468098660461
 New state     41 was old state     38
 Root     41 not converged, maximum delta is    0.157139403618467
 New state     42 was old state     40
 Root     42 not converged, maximum delta is    0.218275269584587
 Root     43 not converged, maximum delta is    0.238308374739391
 New state     44 was old state     41
 Root     44 not converged, maximum delta is    0.128170659022464
 New state     45 was old state     42
 Root     45 not converged, maximum delta is    0.316221761332169
 New state     46 was old state     48
 Root     46 not converged, maximum delta is    0.269147340438253
 New state     47 was old state     45
 Root     47 not converged, maximum delta is    0.148722069033046
 New state     48 was old state     47
 Root     48 not converged, maximum delta is    0.237187688997769
 New state     49 was old state     50
 Root     49 not converged, maximum delta is    0.374039937629484
 New state     50 was old state     53
 Root     50 not converged, maximum delta is    0.293171593038162
 Excitation Energies [eV] at current iteration:
 Root      1 :     3.336095018406012   Change is   -0.157143578237361
 Root      2 :     3.488208114817058   Change is   -0.242721266231173
 Root      3 :     3.687561219554561   Change is   -0.263399097893392
 Root      4 :     3.737674120117315   Change is   -0.115000615371673
 Root      5 :     4.066176194718235   Change is   -0.200815626913005
 Root      6 :     4.262543430766248   Change is   -0.143936833588914
 Root      7 :     4.627273426255874   Change is   -0.320350022051134
 Root      8 :     4.718423565572065   Change is   -0.277939804562617
 Root      9 :     4.737960505031812   Change is   -0.281070725730158
 Root     10 :     4.789476831608731   Change is   -0.262281182093192
 Root     11 :     4.843364705957902   Change is   -0.263551486066353
 Root     12 :     4.886225007810598   Change is   -0.242884398207891
 Root     13 :     5.079381866704723   Change is   -0.266992199375910
 Root     14 :     5.096723247607621   Change is   -0.162217860069958
 Root     15 :     5.110515624494156   Change is   -0.175374394502205
 Root     16 :     5.415487904939874   Change is   -0.139579891235263
 Root     17 :     5.455529564981884   Change is   -0.136264725602348
 Root     18 :     5.487266536359940   Change is   -0.119053321494859
 Root     19 :     5.501116276613908   Change is   -0.147274618020025
 Root     20 :     5.523417439966972   Change is   -0.066651765544589
 Root     21 :     5.563033576712638   Change is   -0.077445110837542
 Root     22 :     5.575368191764425   Change is   -0.108356593227087
 Root     23 :     5.634840746834662   Change is   -0.195104003114511
 Root     24 :     5.655475806177977   Change is   -0.094431833535869
 Root     25 :     5.659277802033298   Change is   -0.050314040116073
 Root     26 :     5.673425084435948   Change is   -0.053480470730652
 Root     27 :     5.691446503772011   Change is   -0.117931725795435
 Root     28 :     5.704772811463672   Change is   -0.071101325108388
 Root     29 :     5.769779344714937   Change is   -0.091301186714786
 Root     30 :     5.781644446648729   Change is   -0.225203330374702
 Root     31 :     5.792364556305715   Change is   -0.090886174506575
 Root     32 :     5.813924168057738   Change is   -0.032407702838697
 Root     33 :     5.839725965243996   Change is   -0.135007115203522
 Root     34 :     5.865243666087081   Change is   -0.031715425214704
 Root     35 :     5.879768160102127   Change is   -0.114992644256066
 Root     36 :     5.906454559377177   Change is   -0.052601181288813
 Root     37 :     5.916049963472813   Change is   -0.392634654048255
 Root     38 :     5.939030276337827   Change is   -0.111410968100007
 Root     39 :     5.966700355139192   Change is   -0.117840871010962
 Root     40 :     5.989450457237633   Change is   -0.261240537082158
 Root     41 :     6.022711112195255   Change is   -0.044029451089911
 Root     42 :     6.041333245843114   Change is   -0.063176434756267
 Root     43 :     6.056515719561602   Change is   -0.138003566812937
 Root     44 :     6.084161861005081   Change is   -0.055733443837727
 Root     45 :     6.102567623135997   Change is   -0.042715082551277
 Root     46 :     6.126072847022531   Change is   -0.163551635571106
 Root     47 :     6.134356409135766   Change is   -0.105856310477941
 Root     48 :     6.148807196472316   Change is   -0.112799770218686
 Root     49 :     6.198760677527521   Change is   -0.157582453462703
 Root     50 :     6.230626489789822   Change is   -0.181870466695385
 Iteration     3 Dimension   400 NMult   300 NNew    100
 CISAX will form   100 AO SS matrices at one time.
 NMat=   100 NSing=   100 JSym2X= 0.
 Root      1 not converged, maximum delta is    0.005433496481199
 Root      2 not converged, maximum delta is    0.007567154278291
 Root      3 not converged, maximum delta is    0.028866727732953
 Root      4 not converged, maximum delta is    0.027436754707341
 Root      5 not converged, maximum delta is    0.004824704853045
 Root      6 not converged, maximum delta is    0.002688551950678
 Root      7 not converged, maximum delta is    0.007096523366031
 Root      8 not converged, maximum delta is    0.006520396636105
 Root      9 not converged, maximum delta is    0.008814503291446
 Root     10 not converged, maximum delta is    0.009512683890601
 Root     11 not converged, maximum delta is    0.007245956800646
 Root     12 not converged, maximum delta is    0.007739392379671
 Root     13 not converged, maximum delta is    0.039559334226990
 Root     14 not converged, maximum delta is    0.041680592828505
 Root     15 not converged, maximum delta is    0.019640258008838
 Root     16 not converged, maximum delta is    0.019440603974313
 Root     17 not converged, maximum delta is    0.009701191248214
 Root     18 not converged, maximum delta is    0.066452040969838
 Root     19 not converged, maximum delta is    0.032542953075498
 Root     20 not converged, maximum delta is    0.093418621317159
 Root     21 not converged, maximum delta is    0.092215815521413
 Root     22 not converged, maximum delta is    0.082628686652938
 Root     23 not converged, maximum delta is    0.042460279201901
 Root     24 not converged, maximum delta is    0.038163111396340
 Root     25 not converged, maximum delta is    0.063683349923200
 Root     26 not converged, maximum delta is    0.026602568075122
 Root     27 not converged, maximum delta is    0.050167618681887
 Root     28 not converged, maximum delta is    0.050465796576095
 Root     29 not converged, maximum delta is    0.176420987453902
 Root     30 not converged, maximum delta is    0.124499200747907
 Root     31 not converged, maximum delta is    0.077228681826796
 Root     32 not converged, maximum delta is    0.082795728510070
 Root     33 not converged, maximum delta is    0.068591585612587
 Root     34 not converged, maximum delta is    0.193858940516371
 New state     35 was old state     37
 Root     35 not converged, maximum delta is    0.264733621151573
 New state     36 was old state     35
 Root     36 not converged, maximum delta is    0.275689467716214
 New state     37 was old state     36
 Root     37 not converged, maximum delta is    0.197940858818899
 Root     38 not converged, maximum delta is    0.203646796119853
 Root     39 not converged, maximum delta is    0.127019973113460
 Root     40 not converged, maximum delta is    0.136883582149345
 Root     41 not converged, maximum delta is    0.178958549682002
 Root     42 not converged, maximum delta is    0.169693768481888
 Root     43 not converged, maximum delta is    0.218531701726431
 Root     44 not converged, maximum delta is    0.110899856184158
 Root     45 not converged, maximum delta is    0.169325205158909
 Root     46 not converged, maximum delta is    0.218693150017408
 New state     47 was old state     48
 Root     47 not converged, maximum delta is    0.279306270315175
 New state     48 was old state     47
 Root     48 not converged, maximum delta is    0.218818278877096
 New state     49 was old state     50
 Root     49 not converged, maximum delta is    0.170683027985626
 New state     50 was old state     49
 Root     50 not converged, maximum delta is    0.098302096053760
 Excitation Energies [eV] at current iteration:
 Root      1 :     3.325354507581031   Change is   -0.010740510824981
 Root      2 :     3.475421492741673   Change is   -0.012786622075385
 Root      3 :     3.676804319805371   Change is   -0.010756899749190
 Root      4 :     3.730592314562378   Change is   -0.007081805554937
 Root      5 :     4.055577549425945   Change is   -0.010598645292290
 Root      6 :     4.256188928292632   Change is   -0.006354502473616
 Root      7 :     4.611131400524681   Change is   -0.016142025731193
 Root      8 :     4.702347487397025   Change is   -0.016076078175040
 Root      9 :     4.722443663341870   Change is   -0.015516841689941
 Root     10 :     4.776485381532676   Change is   -0.012991450076054
 Root     11 :     4.832087251209210   Change is   -0.011277454748692
 Root     12 :     4.875361761288587   Change is   -0.010863246522011
 Root     13 :     5.062882147986500   Change is   -0.016499718718223
 Root     14 :     5.085093826660600   Change is   -0.011629420947021
 Root     15 :     5.098645385524246   Change is   -0.011870238969910
 Root     16 :     5.400045381978837   Change is   -0.015442522961037
 Root     17 :     5.448302501980212   Change is   -0.007227063001672
 Root     18 :     5.472852629843818   Change is   -0.014413906516122
 Root     19 :     5.492306026343854   Change is   -0.008810250270054
 Root     20 :     5.511707726575534   Change is   -0.011709713391438
 Root     21 :     5.547269148926184   Change is   -0.015764427786454
 Root     22 :     5.566902309069211   Change is   -0.008465882695214
 Root     23 :     5.622988807018073   Change is   -0.011851939816589
 Root     24 :     5.640808871658250   Change is   -0.014666934519726
 Root     25 :     5.651458177740732   Change is   -0.007819624292566
 Root     26 :     5.668906569752644   Change is   -0.004518514683304
 Root     27 :     5.677239659432614   Change is   -0.014206844339396
 Root     28 :     5.693202365541243   Change is   -0.011570445922429
[...]
 Alpha virt. eigenvalues --    2.57202   2.57367   2.57783   2.57995   2.58169
 Alpha virt. eigenvalues --    2.59061   2.59557   2.60356   2.61183   2.62001
 Alpha virt. eigenvalues --    2.62353   2.62406   2.62873   2.63155   2.63561
 Alpha virt. eigenvalues --    2.64132   2.64436   2.64770   2.64979   2.65129
 Alpha virt. eigenvalues --    2.65681   2.65875   2.66082   2.66321   2.66534
 Alpha virt. eigenvalues --    2.66683   2.66969   2.67129   2.67229   2.67678
 Alpha virt. eigenvalues --    2.67800   2.67930   2.68053   2.68295   2.68379
 Alpha virt. eigenvalues --    2.68584   2.68763   2.68907   2.69151   2.69336
 Alpha virt. eigenvalues --    2.69536   2.69734   2.69871   2.69911   2.70319
 Alpha virt. eigenvalues --    2.70534   2.70601   2.70949   2.71160   2.71412
 Alpha virt. eigenvalues --    2.71580   2.71936   2.72074   2.72195   2.72585
 Alpha virt. eigenvalues --    2.72714   2.73211   2.73669   2.73751   2.74003
 Alpha virt. eigenvalues --    2.74224   2.74686   2.74708   2.74905   2.75482
 Alpha virt. eigenvalues --    2.75553   2.75743   2.76070   2.76290   2.76719
 Alpha virt. eigenvalues --    2.76847   2.77016   2.77278   2.77424   2.77640
 Alpha virt. eigenvalues --    2.78020   2.78166   2.78365   2.78682   2.78763
 Alpha virt. eigenvalues --    2.79121   2.79212   2.79490   2.79769   2.79908
 Alpha virt. eigenvalues --    2.80506   2.80726   2.80889   2.81222   2.81316
 Alpha virt. eigenvalues --    2.81520   2.81633   2.81945   2.82398   2.82534
 Alpha virt. eigenvalues --    2.83042   2.83409   2.83765   2.84394   2.84510
 Alpha virt. eigenvalues --    2.84859   2.85211   2.85381   2.85691   2.85919
 Alpha virt. eigenvalues --    2.85993   2.86229   2.86364   2.86509   2.87123
 Alpha virt. eigenvalues --    2.87239   2.87482   2.87565   2.88132   2.88304
 Alpha virt. eigenvalues --    2.88476   2.88593   2.88888   2.89351   2.89544
 Alpha virt. eigenvalues --    2.89957   2.90143   2.90270   2.90530   2.90805
 Alpha virt. eigenvalues --    2.91189   2.91395   2.91855   2.92046   2.92442
 Alpha virt. eigenvalues --    2.92869   2.93597   2.94009   2.94236   2.94471
 Alpha virt. eigenvalues --    2.94649   2.94759   2.95275   2.95418   2.95707
 Alpha virt. eigenvalues --    2.96100   2.96605   2.96924   2.97071   2.97408
 Alpha virt. eigenvalues --    2.97845   2.98049   2.98411   2.98986   2.99197
 Alpha virt. eigenvalues --    2.99441   3.00024   3.01075   3.01208   3.01882
 Alpha virt. eigenvalues --    3.02472   3.02751   3.02945   3.03342   3.03754
 Alpha virt. eigenvalues --    3.03986   3.04681   3.05487   3.06092   3.06660
 Alpha virt. eigenvalues --    3.06842   3.07858   3.08103   3.08355   3.08732
 Alpha virt. eigenvalues --    3.08895   3.09352   3.09411   3.09856   3.10230
 Alpha virt. eigenvalues --    3.10653   3.10941   3.11097   3.11447   3.11869
 Alpha virt. eigenvalues --    3.12162   3.12642   3.12786   3.12918   3.13295
 Alpha virt. eigenvalues --    3.13363   3.13706   3.13834   3.14076   3.14453
 Alpha virt. eigenvalues --    3.14797   3.14923   3.15287   3.15558   3.15805
 Alpha virt. eigenvalues --    3.15878   3.15949   3.16324   3.16602   3.16883
 Alpha virt. eigenvalues --    3.17219   3.17557   3.17728   3.17904   3.18101
 Alpha virt. eigenvalues --    3.18367   3.18616   3.18700   3.18972   3.19089
 Alpha virt. eigenvalues --    3.19548   3.19679   3.19965   3.20477   3.20742
 Alpha virt. eigenvalues --    3.20917   3.21126   3.21274   3.21698   3.21970
 Alpha virt. eigenvalues --    3.22229   3.22331   3.23026   3.23240   3.23481
 Alpha virt. eigenvalues --    3.23718   3.24150   3.24350   3.24966   3.25044
 Alpha virt. eigenvalues --    3.25286   3.25515   3.25947   3.26042   3.26534
 Alpha virt. eigenvalues --    3.26732   3.26903   3.27305   3.27647   3.27956
 Alpha virt. eigenvalues --    3.28618   3.28652   3.28940   3.29137   3.29161
 Alpha virt. eigenvalues --    3.29734   3.29935   3.30149   3.30338   3.30563
 Alpha virt. eigenvalues --    3.30768   3.30997   3.31378   3.32470   3.32782
 Alpha virt. eigenvalues --    3.33095   3.33322   3.33721   3.33946   3.34791
 Alpha virt. eigenvalues --    3.34841   3.35234   3.35429   3.35473   3.35639
 Alpha virt. eigenvalues --    3.35947   3.36388   3.36599   3.36755   3.36865
 Alpha virt. eigenvalues --    3.37573   3.37669   3.37945   3.38155   3.38439
 Alpha virt. eigenvalues --    3.39029   3.39254   3.39749   3.39968   3.40274
 Alpha virt. eigenvalues --    3.40541   3.40738   3.40804   3.41078   3.41364
 Alpha virt. eigenvalues --    3.41615   3.41809   3.41992   3.42207   3.42431
 Alpha virt. eigenvalues --    3.42735   3.42745   3.43366   3.43445   3.43670
 Alpha virt. eigenvalues --    3.44014   3.44297   3.44387   3.44762   3.45135
 Alpha virt. eigenvalues --    3.45194   3.45308   3.45494   3.45767   3.45932
 Alpha virt. eigenvalues --    3.46382   3.46875   3.47009   3.47377   3.47557
 Alpha virt. eigenvalues --    3.47834   3.48152   3.48350   3.48570   3.48855
 Alpha virt. eigenvalues --    3.48889   3.49139   3.49228   3.49546   3.49736
 Alpha virt. eigenvalues --    3.49780   3.50127   3.50349   3.50407   3.50578
 Alpha virt. eigenvalues --    3.50685   3.50826   3.51160   3.51462   3.51588
 Alpha virt. eigenvalues --    3.51756   3.52123   3.52646   3.52760   3.53220
 Alpha virt. eigenvalues --    3.53345   3.53673   3.53736   3.54311   3.54642
 Alpha virt. eigenvalues --    3.54831   3.54905   3.55294   3.55456   3.55913
 Alpha virt. eigenvalues --    3.56454   3.56835   3.57382   3.57524   3.57763
 Alpha virt. eigenvalues --    3.58155   3.58519   3.58732   3.59254   3.59433
 Alpha virt. eigenvalues --    3.59809   3.60173   3.60713   3.61124   3.61404
 Alpha virt. eigenvalues --    3.62667   3.63430   3.63982   3.64185   3.64921
 Alpha virt. eigenvalues --    3.65628   3.65973   3.66393   3.67361   3.67511
 Alpha virt. eigenvalues --    3.67794   3.67840   3.68658   3.69449   3.69534
 Alpha virt. eigenvalues --    3.70207   3.70792   3.71365   3.71526   3.71625
 Alpha virt. eigenvalues --    3.72355   3.72423   3.72908   3.73355   3.73854
 Alpha virt. eigenvalues --    3.74039   3.74548   3.75261   3.75539   3.76240
 Alpha virt. eigenvalues --    3.76423   3.77081   3.78069   3.78170   3.78574
 Alpha virt. eigenvalues --    3.79264   3.79766   3.80042   3.80585   3.80782
 Alpha virt. eigenvalues --    3.81482   3.81878   3.82799   3.83105   3.84792
 Alpha virt. eigenvalues --    3.86003   3.89198   3.90499   3.91007   3.91430
 Alpha virt. eigenvalues --    3.92295   3.92415   3.92551   3.92887   3.93167
 Alpha virt. eigenvalues --    3.94200   3.95088   3.95152   3.95712   3.96252
 Alpha virt. eigenvalues --    3.96803   3.97253   3.97924   3.98059   3.98360
 Alpha virt. eigenvalues --    3.98930   3.99385   3.99775   4.00183   4.00975
 Alpha virt. eigenvalues --    4.01239   4.02050   4.02458   4.02640   4.03037
 Alpha virt. eigenvalues --    4.03517   4.03722   4.03826   4.04212   4.04564
 Alpha virt. eigenvalues --    4.04712   4.05526   4.05920   4.06023   4.06531
 Alpha virt. eigenvalues --    4.06927   4.07117   4.07418   4.07723   4.07956
 Alpha virt. eigenvalues --    4.08640   4.09017   4.09252   4.09402   4.09511
 Alpha virt. eigenvalues --    4.09918   4.10310   4.10631   4.11416   4.11738
 Alpha virt. eigenvalues --    4.12712   4.13246   4.13692   4.13731   4.14184
 Alpha virt. eigenvalues --    4.14454   4.14632   4.14857   4.15787   4.16029
 Alpha virt. eigenvalues --    4.16446   4.16891   4.17072   4.17322   4.17456
 Alpha virt. eigenvalues --    4.17857   4.18186   4.18388   4.18623   4.18841
 Alpha virt. eigenvalues --    4.19224   4.19438   4.20165   4.20463   4.20887
 Alpha virt. eigenvalues --    4.21015   4.21833   4.21947   4.22157   4.22268
 Alpha virt. eigenvalues --    4.22938   4.23152   4.23219   4.24032   4.24438
 Alpha virt. eigenvalues --    4.25091   4.25274   4.25722   4.26073   4.26431
 Alpha virt. eigenvalues --    4.26793   4.27293   4.27504   4.27986   4.28148
 Alpha virt. eigenvalues --    4.29244   4.29691   4.30186   4.30691   4.30800
 Alpha virt. eigenvalues --    4.31159   4.31373   4.31417   4.31757   4.32502
 Alpha virt. eigenvalues --    4.33351   4.33494   4.34043   4.34305   4.34573
 Alpha virt. eigenvalues --    4.34781   4.34876   4.35220   4.36311   4.37549
 Alpha virt. eigenvalues --    4.37814   4.39766   4.40609   4.41140   4.41973
 Alpha virt. eigenvalues --    4.43998   4.44239   4.44866   4.46441   4.48818
 Alpha virt. eigenvalues --    4.49841   4.50869   4.52348   4.52877   4.55307
 Alpha virt. eigenvalues --    4.56533   4.57013   4.58045   4.58189   4.58583
 Alpha virt. eigenvalues --    4.59137   4.59283   4.59950   4.60289   4.61170
 Alpha virt. eigenvalues --    4.61369   4.61706   4.61992   4.62051   4.63418
 Alpha virt. eigenvalues --    4.64138   4.64297   4.65006   4.66248   4.66509
 Alpha virt. eigenvalues --    4.66958   4.67176   4.68057   4.68239   4.68556
 Alpha virt. eigenvalues --    4.69167   4.69383   4.69785   4.70086   4.70556
 Alpha virt. eigenvalues --    4.70901   4.72038   4.72741   4.72991   4.73314
 Alpha virt. eigenvalues --    4.74018   4.74798   4.74836   4.76438   4.77221
 Alpha virt. eigenvalues --    4.77579   4.79309   4.81983   4.83528   4.84075
 Alpha virt. eigenvalues --    4.84846   4.85292   4.85465   4.85585   4.85937
 Alpha virt. eigenvalues --    4.86719   4.87133   4.88315   4.88980   4.89566
 Alpha virt. eigenvalues --    4.89849   4.90162   4.90987   4.91101   4.91843
 Alpha virt. eigenvalues --    4.92455   4.93121   4.95532   4.98057   5.00844
 Alpha virt. eigenvalues --    5.01389   5.02297   5.04307   5.05513   5.05812
 Alpha virt. eigenvalues --    5.07065   5.09309   5.10003   5.10054   5.10121
 Alpha virt. eigenvalues --    5.10543   5.11406   5.13933   5.14660   5.15324
 Alpha virt. eigenvalues --    5.15759   5.17346   5.18592   5.19091   5.19252
 Alpha virt. eigenvalues --    5.19499   5.20248   5.20529   5.21811   5.22452
 Alpha virt. eigenvalues --    5.23571   5.24143   5.24911   5.25507   5.26833
 Alpha virt. eigenvalues --    5.27697   5.28494   5.28597   5.28839   5.30157
 Alpha virt. eigenvalues --    5.31911   5.32088   5.32717   5.33610   5.33853
 Alpha virt. eigenvalues --    5.34769   5.36131   5.36642   5.39472   5.39498
 Alpha virt. eigenvalues --    5.43321   5.44308   5.45453   5.46945   5.48009
 Alpha virt. eigenvalues --    5.48791   5.50548   5.50795   5.51199   5.52155
 Alpha virt. eigenvalues --    5.53652   5.54442   5.54879   5.59281   5.60248
 Alpha virt. eigenvalues --    5.61658   5.63028   5.68588   5.69354   5.70902
 Alpha virt. eigenvalues --    5.71425   5.72136   5.73740   5.75120   5.75723
 Alpha virt. eigenvalues --    5.77507   5.82923   5.87114   5.88567   5.90637
 Alpha virt. eigenvalues --    5.92346   5.93716   5.96443   5.98192   5.99160
 Alpha virt. eigenvalues --    5.99266   6.01572   6.05675   6.07665   6.08385
 Alpha virt. eigenvalues --    6.13071   6.20073   6.37033   6.37751   6.91156
 Alpha virt. eigenvalues --    6.93907   7.01773   7.14465   7.26433   7.46756
 Alpha virt. eigenvalues --    7.64134   8.43493   8.61024   8.79345   9.05848
 Alpha virt. eigenvalues --    9.09972  22.31284  22.31570  22.33177  22.37370
 Alpha virt. eigenvalues --   22.39133  22.40463  22.70981  22.71906  22.72395
 Alpha virt. eigenvalues --   22.72665  22.72971  22.73136  22.73562  22.74094
 Alpha virt. eigenvalues --   22.74209  22.74392  22.74736  22.75132  22.76324
 Alpha virt. eigenvalues --   22.90718  22.90802  22.91733  22.92017  22.92448
 Alpha virt. eigenvalues --   22.93477  22.94843  22.95548  22.96202  22.97404
 Alpha virt. eigenvalues --   22.98549  22.99141  23.18318  23.23057  23.27822
 Alpha virt. eigenvalues --   23.29920  23.31106  23.33123  23.33982  23.36579
 Alpha virt. eigenvalues --   23.37890  23.41776  23.66750  23.89788  23.98708
 Alpha virt. eigenvalues --   32.43146  32.44250  33.42275  33.43121  33.46621
 Alpha virt. eigenvalues --   57.78183
          Condensed to atoms (all electrons):
 Mulliken charges:
               1
     1  C   -0.044672
     2  C    0.325132
     3  C   -0.129518
     4  C    0.324819
     5  C   -0.231745
     6  C    0.260806
     7  C   -0.225331
     8  C   -0.267643
     9  F   -0.197244
    10  N   -0.023033
    11  N   -0.017698
    12  N   -0.051850
    13  C    0.095380
    14  C    0.057128
    15  C   -0.233251
    16  C   -0.255458
    17  C   -0.204677
    18  C   -0.259075
    19  C   -0.182366
    20  H    0.210149
    21  C   -0.150530
    22  H    0.216856
    23  C   -0.172178
    24  H    0.208267
    25  C   -0.152032
    26  H    0.216517
    27  C   -0.196086
    28  H    0.186647
    29  H    0.184573
    30  C   -0.197974
    31  H    0.184824
    32  H    0.184814
    33  H    0.183777
    34  H    0.183833
    35  N   -0.069744
    36  C    0.028755
    37  C    0.124316
    38  C   -0.204729
    39  C   -0.227283
    40  C   -0.243910
    41  C   -0.240502
    42  C   -0.172137
    43  H    0.208203
    44  C   -0.160339
    45  H    0.215413
    46  C   -0.183225
    47  H    0.214460
    48  C   -0.164677
    49  H    0.215611
    50  C   -0.186598
    51  H    0.185440
    52  H    0.185665
    53  C   -0.192671
    54  H    0.189248
    55  H    0.185127
    56  H    0.184502
    57  H    0.184165
    58  N   -0.067427
    59  C    0.044517
    60  C    0.105366
    61  C   -0.215613
    62  C   -0.222443
    63  C   -0.231239
    64  C   -0.241890
    65  C   -0.179524
    66  H    0.212799
    67  C   -0.160847
    68  H    0.215119
    69  C   -0.181613
    70  H    0.220322
    71  C   -0.162610
    72  H    0.216480
    73  C   -0.182897
    74  H    0.186771
    75  H    0.185601
    76  C   -0.191261
    77  H    0.189529
    78  H    0.185478
    79  H    0.184682
    80  H    0.184455
 Sum of Mulliken charges =  -0.00000
 Mulliken charges with hydrogens summed into heavy atoms:
               1
     1  C   -0.044672
     2  C    0.325132
     3  C   -0.129518
     4  C    0.324819
     5  C   -0.231745
     6  C    0.260806
     7  C   -0.225331
     8  C   -0.267643
     9  F   -0.197244
    10  N   -0.023033
    11  N   -0.017698
    12  N   -0.051850
    13  C    0.095380
    14  C    0.057128
    15  C   -0.023102
    16  C   -0.038603
    17  C    0.003590
    18  C   -0.042558
    19  C    0.004282
    21  C    0.034043
    23  C    0.012646
    25  C    0.032782
    27  C   -0.012309
    30  C   -0.014142
    35  N   -0.069744
    36  C    0.028755
    37  C    0.124316
    38  C    0.003474
    39  C   -0.011870
    40  C   -0.029450
    41  C   -0.024892
    42  C    0.013304
    44  C    0.025326
    46  C    0.006023
    48  C    0.020450
    50  C   -0.002097
    53  C   -0.008507
    58  N   -0.067427
    59  C    0.044517
    60  C    0.105366
    61  C   -0.002815
    62  C   -0.007324
    63  C   -0.010918
    64  C   -0.025410
    65  C    0.007247
    67  C    0.024754
    69  C    0.007916
    71  C    0.022867
    73  C    0.001786
    76  C   -0.006806
 Electronic spatial extent (au):  <R**2>=          25989.5955
 Charge=             -0.0000 electrons
 Dipole moment (field-independent basis, Debye):
    X=             -4.1743    Y=              2.5641    Z=             -1.7672  Tot=              5.2079
 Quadrupole moment (field-independent basis, Debye-Ang):
   XX=           -267.6315   YY=           -289.2592   ZZ=           -258.8289
   XY=             -6.1293   XZ=            -18.2121   YZ=             -3.7657
 Traceless Quadrupole moment (field-independent basis, Debye-Ang):
   XX=              4.2751   YY=            -17.3527   ZZ=             13.0776
   XY=             -6.1293   XZ=            -18.2121   YZ=             -3.7657
 Octapole moment (field-independent basis, Debye-Ang**2):
  XXX=            -83.1201  YYY=            152.9790  ZZZ=            -12.8380  XYY=            -49.9868
  XXY=            -22.1210  XXZ=            -12.7436  XZZ=            -10.6232  YZZ=            -43.1141
  YYZ=            -32.3972  XYZ=            -88.1338
 Hexadecapole moment (field-independent basis, Debye-Ang**3):
 XXXX=         -14637.9563 YYYY=         -14125.2404 ZZZZ=          -4941.4461 XXXY=           -193.0442
 XXXZ=           -359.5847 YYYX=             33.8802 YYYZ=             10.8841 ZZZX=           -233.6006
 ZZZY=            -45.1980 XXYY=          -4791.3520 XXZZ=          -3408.1330 YYZZ=          -3118.1824
 XXYZ=            -92.2309 YYXZ=             94.1222 ZZXY=            -45.5956
 N-N= 6.288659570847D+03 E-N=-1.738464392354D+04  KE= 2.058265145212D+03
 Leave Link  601 at Sat Jul  2 15:02:51 2022, MaxMem=  5242880000 cpu:        15.9
 (Enter /opt/nce/packages/global/g09/l9999.exe)
 1\1\GINC-CN035\SP\RM062X TD-FC\def2TZVP\C44H30F1N5\PNG4RJV\02-Jul-2022
 \0\\#p m062x/def2TZVP td=(NStates=50) int=ultrafine scrf=(SMD,solvent=
 Acetonitrile)\\Title\\0,1\C,0,-0.151569,1.384922,0.005829\C,0,-1.22628
 9,0.554074,-0.297541\C,0,-1.152677,-0.83395,-0.270974\C,0,0.099995,-1.
 419842,0.008928\C,0,1.21804,-0.627127,0.293023\C,0,1.072059,0.764553,0
 .330472\C,0,0.238446,-2.839886,0.008887\C,0,2.161869,1.552084,0.808549
 \F,0,-2.369794,1.116261,-0.694339\N,0,0.359718,-3.982104,0.015855\N,0,
 3.035667,2.170716,1.224886\N,0,2.461898,-1.211741,0.578182\C,0,3.59307
 7,-0.808157,-0.177745\C,0,2.571872,-2.132186,1.652973\C,0,3.444692,-0.
 501359,-1.529273\C,0,4.84477,-0.682901,0.423257\C,0,1.797639,-1.957063
 ,2.79736\C,0,3.430523,-3.226659,1.560869\C,0,4.536383,-0.06252,-2.2661
 7\H,0,2.476335,-0.608227,-2.003697\C,0,5.932,-0.261993,-0.326187\H,0,4
 .961492,-0.901684,1.476823\C,0,1.87552,-2.876307,3.835041\H,0,1.134346
 ,-1.103721,2.874232\C,0,3.513611,-4.128708,2.609103\H,0,4.020902,-3.37
 3295,0.665436\C,0,5.785387,0.055851,-1.672005\H,0,4.406613,0.175692,-3
 .314532\H,0,6.898553,-0.165627,0.152421\C,0,2.734974,-3.962754,3.74978
 1\H,0,1.266566,-2.731549,4.718566\H,0,4.18173,-4.976796,2.526554\H,0,6
 .636505,0.392173,-2.249711\H,0,2.798518,-4.674818,4.56226\N,0,-2.28039
 3,-1.592664,-0.570921\C,0,-2.205354,-2.620304,-1.551877\C,0,-3.515645,
 -1.268609,0.051172\C,0,-1.442859,-2.427423,-2.699601\C,0,-2.878084,-3.
 824213,-1.357007\C,0,-3.528916,-0.837608,1.376073\C,0,-4.712136,-1.363
 293,-0.656986\C,0,-1.338266,-3.444919,-3.638699\H,0,-0.931101,-1.48461
 1,-2.853872\C,0,-2.781715,-4.827219,-2.307983\H,0,-3.462265,-3.973483,
 -0.457717\C,0,-4.729262,-0.49095,1.980106\H,0,-2.601946,-0.77861,1.934
 242\C,0,-5.907533,-1.031813,-0.038089\H,0,-4.703927,-1.688061,-1.68937
 7\C,0,-2.007315,-4.646263,-3.449452\H,0,-0.738736,-3.289107,-4.526675\
 H,0,-3.30321,-5.762609,-2.14839\C,0,-5.924234,-0.589591,1.279801\H,0,-
 4.727093,-0.154389,3.009333\H,0,-6.831765,-1.107443,-0.597186\H,0,-1.9
 2824,-5.436332,-4.184937\H,0,-6.859818,-0.325597,1.755435\N,0,-0.29517
 6,2.764698,-0.026218\C,0,0.697456,3.565345,-0.658571\C,0,-1.441355,3.3
 6446,0.5645\C,0,1.296675,3.122526,-1.834364\C,0,1.086485,4.776841,-0.0
 93056\C,0,-1.961614,2.843685,1.74634\C,0,-2.052843,4.460739,-0.039383\
 C,0,2.29619,3.880806,-2.428421\H,0,0.98334,2.185929,-2.280165\C,0,2.07
 2439,5.535562,-0.703759\H,0,0.626651,5.113405,0.827431\C,0,-3.096064,3
 .409372,2.311304\H,0,-1.477045,1.999798,2.223357\C,0,-3.175235,5.02934
 ,0.5425\H,0,-1.653377,4.860135,-0.962836\C,0,2.686811,5.089929,-1.8691
 43\H,0,2.761276,3.525894,-3.339506\H,0,2.373116,6.474388,-0.25602\C,0,
 -3.705844,4.505682,1.716163\H,0,-3.494849,2.995038,3.228796\H,0,-3.645
 502,5.880437,0.066272\H,0,3.462824,5.681957,-2.336649\H,0,-4.586366,4.
 949511,2.162198\\Version=ES64L-G09RevE.01\State=1-A\HF=-2068.298677\RM
 SD=8.906e-09\PG=C01 [X(C44H30F1N5)]\\@


 DO NOT LET SELFISH MEN OR GREEDY INTERESTS SKIN YOUR COUNTRY OF ITS
 BEAUTY, ITS RICHES, OR ITS ROMANCE. -- THEODORE ROOSEVELT
 Job cpu time:      20 days  7 hours 32 minutes 40.0 seconds.
 File lengths (MBytes):  RWF=  20512 Int=      0 D2E=      0 Chk=   4174 Scr=      1
 Normal termination of Gaussian 09 at Sat Jul  2 15:02:58 2022.
