 Entering Gaussian System, Link 0=g09
 Input=/home/png4rjv/fotokatalizis/benchmark/OPCs/CA_50_states/CA_2b_M06_def2TZVP.gjf
 Output=/home/png4rjv/fotokatalizis/benchmark/OPCs/CA_50_states/CA_2b_M06_def2TZVP.log
 Initial command:
 /opt/nce/packages/global/g09/l1.exe "/home/png4rjv/fotokatalizis/benchmark/OPCs/CA_50_states/CA_2b_M06_def2TZVP/Gau-8926.inp" -scrdir="/home/png4rjv/fotokatalizis/benchmark/OPCs/CA_50_states/CA_2b_M06_def2TZVP/"
 Default is to use a total of  12 processors:
                               12 via shared-memory
                                1 via Linda
 Entering Link 1 = /opt/nce/packages/global/g09/l1.exe PID=      8927.
  
 Copyright (c) 1988,1990,1992,1993,1995,1998,2003,2009,2015,
            Gaussian, Inc.  All Rights Reserved.
  
 This is part of the Gaussian(R) 09 program.  It is based on
 the Gaussian(R) 03 system (copyright 2003, Gaussian, Inc.),
 the Gaussian(R) 98 system (copyright 1998, Gaussian, Inc.),
 the Gaussian(R) 94 system (copyright 1995, Gaussian, Inc.),
 the Gaussian 92(TM) system (copyright 1992, Gaussian, Inc.),
 the Gaussian 90(TM) system (copyright 1990, Gaussian, Inc.),
 the Gaussian 88(TM) system (copyright 1988, Gaussian, Inc.),
 the Gaussian 86(TM) system (copyright 1986, Carnegie Mellon
 University), and the Gaussian 82(TM) system (copyright 1983,
 Carnegie Mellon University). Gaussian is a federally registered
 trademark of Gaussian, Inc.
  
 This software contains proprietary and confidential information,
 including trade secrets, belonging to Gaussian, Inc.
  
 This software is provided under written license and may be
 used, copied, transmitted, or stored only in accord with that
 written license.
  
 The following legend is applicable only to US Government
 contracts under FAR:
  
                    RESTRICTED RIGHTS LEGEND
  
 Use, reproduction and disclosure by the US Government is
 subject to restrictions as set forth in subparagraphs (a)
 and (c) of the Commercial Computer Software - Restricted
 Rights clause in FAR 52.227-19.
  
 Gaussian, Inc.
 340 Quinnipiac St., Bldg. 40, Wallingford CT 06492
  
  
 ---------------------------------------------------------------
 Warning -- This program may not be used in any manner that
 competes with the business of Gaussian, Inc. or will provide
 assistance to any competitor of Gaussian, Inc.  The licensee
 of this program is prohibited from giving any competitor of
 Gaussian, Inc. access to this program.  By using this program,
 the user acknowledges that Gaussian, Inc. is engaged in the
 business of creating and licensing software in the field of
 computational chemistry and represents and warrants to the
 licensee that it is not a competitor of Gaussian, Inc. and that
 it will not use this program in any manner prohibited above.
 ---------------------------------------------------------------
  

 Cite this work as:
 Gaussian 09, Revision E.01,
 M. J. Frisch, G. W. Trucks, H. B. Schlegel, G. E. Scuseria, 
 M. A. Robb, J. R. Cheeseman, G. Scalmani, V. Barone, B. Mennucci, 
 G. A. Petersson, H. Nakatsuji, M. Caricato, X. Li, H. P. Hratchian, 
 A. F. Izmaylov, J. Bloino, G. Zheng, J. L. Sonnenberg, M. Hada, 
 M. Ehara, K. Toyota, R. Fukuda, J. Hasegawa, M. Ishida, T. Nakajima, 
 Y. Honda, O. Kitao, H. Nakai, T. Vreven, J. A. Montgomery, Jr., 
 J. E. Peralta, F. Ogliaro, M. Bearpark, J. J. Heyd, E. Brothers, 
 K. N. Kudin, V. N. Staroverov, T. Keith, R. Kobayashi, J. Normand, 
 K. Raghavachari, A. Rendell, J. C. Burant, S. S. Iyengar, J. Tomasi, 
 M. Cossi, N. Rega, J. M. Millam, M. Klene, J. E. Knox, J. B. Cross, 
 V. Bakken, C. Adamo, J. Jaramillo, R. Gomperts, R. E. Stratmann, 
 O. Yazyev, A. J. Austin, R. Cammi, C. Pomelli, J. W. Ochterski, 
 R. L. Martin, K. Morokuma, V. G. Zakrzewski, G. A. Voth, 
 P. Salvador, J. J. Dannenberg, S. Dapprich, A. D. Daniels, 
 O. Farkas, J. B. Foresman, J. V. Ortiz, J. Cioslowski, 
 and D. J. Fox, Gaussian, Inc., Wallingford CT, 2013.
 
 ******************************************
 Gaussian 09:  ES64L-G09RevE.01 30-Nov-2015
                 1-Jul-2022 
 ******************************************
 %chk=cp.chk
 Default route:  MaxDisk=500GB
 ----------------------------------------------------------------------
 #p m06/def2TZVP td=(NStates=50) int=ultrafine scrf=(SMD,solvent=Aceton
 itrile)
 ----------------------------------------------------------------------
 1/38=1/1;
 2/12=2,17=6,18=5,40=1/2;
 3/5=44,7=101,11=9,16=1,25=1,30=1,70=32201,72=2,74=-54,75=-5/1,2,8,3;
 4//1;
 5/5=2,38=5,53=2/2;
 8/6=1,10=1,108=50/1;
 9/41=50,42=1,70=2/14;
 6/7=2,8=2,9=2,10=2/1;
 99/5=1,9=1/99;
 Leave Link    1 at Fri Jul  1 01:51:53 2022, MaxMem=           0 cpu:         2.0
 (Enter /opt/nce/packages/global/g09/l101.exe)
 -----
 Title
 -----
 Symbolic Z-matrix:
 Charge =  0 Multiplicity = 1
 C                    -0.17168   1.38023  -0.00082 
 C                    -1.23988   0.54339  -0.306 
 C                    -1.1624   -0.84364  -0.26667 
 C                     0.08935  -1.42395   0.0284 
 C                     1.19578  -0.62063   0.31364 
 C                     1.05036   0.7682    0.34362 
 C                     0.25588  -2.8327    0.02499 
 C                     2.13857   1.54732   0.81472 
 F                    -2.37335   1.09527  -0.719 
 N                     0.41161  -3.97417   0.0262 
 N                     3.02465   2.15773   1.22664 
 N                     2.44394  -1.19922   0.5967 
 C                     3.53643  -0.87496  -0.23993 
 C                     2.59449  -1.98655   1.76421 
 C                     3.3263   -0.68121  -1.60263 
 C                     4.81528  -0.70589   0.28372 
 C                     1.93559  -1.6258    2.93403 
 C                     3.37869  -3.13617   1.745 
 C                     4.37777  -0.30851  -2.42244 
 H                     2.3355   -0.82581  -2.02226 
 C                     5.86191  -0.35156  -0.54705 
 H                     4.98274  -0.8335    1.34715 
 C                     2.05378  -2.41254   4.06804 
 H                     1.3318   -0.72444   2.95658 
 C                     3.50527  -3.90492   2.88634 
 H                     3.87647  -3.43008   0.82753 
 C                     5.65101  -0.14465  -1.9023 
 H                     4.1978   -0.15805  -3.481 
 H                     6.8514   -0.21786  -0.12451 
 C                     2.84133  -3.55101   4.0525 
 H                     1.5337   -2.12174   4.97368 
 H                     4.11621  -4.80013   2.85934 
 H                     6.47366   0.14171  -2.54678 
 H                     2.93729  -4.16193   4.94236 
 N                    -2.28172  -1.60677  -0.57683 
 C                    -2.19322  -2.63308  -1.55293 
 C                    -3.51049  -1.32069   0.06991 
 C                    -1.45656  -2.42348  -2.71239 
 C                    -2.82084  -3.8563   -1.3456 
 C                    -3.51787  -0.97665   1.41716 
 C                    -4.70892  -1.36637  -0.63441 
 C                    -1.32897  -3.44002  -3.64376 
 H                    -0.97919  -1.46349  -2.88078 
 C                    -2.70316  -4.85914  -2.28939 
 H                    -3.38526  -4.02284  -0.43504 
 C                    -4.71159  -0.67026   2.04762 
 H                    -2.58576  -0.95482   1.97246 
 C                    -5.89804  -1.07667   0.00877 
 H                    -4.70513  -1.62142  -1.68798 
 C                    -1.95159  -4.65997  -3.43856 
 H                    -0.7476   -3.26923  -4.54259 
 H                    -3.19041  -5.81208  -2.11714 
 C                    -5.90692  -0.72264   1.34981 
 H                    -4.70474  -0.40195   3.09801 
 H                    -6.82661  -1.11371  -0.54953 
 H                    -1.85446  -5.45249  -4.17117 
 H                    -6.84114  -0.49021   1.84722 
 N                    -0.3116    2.75734  -0.0622 
 C                     0.68225   3.5357   -0.71348 
 C                    -1.4464    3.37514   0.52476 
 C                     1.2583    3.07558  -1.89175 
 C                     1.10388   4.74087  -0.16401 
 C                    -1.92606   2.91913   1.7467 
 C                    -2.08996   4.42509  -0.12029 
 C                     2.26773   3.80356  -2.49807 
 H                     0.92093   2.14117  -2.3284 
 C                     2.09872   5.47095  -0.78731 
 H                     0.66342   5.09306   0.76188 
 C                    -3.05019   3.49937   2.30877 
 H                    -1.41375   2.11059   2.25799 
 C                    -3.20058   5.01121   0.45821 
 H                    -1.72244   4.77439  -1.07852 
 C                     2.69125   5.00369  -1.95125 
 H                     2.71678   3.43156  -3.41203 
 H                     2.42622   6.40645  -0.34837 
 C                    -3.69001   4.5493    1.67102 
 H                    -3.41875   3.13291   3.26023 
 H                    -3.69733   5.82815  -0.05267 
 H                     3.47845   5.57422  -2.42973 
 H                    -4.56549   5.00699   2.11627 
 
 NAtoms=     80 NQM=       80 NQMF=       0 NMMI=      0 NMMIF=      0
                NMic=       0 NMicF=      0.
                    Isotopes and Nuclear Properties:
 (Nuclear quadrupole moments (NQMom) in fm**2, nuclear magnetic moments (NMagM)
  in nuclear magnetons)

  Atom         1           2           3           4           5           6           7           8           9          10
 IAtWgt=          12          12          12          12          12          12          12          12          19          14
 AtmWgt=  12.0000000  12.0000000  12.0000000  12.0000000  12.0000000  12.0000000  12.0000000  12.0000000  18.9984033  14.0030740
 NucSpn=           0           0           0           0           0           0           0           0           1           2
 AtZEff=   0.0000000   0.0000000   0.0000000   0.0000000   0.0000000   0.0000000   0.0000000   0.0000000   0.0000000   0.0000000
 NQMom=    0.0000000   0.0000000   0.0000000   0.0000000   0.0000000   0.0000000   0.0000000   0.0000000   0.0000000   2.0440000
 NMagM=    0.0000000   0.0000000   0.0000000   0.0000000   0.0000000   0.0000000   0.0000000   0.0000000   2.6288670   0.4037610
 AtZNuc=   6.0000000   6.0000000   6.0000000   6.0000000   6.0000000   6.0000000   6.0000000   6.0000000   9.0000000   7.0000000

  Atom        11          12          13          14          15          16          17          18          19          20
 IAtWgt=          14          14          12          12          12          12          12          12          12           1
 AtmWgt=  14.0030740  14.0030740  12.0000000  12.0000000  12.0000000  12.0000000  12.0000000  12.0000000  12.0000000   1.0078250
 NucSpn=           2           2           0           0           0           0           0           0           0           1
 AtZEff=   0.0000000   0.0000000   0.0000000   0.0000000   0.0000000   0.0000000   0.0000000   0.0000000   0.0000000   0.0000000
 NQMom=    2.0440000   2.0440000   0.0000000   0.0000000   0.0000000   0.0000000   0.0000000   0.0000000   0.0000000   0.0000000
 NMagM=    0.4037610   0.4037610   0.0000000   0.0000000   0.0000000   0.0000000   0.0000000   0.0000000   0.0000000   2.7928460
 AtZNuc=   7.0000000   7.0000000   6.0000000   6.0000000   6.0000000   6.0000000   6.0000000   6.0000000   6.0000000   1.0000000

  Atom        21          22          23          24          25          26          27          28          29          30
 IAtWgt=          12           1          12           1          12           1          12           1           1          12
 AtmWgt=  12.0000000   1.0078250  12.0000000   1.0078250  12.0000000   1.0078250  12.0000000   1.0078250   1.0078250  12.0000000
 NucSpn=           0           1           0           1           0           1           0           1           1           0
 AtZEff=   0.0000000   0.0000000   0.0000000   0.0000000   0.0000000   0.0000000   0.0000000   0.0000000   0.0000000   0.0000000
 NQMom=    0.0000000   0.0000000   0.0000000   0.0000000   0.0000000   0.0000000   0.0000000   0.0000000   0.0000000   0.0000000
 NMagM=    0.0000000   2.7928460   0.0000000   2.7928460   0.0000000   2.7928460   0.0000000   2.7928460   2.7928460   0.0000000
 AtZNuc=   6.0000000   1.0000000   6.0000000   1.0000000   6.0000000   1.0000000   6.0000000   1.0000000   1.0000000   6.0000000

  Atom        31          32          33          34          35          36          37          38          39          40
 IAtWgt=           1           1           1           1          14          12          12          12          12          12
 AtmWgt=   1.0078250   1.0078250   1.0078250   1.0078250  14.0030740  12.0000000  12.0000000  12.0000000  12.0000000  12.0000000
 NucSpn=           1           1           1           1           2           0           0           0           0           0
 AtZEff=   0.0000000   0.0000000   0.0000000   0.0000000   0.0000000   0.0000000   0.0000000   0.0000000   0.0000000   0.0000000
 NQMom=    0.0000000   0.0000000   0.0000000   0.0000000   2.0440000   0.0000000   0.0000000   0.0000000   0.0000000   0.0000000
 NMagM=    2.7928460   2.7928460   2.7928460   2.7928460   0.4037610   0.0000000   0.0000000   0.0000000   0.0000000   0.0000000
 AtZNuc=   1.0000000   1.0000000   1.0000000   1.0000000   7.0000000   6.0000000   6.0000000   6.0000000   6.0000000   6.0000000

  Atom        41          42          43          44          45          46          47          48          49          50
 IAtWgt=          12          12           1          12           1          12           1          12           1          12
 AtmWgt=  12.0000000  12.0000000   1.0078250  12.0000000   1.0078250  12.0000000   1.0078250  12.0000000   1.0078250  12.0000000
 NucSpn=           0           0           1           0           1           0           1           0           1           0
 AtZEff=   0.0000000   0.0000000   0.0000000   0.0000000   0.0000000   0.0000000   0.0000000   0.0000000   0.0000000   0.0000000
 NQMom=    0.0000000   0.0000000   0.0000000   0.0000000   0.0000000   0.0000000   0.0000000   0.0000000   0.0000000   0.0000000
 NMagM=    0.0000000   0.0000000   2.7928460   0.0000000   2.7928460   0.0000000   2.7928460   0.0000000   2.7928460   0.0000000
 AtZNuc=   6.0000000   6.0000000   1.0000000   6.0000000   1.0000000   6.0000000   1.0000000   6.0000000   1.0000000   6.0000000

  Atom        51          52          53          54          55          56          57          58          59          60
 IAtWgt=           1           1          12           1           1           1           1          14          12          12
 AtmWgt=   1.0078250   1.0078250  12.0000000   1.0078250   1.0078250   1.0078250   1.0078250  14.0030740  12.0000000  12.0000000
 NucSpn=           1           1           0           1           1           1           1           2           0           0
 AtZEff=   0.0000000   0.0000000   0.0000000   0.0000000   0.0000000   0.0000000   0.0000000   0.0000000   0.0000000   0.0000000
 NQMom=    0.0000000   0.0000000   0.0000000   0.0000000   0.0000000   0.0000000   0.0000000   2.0440000   0.0000000   0.0000000
 NMagM=    2.7928460   2.7928460   0.0000000   2.7928460   2.7928460   2.7928460   2.7928460   0.4037610   0.0000000   0.0000000
 AtZNuc=   1.0000000   1.0000000   6.0000000   1.0000000   1.0000000   1.0000000   1.0000000   7.0000000   6.0000000   6.0000000

  Atom        61          62          63          64          65          66          67          68          69          70
 IAtWgt=          12          12          12          12          12           1          12           1          12           1
 AtmWgt=  12.0000000  12.0000000  12.0000000  12.0000000  12.0000000   1.0078250  12.0000000   1.0078250  12.0000000   1.0078250
 NucSpn=           0           0           0           0           0           1           0           1           0           1
 AtZEff=   0.0000000   0.0000000   0.0000000   0.0000000   0.0000000   0.0000000   0.0000000   0.0000000   0.0000000   0.0000000
 NQMom=    0.0000000   0.0000000   0.0000000   0.0000000   0.0000000   0.0000000   0.0000000   0.0000000   0.0000000   0.0000000
 NMagM=    0.0000000   0.0000000   0.0000000   0.0000000   0.0000000   2.7928460   0.0000000   2.7928460   0.0000000   2.7928460
 AtZNuc=   6.0000000   6.0000000   6.0000000   6.0000000   6.0000000   1.0000000   6.0000000   1.0000000   6.0000000   1.0000000

  Atom        71          72          73          74          75          76          77          78          79          80
 IAtWgt=          12           1          12           1           1          12           1           1           1           1
 AtmWgt=  12.0000000   1.0078250  12.0000000   1.0078250   1.0078250  12.0000000   1.0078250   1.0078250   1.0078250   1.0078250
 NucSpn=           0           1           0           1           1           0           1           1           1           1
 AtZEff=   0.0000000   0.0000000   0.0000000   0.0000000   0.0000000   0.0000000   0.0000000   0.0000000   0.0000000   0.0000000
 NQMom=    0.0000000   0.0000000   0.0000000   0.0000000   0.0000000   0.0000000   0.0000000   0.0000000   0.0000000   0.0000000
 NMagM=    0.0000000   2.7928460   0.0000000   2.7928460   2.7928460   0.0000000   2.7928460   2.7928460   2.7928460   2.7928460
 AtZNuc=   6.0000000   1.0000000   6.0000000   1.0000000   1.0000000   6.0000000   1.0000000   1.0000000   1.0000000   1.0000000
 Leave Link  101 at Fri Jul  1 01:51:53 2022, MaxMem=  5242880000 cpu:         2.1
 (Enter /opt/nce/packages/global/g09/l202.exe)
 Stoichiometry    C44H30FN5
 Framework group  C1[X(C44H30FN5)]
 Deg. of freedom   234
 Full point group                 C1      NOp   1
 Largest Abelian subgroup         C1      NOp   1
 Largest concise Abelian subgroup C1      NOp   1
                         Standard orientation:                         
 ---------------------------------------------------------------------
 Center     Atomic      Atomic             Coordinates (Angstroms)
 Number     Number       Type             X           Y           Z
 ---------------------------------------------------------------------
      1          6           0       -0.171683    1.380230   -0.000820
      2          6           0       -1.239876    0.543392   -0.306002
      3          6           0       -1.162402   -0.843642   -0.266672
      4          6           0        0.089349   -1.423946    0.028395
      5          6           0        1.195780   -0.620627    0.313644
      6          6           0        1.050356    0.768203    0.343619
      7          6           0        0.255875   -2.832699    0.024985
      8          6           0        2.138573    1.547321    0.814721
      9          9           0       -2.373350    1.095274   -0.718997
     10          7           0        0.411612   -3.974169    0.026202
     11          7           0        3.024653    2.157731    1.226642
     12          7           0        2.443939   -1.199215    0.596704
     13          6           0        3.536429   -0.874960   -0.239933
     14          6           0        2.594486   -1.986552    1.764206
     15          6           0        3.326299   -0.681206   -1.602628
     16          6           0        4.815284   -0.705885    0.283718
     17          6           0        1.935592   -1.625799    2.934033
     18          6           0        3.378690   -3.136165    1.745000
     19          6           0        4.377772   -0.308512   -2.422444
     20          1           0        2.335504   -0.825811   -2.022259
     21          6           0        5.861913   -0.351563   -0.547053
     22          1           0        4.982743   -0.833498    1.347148
     23          6           0        2.053784   -2.412542    4.068035
     24          1           0        1.331801   -0.724436    2.956583
     25          6           0        3.505267   -3.904923    2.886336
     26          1           0        3.876466   -3.430081    0.827527
     27          6           0        5.651006   -0.144649   -1.902300
     28          1           0        4.197804   -0.158052   -3.481004
     29          1           0        6.851404   -0.217864   -0.124507
     30          6           0        2.841329   -3.551007    4.052501
     31          1           0        1.533704   -2.121741    4.973682
     32          1           0        4.116214   -4.800130    2.859340
     33          1           0        6.473661    0.141709   -2.546775
     34          1           0        2.937286   -4.161933    4.942360
     35          7           0       -2.281723   -1.606773   -0.576829
     36          6           0       -2.193216   -2.633076   -1.552927
     37          6           0       -3.510494   -1.320694    0.069905
     38          6           0       -1.456558   -2.423477   -2.712392
     39          6           0       -2.820841   -3.856300   -1.345601
     40          6           0       -3.517870   -0.976649    1.417163
     41          6           0       -4.708917   -1.366367   -0.634405
     42          6           0       -1.328974   -3.440020   -3.643759
     43          1           0       -0.979193   -1.463493   -2.880783
     44          6           0       -2.703155   -4.859139   -2.289389
     45          1           0       -3.385258   -4.022836   -0.435044
     46          6           0       -4.711590   -0.670261    2.047618
     47          1           0       -2.585759   -0.954817    1.972457
     48          6           0       -5.898036   -1.076671    0.008768
     49          1           0       -4.705126   -1.621415   -1.687981
     50          6           0       -1.951588   -4.659971   -3.438559
     51          1           0       -0.747597   -3.269230   -4.542587
     52          1           0       -3.190409   -5.812084   -2.117141
     53          6           0       -5.906917   -0.722641    1.349809
     54          1           0       -4.704742   -0.401954    3.098008
     55          1           0       -6.826611   -1.113707   -0.549528
     56          1           0       -1.854456   -5.452488   -4.171174
     57          1           0       -6.841138   -0.490206    1.847216
     58          7           0       -0.311601    2.757340   -0.062199
     59          6           0        0.682252    3.535703   -0.713479
     60          6           0       -1.446401    3.375136    0.524759
     61          6           0        1.258302    3.075580   -1.891748
     62          6           0        1.103884    4.740873   -0.164009
     63          6           0       -1.926055    2.919126    1.746696
     64          6           0       -2.089955    4.425089   -0.120292
     65          6           0        2.267726    3.803557   -2.498074
     66          1           0        0.920927    2.141167   -2.328401
     67          6           0        2.098725    5.470953   -0.787308
     68          1           0        0.663420    5.093056    0.761884
     69          6           0       -3.050190    3.499369    2.308766
     70          1           0       -1.413753    2.110591    2.257988
     71          6           0       -3.200584    5.011209    0.458208
     72          1           0       -1.722443    4.774393   -1.078522
     73          6           0        2.691247    5.003687   -1.951246
     74          1           0        2.716784    3.431563   -3.412033
     75          1           0        2.426216    6.406453   -0.348368
     76          6           0       -3.690009    4.549300    1.671015
     77          1           0       -3.418752    3.132906    3.260227
     78          1           0       -3.697333    5.828147   -0.052668
     79          1           0        3.478451    5.574216   -2.429733
     80          1           0       -4.565489    5.006989    2.116268
 ---------------------------------------------------------------------
 Rotational constants (GHZ):      0.0691897      0.0642975      0.0453190
 Leave Link  202 at Fri Jul  1 01:51:53 2022, MaxMem=  5242880000 cpu:         0.1
 (Enter /opt/nce/packages/global/g09/l301.exe)
 Standard basis: def2TZVP (5D, 7F)
 Ernie: Thresh=  0.10000D-02 Tol=  0.10000D-05 Strict=F.
 There are  1980 symmetry adapted cartesian basis functions of A   symmetry.
 There are  1730 symmetry adapted basis functions of A   symmetry.
  1730 basis functions,  2790 primitive gaussians,  1980 cartesian basis functions
   169 alpha electrons      169 beta electrons
       nuclear repulsion energy      6290.3170317322 Hartrees.
 IExCor= 4235 DFT=T Ex+Corr=M06 ExCW=0 ScaHFX=  0.270000
 ScaDFX=  1.000000  1.000000  1.000000  1.000000 ScalE2=  1.000000  1.000000
 IRadAn=      5 IRanWt=     -1 IRanGd=            0 ICorTp=0 IEmpDi=  4
 NAtoms=   80 NActive=   80 NUniq=   80 SFac= 1.00D+00 NAtFMM=   60 NAOKFM=T Big=T
 Integral buffers will be    131072 words long.
 Regular integral format.
 Two-electron integral symmetry is turned on.
 ------------------------------------------------------------------------------
 Polarizable Continuum Model (PCM)
 =================================
 Model                : PCM (using non-symmetric T matrix).
 Atomic radii         : SMD-Coulomb.
 Polarization charges : Total charges.
 Charge compensation  : None.
 Solution method      : On-the-fly selection.
 Cavity type          : VdW (van der Waals Surface) (Alpha=1.000).
 Cavity algorithm     : GePol (No added spheres)
                        Default sphere list used, NSphG=   80.
                        Lebedev-Laikov grids with approx.  5.0 points / Ang**2.
                        Smoothing algorithm: York/Karplus (Gamma=1.0000).
                        Polarization charges: spherical gaussians, with
                                              point-specific exponents (IZeta= 3).
                        Self-potential: point-specific (ISelfS= 7).
                        Self-field    : sphere-specific E.n sum rule (ISelfD= 2).
 Solvent              : Acetonitrile, Eps=  35.688000 Eps(inf)=   1.806874
 ------------------------------------------------------------------------------
 GePol: Number of generator spheres                  =      80
 GePol: Total number of spheres                      =      80
 GePol: Number of exposed spheres                    =      80 (100.00%)
 GePol: Number of points                             =    6054
 GePol: Average weight of points                     =       0.11
 GePol: Minimum weight of points                     =   0.31D-10
 GePol: Maximum weight of points                     =    0.21501
 GePol: Number of points with low weight             =     353
 GePol: Fraction of low-weight points (<1% of avg)   =       5.83%
 GePol: Cavity surface area                          =    657.097 Ang**2
 GePol: Cavity volume                                =    661.714 Ang**3
 ------------------------------------------------------------------------------
 Atomic radii for non-electrostatic terms: SMD-CDS.
 ------------------------------------------------------------------------------
 PCM non-electrostatic energy =        -0.0100474329 Hartrees.
 Nuclear repulsion after PCM non-electrostatic terms =     6290.3069842993 Hartrees.
 Leave Link  301 at Fri Jul  1 01:51:53 2022, MaxMem=  5242880000 cpu:         2.1
 (Enter /opt/nce/packages/global/g09/l302.exe)
 NPDir=0 NMtPBC=     1 NCelOv=     1 NCel=       1 NClECP=     1 NCelD=      1
         NCelK=      1 NCelE2=     1 NClLst=     1 CellRange=     0.0.
 One-electron integrals computed using PRISM.
   1 Symmetry operations used in ECPInt.
 ECPInt:  NShTT=  224785 NPrTT=  697980 LenC2=  171772 LenP2D=  347639.
 LDataN:  DoStor=T MaxTD1= 6 Len=  172
 NBasis=  1730 RedAO= T EigKep=  1.92D-06  NBF=  1730
 NBsUse=  1730 1.00D-06 EigRej= -1.00D+00 NBFU=  1730
 Precomputing XC quadrature grid using
 IXCGrd= 4 IRadAn=           5 IRanWt=          -1 IRanGd=           0 AccXCQ= 0.00D+00.
 Generated NRdTot=       0 NPtTot=           0 NUsed=           0 NTot=          32
 NSgBfM=  1887  1887  1891  1892  1895 MxSgAt=    80 MxSgA2=    80.
 Leave Link  302 at Fri Jul  1 01:52:01 2022, MaxMem=  5242880000 cpu:        87.3
 (Enter /opt/nce/packages/global/g09/l308.exe)
 Leave Link  308 at Fri Jul  1 01:52:02 2022, MaxMem=  5242880000 cpu:        12.6
 (Enter /opt/nce/packages/global/g09/l303.exe)
 DipDrv:  MaxL=1.
 Leave Link  303 at Fri Jul  1 01:52:03 2022, MaxMem=  5242880000 cpu:         7.0
 (Enter /opt/nce/packages/global/g09/l401.exe)
 ExpMin= 9.52D-02 ExpMax= 3.55D+04 ExpMxC= 1.21D+03 IAcc=3 IRadAn=         5 AccDes= 0.00D+00
 Harris functional with IExCor= 1009 and IRadAn=       5 diagonalized for initial guess.
 HarFok:  IExCor= 1009 AccDes= 0.00D+00 IRadAn=         5 IDoV= 1 UseB2=F ITyADJ=14
 ICtDFT=  3500011 ScaDFX=  1.000000  1.000000  1.000000  1.000000
 FoFCou: FMM=F IPFlag=           0 FMFlag=      100000 FMFlg1=        2001
         NFxFlg=           0 DoJE=T BraDBF=F KetDBF=T FulRan=T
         wScrn=  0.000000 ICntrl=     500 IOpCl=  0 I1Cent=   200000004 NGrid=           0
         NMat0=    1 NMatS0=      1 NMatT0=    0 NMatD0=    1 NMtDS0=    0 NMtDT0=    0
 Petite list used in FoFCou.
 Harris En= -2067.24624032644    
 JPrj=0 DoOrth=F DoCkMO=F.
 Leave Link  401 at Fri Jul  1 01:52:29 2022, MaxMem=  5242880000 cpu:       312.2
 (Enter /opt/nce/packages/global/g09/l502.exe)
 Closed shell SCF:
 Using DIIS extrapolation, IDIIS=  1040.
 Integral symmetry usage will be decided dynamically.
 IVT=    11817950 IEndB=    11817950 NGot=  5242880000 MDV=  5235001071
 LenX=  5235001071 LenY=  5231078691
 Requested convergence on RMS density matrix=1.00D-08 within 128 cycles.
 Requested convergence on MAX density matrix=1.00D-06.
 Requested convergence on             energy=1.00D-06.
 No special actions if energy rises.
 Fock matrices will be formed incrementally for  20 cycles.

 Cycle   1  Pass 1  IDiag  1:
 FoFJK:  IHMeth= 1 ICntrl=       0 DoSepK=F KAlg= 0 I1Cent=   0 FoldK=F
 IRaf= 710000000 NMat=   1 IRICut=       1 DoRegI=T DoRafI=F ISym2E= 0.
 FoFCou: FMM=T IPFlag=           0 FMFlag=      100000 FMFlg1=        2001
         NFxFlg=           0 DoJE=F BraDBF=F KetDBF=F FulRan=T
         wScrn=  0.000000 ICntrl=       0 IOpCl=  0 I1Cent=           0 NGrid=           0
         NMat0=    1 NMatS0=      1 NMatT0=    0 NMatD0=    1 NMtDS0=    0 NMtDT0=    0
 Symmetry not used in FoFCou.
 FMM levels:  10  Number of levels for PrismC:   9
 Inv3:  Mode=1 IEnd=   109952748.
 Iteration    1 A*A^-1 deviation from unit magnitude is 1.15D-14 for   6041.
 Iteration    1 A*A^-1 deviation from orthogonality  is 4.88D-15 for   6031   3750.
 Iteration    1 A^-1*A deviation from unit magnitude is 1.13D-14 for   6041.
 Iteration    1 A^-1*A deviation from orthogonality  is 4.22D-12 for   4785   4744.
 E= -2066.62785673409    
 DIIS: error= 1.49D-02 at cycle   1 NSaved=   1.
 NSaved= 1 IEnMin= 1 EnMin= -2066.62785673409     IErMin= 1 ErrMin= 1.49D-02
 ErrMax= 1.49D-02  0.00D+00 EMaxC= 1.00D-01 BMatC= 9.41D-01 BMatP= 9.41D-01
 IDIUse=3 WtCom= 8.51D-01 WtEn= 1.49D-01
 Coeff-Com:  0.100D+01
 Coeff-En:   0.100D+01
 Coeff:      0.100D+01
 Gap=     0.166 Goal=   None    Shift=    0.000
 GapD=    0.166 DampG=1.000 DampE=0.500 DampFc=0.5000 IDamp=-1.
 Damping current iteration by 5.00D-01
 RMSDP=3.35D-03 MaxDP=8.70D-01              OVMax= 2.39D-01

 Cycle   2  Pass 1  IDiag  1:
 RMSU=  1.64D-03    CP:  1.08D+00
 E= -2067.02279322000     Delta-E=       -0.394936485913 Rises=F Damp=T
 DIIS: error= 4.17D-03 at cycle   2 NSaved=   2.
 NSaved= 2 IEnMin= 2 EnMin= -2067.02279322000     IErMin= 2 ErrMin= 4.17D-03
 ErrMax= 4.17D-03  0.00D+00 EMaxC= 1.00D-01 BMatC= 8.71D-02 BMatP= 9.41D-01
 IDIUse=3 WtCom= 9.58D-01 WtEn= 4.17D-02
 Coeff-Com:  0.812D-01 0.919D+00
 Coeff-En:   0.144D+00 0.856D+00
 Coeff:      0.838D-01 0.916D+00
 Gap=     0.161 Goal=   None    Shift=    0.000
 RMSDP=1.30D-03 MaxDP=1.59D-01 DE=-3.95D-01 OVMax= 1.78D-01

 Cycle   3  Pass 1  IDiag  1:
 RMSU=  1.30D-03    CP:  1.06D+00  1.03D+00
 E= -2067.48730553977     Delta-E=       -0.464512319766 Rises=F Damp=F
 DIIS: error= 6.18D-03 at cycle   3 NSaved=   3.
 NSaved= 3 IEnMin= 3 EnMin= -2067.48730553977     IErMin= 2 ErrMin= 4.17D-03
 ErrMax= 6.18D-03  0.00D+00 EMaxC= 1.00D-01 BMatC= 9.54D-02 BMatP= 8.71D-02
 IDIUse=3 WtCom= 9.38D-01 WtEn= 6.18D-02
 Coeff-Com: -0.244D-01 0.521D+00 0.503D+00
 Coeff-En:   0.000D+00 0.000D+00 0.100D+01
 Coeff:     -0.229D-01 0.489D+00 0.534D+00
 Gap=     0.147 Goal=   None    Shift=    0.000
 RMSDP=4.75D-04 MaxDP=1.25D-01 DE=-4.65D-01 OVMax= 6.77D-02

 Cycle   4  Pass 1  IDiag  1:
 RMSU=  4.33D-04    CP:  1.05D+00  9.91D-01  8.63D-01
 E= -2067.55893334941     Delta-E=       -0.071627809644 Rises=F Damp=F
 DIIS: error= 3.35D-03 at cycle   4 NSaved=   4.
 NSaved= 4 IEnMin= 4 EnMin= -2067.55893334941     IErMin= 4 ErrMin= 3.35D-03
 ErrMax= 3.35D-03  0.00D+00 EMaxC= 1.00D-01 BMatC= 2.23D-02 BMatP= 8.71D-02
 IDIUse=3 WtCom= 9.67D-01 WtEn= 3.35D-02
 Coeff-Com: -0.177D-01 0.158D+00 0.347D+00 0.512D+00
 Coeff-En:   0.000D+00 0.000D+00 0.208D+00 0.792D+00
 Coeff:     -0.171D-01 0.153D+00 0.342D+00 0.522D+00
 Gap=     0.140 Goal=   None    Shift=    0.000
 RMSDP=1.60D-04 MaxDP=2.48D-02 DE=-7.16D-02 OVMax= 2.62D-02

 Cycle   5  Pass 1  IDiag  1:
 RMSU=  1.19D-04    CP:  1.04D+00  9.70D-01  9.07D-01  8.10D-01
 E= -2067.57739221953     Delta-E=       -0.018458870125 Rises=F Damp=F
 DIIS: error= 7.65D-04 at cycle   5 NSaved=   5.
 NSaved= 5 IEnMin= 5 EnMin= -2067.57739221953     IErMin= 5 ErrMin= 7.65D-04
 ErrMax= 7.65D-04  0.00D+00 EMaxC= 1.00D-01 BMatC= 1.78D-03 BMatP= 2.23D-02
 IDIUse=3 WtCom= 9.92D-01 WtEn= 7.65D-03
 Coeff-Com: -0.703D-02 0.338D-01 0.151D+00 0.308D+00 0.514D+00
 Coeff-En:   0.000D+00 0.000D+00 0.000D+00 0.000D+00 0.100D+01
 Coeff:     -0.698D-02 0.335D-01 0.150D+00 0.306D+00 0.518D+00
 Gap=     0.141 Goal=   None    Shift=    0.000
 RMSDP=5.64D-05 MaxDP=1.29D-02 DE=-1.85D-02 OVMax= 8.33D-03

 Cycle   6  Pass 1  IDiag  1:
 RMSU=  4.70D-05    CP:  1.05D+00  9.77D-01  9.11D-01  8.00D-01  7.73D-01
 E= -2067.57875607041     Delta-E=       -0.001363850879 Rises=F Damp=F
 DIIS: error= 1.96D-04 at cycle   6 NSaved=   6.
 NSaved= 6 IEnMin= 6 EnMin= -2067.57875607041     IErMin= 6 ErrMin= 1.96D-04
 ErrMax= 1.96D-04  0.00D+00 EMaxC= 1.00D-01 BMatC= 1.96D-04 BMatP= 1.78D-03
 IDIUse=3 WtCom= 9.98D-01 WtEn= 1.96D-03
 Coeff-Com: -0.160D-02 0.245D-02 0.444D-01 0.110D+00 0.294D+00 0.550D+00
 Coeff-En:   0.000D+00 0.000D+00 0.000D+00 0.000D+00 0.743D-01 0.926D+00
 Coeff:     -0.160D-02 0.244D-02 0.443D-01 0.110D+00 0.294D+00 0.551D+00
 Gap=     0.142 Goal=   None    Shift=    0.000
 RMSDP=1.75D-05 MaxDP=2.59D-03 DE=-1.36D-03 OVMax= 3.94D-03

 Cycle   7  Pass 1  IDiag  1:
 RMSU=  1.68D-05    CP:  1.05D+00  9.77D-01  9.13D-01  7.97D-01  7.74D-01
                    CP:  9.99D-01
 E= -2067.57893250177     Delta-E=       -0.000176431357 Rises=F Damp=F
 DIIS: error= 6.64D-05 at cycle   7 NSaved=   7.
 NSaved= 7 IEnMin= 7 EnMin= -2067.57893250177     IErMin= 7 ErrMin= 6.64D-05
 ErrMax= 6.64D-05  0.00D+00 EMaxC= 1.00D-01 BMatC= 1.17D-05 BMatP= 1.96D-04
 IDIUse=1 WtCom= 1.00D+00 WtEn= 0.00D+00
 Coeff-Com:  0.102D-03-0.175D-02 0.507D-02 0.193D-01 0.701D-01 0.243D+00
 Coeff-Com:  0.664D+00
 Coeff:      0.102D-03-0.175D-02 0.507D-02 0.193D-01 0.701D-01 0.243D+00
 Coeff:      0.664D+00
 Gap=     0.142 Goal=   None    Shift=    0.000
 RMSDP=1.02D-05 MaxDP=2.60D-03 DE=-1.76D-04 OVMax= 1.13D-03

 Cycle   8  Pass 1  IDiag  1:
 RMSU=  6.26D-06    CP:  1.05D+00  9.76D-01  9.13D-01  8.10D-01  8.09D-01
                    CP:  1.05D+00  9.49D-01
 E= -2067.57894349982     Delta-E=       -0.000010998052 Rises=F Damp=F
 DIIS: error= 2.49D-05 at cycle   8 NSaved=   8.
 NSaved= 8 IEnMin= 8 EnMin= -2067.57894349982     IErMin= 8 ErrMin= 2.49D-05
 ErrMax= 2.49D-05  0.00D+00 EMaxC= 1.00D-01 BMatC= 1.73D-06 BMatP= 1.17D-05
 IDIUse=1 WtCom= 1.00D+00 WtEn= 0.00D+00
 Coeff-Com:  0.364D-03-0.142D-02-0.364D-02-0.575D-02-0.815D-02 0.436D-01
 Coeff-Com:  0.321D+00 0.654D+00
 Coeff:      0.364D-03-0.142D-02-0.364D-02-0.575D-02-0.815D-02 0.436D-01
 Coeff:      0.321D+00 0.654D+00
 Gap=     0.142 Goal=   None    Shift=    0.000
 RMSDP=3.55D-06 MaxDP=4.35D-04 DE=-1.10D-05 OVMax= 3.21D-04

 Cycle   9  Pass 1  IDiag  1:
 RMSU=  2.02D-06    CP:  1.05D+00  9.76D-01  9.13D-01  8.12D-01  8.15D-01
                    CP:  1.08D+00  1.05D+00  1.18D+00
 E= -2067.57894503894     Delta-E=       -0.000001539122 Rises=F Damp=F
 DIIS: error= 6.31D-06 at cycle   9 NSaved=   9.
 NSaved= 9 IEnMin= 9 EnMin= -2067.57894503894     IErMin= 9 ErrMin= 6.31D-06
 ErrMax= 6.31D-06  0.00D+00 EMaxC= 1.00D-01 BMatC= 3.19D-07 BMatP= 1.73D-06
 IDIUse=1 WtCom= 1.00D+00 WtEn= 0.00D+00
 Coeff-Com:  0.221D-03-0.685D-03-0.268D-02-0.568D-02-0.140D-01-0.629D-02
 Coeff-Com:  0.102D+00 0.361D+00 0.566D+00
 Coeff:      0.221D-03-0.685D-03-0.268D-02-0.568D-02-0.140D-01-0.629D-02
 Coeff:      0.102D+00 0.361D+00 0.566D+00
 Gap=     0.142 Goal=   None    Shift=    0.000
 RMSDP=1.52D-06 MaxDP=2.25D-04 DE=-1.54D-06 OVMax= 1.38D-04

 Cycle  10  Pass 1  IDiag  1:
 RMSU=  8.05D-07    CP:  1.05D+00  9.76D-01  9.14D-01  8.13D-01  8.15D-01
                    CP:  1.10D+00  1.10D+00  1.27D+00  1.06D+00
 E= -2067.57894530691     Delta-E=       -0.000000267963 Rises=F Damp=F
 DIIS: error= 2.72D-06 at cycle  10 NSaved=  10.
 NSaved=10 IEnMin=10 EnMin= -2067.57894530691     IErMin=10 ErrMin= 2.72D-06
 ErrMax= 2.72D-06  0.00D+00 EMaxC= 1.00D-01 BMatC= 3.83D-08 BMatP= 3.19D-07
 IDIUse=1 WtCom= 1.00D+00 WtEn= 0.00D+00
 Coeff-Com:  0.643D-04-0.142D-03-0.729D-03-0.182D-02-0.568D-02-0.103D-01
 Coeff-Com:  0.114D-02 0.743D-01 0.282D+00 0.661D+00
 Coeff:      0.643D-04-0.142D-03-0.729D-03-0.182D-02-0.568D-02-0.103D-01
 Coeff:      0.114D-02 0.743D-01 0.282D+00 0.661D+00
 Gap=     0.142 Goal=   None    Shift=    0.000
 RMSDP=6.81D-07 MaxDP=1.54D-04 DE=-2.68D-07 OVMax= 6.64D-05

 Cycle  11  Pass 1  IDiag  1:
 RMSU=  3.39D-07    CP:  1.05D+00  9.76D-01  9.14D-01  8.13D-01  8.16D-01
                    CP:  1.10D+00  1.11D+00  1.33D+00  1.14D+00  9.50D-01
 E= -2067.57894533830     Delta-E=       -0.000000031394 Rises=F Damp=F
 DIIS: error= 1.64D-06 at cycle  11 NSaved=  11.
 NSaved=11 IEnMin=11 EnMin= -2067.57894533830     IErMin=11 ErrMin= 1.64D-06
 ErrMax= 1.64D-06  0.00D+00 EMaxC= 1.00D-01 BMatC= 1.19D-08 BMatP= 3.83D-08
 IDIUse=1 WtCom= 1.00D+00 WtEn= 0.00D+00
 Coeff-Com:  0.708D-05 0.231D-04-0.112D-04-0.143D-03-0.113D-02-0.520D-02
 Coeff-Com: -0.146D-01-0.111D-01 0.798D-01 0.414D+00 0.538D+00
 Coeff:      0.708D-05 0.231D-04-0.112D-04-0.143D-03-0.113D-02-0.520D-02
 Coeff:     -0.146D-01-0.111D-01 0.798D-01 0.414D+00 0.538D+00
 Gap=     0.142 Goal=   None    Shift=    0.000
 RMSDP=2.38D-07 MaxDP=3.21D-05 DE=-3.14D-08 OVMax= 3.38D-05

 Cycle  12  Pass 1  IDiag  1:
 RMSU=  1.21D-07    CP:  1.05D+00  9.75D-01  9.14D-01  8.13D-01  8.17D-01
                    CP:  1.10D+00  1.11D+00  1.34D+00  1.18D+00  1.05D+00
                    CP:  9.44D-01
 E= -2067.57894534890     Delta-E=       -0.000000010605 Rises=F Damp=F
 DIIS: error= 6.26D-07 at cycle  12 NSaved=  12.
 NSaved=12 IEnMin=12 EnMin= -2067.57894534890     IErMin=12 ErrMin= 6.26D-07
 ErrMax= 6.26D-07  0.00D+00 EMaxC= 1.00D-01 BMatC= 1.54D-09 BMatP= 1.19D-08
 IDIUse=1 WtCom= 1.00D+00 WtEn= 0.00D+00
 Coeff-Com: -0.506D-05 0.345D-04 0.901D-04 0.181D-03 0.141D-03-0.180D-02
 Coeff-Com: -0.872D-02-0.176D-01 0.285D-02 0.147D+00 0.315D+00 0.563D+00
 Coeff:     -0.506D-05 0.345D-04 0.901D-04 0.181D-03 0.141D-03-0.180D-02
 Coeff:     -0.872D-02-0.176D-01 0.285D-02 0.147D+00 0.315D+00 0.563D+00
 Gap=     0.142 Goal=   None    Shift=    0.000
 RMSDP=1.03D-07 MaxDP=1.45D-05 DE=-1.06D-08 OVMax= 9.57D-06

 Cycle  13  Pass 1  IDiag  1:
 RMSU=  5.86D-08    CP:  1.05D+00  9.75D-01  9.14D-01  8.14D-01  8.17D-01
                    CP:  1.10D+00  1.11D+00  1.35D+00  1.19D+00  1.09D+00
                    CP:  1.01D+00  1.00D+00
 E= -2067.57894534994     Delta-E=       -0.000000001031 Rises=F Damp=F
 DIIS: error= 2.04D-07 at cycle  13 NSaved=  13.
 NSaved=13 IEnMin=13 EnMin= -2067.57894534994     IErMin=13 ErrMin= 2.04D-07
 ErrMax= 2.04D-07  0.00D+00 EMaxC= 1.00D-01 BMatC= 2.25D-10 BMatP= 1.54D-09
 IDIUse=1 WtCom= 1.00D+00 WtEn= 0.00D+00
 Coeff-Com: -0.408D-05 0.149D-04 0.458D-04 0.122D-03 0.268D-03-0.208D-03
 Coeff-Com: -0.210D-02-0.752D-02-0.135D-01 0.845D-02 0.809D-01 0.310D+00
 Coeff-Com:  0.624D+00
 Coeff:     -0.408D-05 0.149D-04 0.458D-04 0.122D-03 0.268D-03-0.208D-03
 Coeff:     -0.210D-02-0.752D-02-0.135D-01 0.845D-02 0.809D-01 0.310D+00
 Coeff:      0.624D+00
 Gap=     0.142 Goal=   None    Shift=    0.000
 RMSDP=4.24D-08 MaxDP=1.06D-05 DE=-1.03D-09 OVMax= 5.11D-06

 Cycle  14  Pass 1  IDiag  1:
 RMSU=  2.09D-08    CP:  1.05D+00  9.75D-01  9.14D-01  8.14D-01  8.17D-01
                    CP:  1.10D+00  1.11D+00  1.35D+00  1.19D+00  1.10D+00
                    CP:  1.06D+00  1.14D+00  1.05D+00
 E= -2067.57894535035     Delta-E=       -0.000000000409 Rises=F Damp=F
 DIIS: error= 1.15D-07 at cycle  14 NSaved=  14.
 NSaved=14 IEnMin=14 EnMin= -2067.57894535035     IErMin=14 ErrMin= 1.15D-07
 ErrMax= 1.15D-07  0.00D+00 EMaxC= 1.00D-01 BMatC= 5.55D-11 BMatP= 2.25D-10
 IDIUse=1 WtCom= 1.00D+00 WtEn= 0.00D+00
 Coeff-Com: -0.160D-05 0.302D-05 0.107D-04 0.429D-04 0.145D-03 0.210D-03
 Coeff-Com:  0.530D-03-0.966D-03-0.910D-02-0.221D-01-0.758D-02 0.855D-01
 Coeff-Com:  0.387D+00 0.566D+00
 Coeff:     -0.160D-05 0.302D-05 0.107D-04 0.429D-04 0.145D-03 0.210D-03
 Coeff:      0.530D-03-0.966D-03-0.910D-02-0.221D-01-0.758D-02 0.855D-01
 Coeff:      0.387D+00 0.566D+00
 Gap=     0.142 Goal=   None    Shift=    0.000
 RMSDP=1.54D-08 MaxDP=1.74D-06 DE=-4.09D-10 OVMax= 2.00D-06

 Cycle  15  Pass 1  IDiag  1:
 RMSU=  1.12D-08    CP:  1.05D+00  9.75D-01  9.14D-01  8.14D-01  8.17D-01
                    CP:  1.10D+00  1.11D+00  1.35D+00  1.19D+00  1.10D+00
                    CP:  1.07D+00  1.16D+00  1.15D+00  1.06D+00
 E= -2067.57894535050     Delta-E=       -0.000000000158 Rises=F Damp=F
 DIIS: error= 2.81D-08 at cycle  15 NSaved=  15.
 NSaved=15 IEnMin=15 EnMin= -2067.57894535050     IErMin=15 ErrMin= 2.81D-08
 ErrMax= 2.81D-08  0.00D+00 EMaxC= 1.00D-01 BMatC= 2.81D-12 BMatP= 5.55D-11
 IDIUse=1 WtCom= 1.00D+00 WtEn= 0.00D+00
 Coeff-Com: -0.685D-07-0.854D-06-0.264D-05-0.302D-05 0.786D-05 0.772D-04
 Coeff-Com:  0.466D-03 0.694D-03-0.120D-02-0.699D-02-0.111D-01-0.162D-01
 Coeff-Com:  0.293D-01 0.193D+00 0.812D+00
 Coeff:     -0.685D-07-0.854D-06-0.264D-05-0.302D-05 0.786D-05 0.772D-04
 Coeff:      0.466D-03 0.694D-03-0.120D-02-0.699D-02-0.111D-01-0.162D-01
 Coeff:      0.293D-01 0.193D+00 0.812D+00
 Gap=     0.142 Goal=   None    Shift=    0.000
 RMSDP=1.48D-08 MaxDP=1.47D-06 DE=-1.58D-10 OVMax= 9.03D-07

 Cycle  16  Pass 1  IDiag  1:
 RMSU=  1.26D-08    CP:  1.05D+00  9.75D-01  9.14D-01  8.14D-01  8.17D-01
                    CP:  1.10D+00  1.11D+00  1.35D+00  1.20D+00  1.11D+00
                    CP:  1.07D+00  1.17D+00  1.19D+00  1.22D+00  1.50D+00
 E= -2067.57894535041     Delta-E=        0.000000000096 Rises=F Damp=F
 DIIS: error= 1.50D-08 at cycle  16 NSaved=  16.
 NSaved=16 IEnMin=15 EnMin= -2067.57894535050     IErMin=16 ErrMin= 1.50D-08
 ErrMax= 1.50D-08  0.00D+00 EMaxC= 1.00D-01 BMatC= 7.95D-13 BMatP= 2.81D-12
 IDIUse=1 WtCom= 1.00D+00 WtEn= 0.00D+00
 Coeff-Com:  0.110D-06-0.776D-06-0.270D-05-0.674D-05-0.123D-04 0.173D-04
 Coeff-Com:  0.190D-03 0.457D-03 0.263D-03-0.156D-02-0.569D-02-0.208D-01
 Coeff-Com: -0.329D-01 0.393D-01 0.440D+00 0.580D+00
 Coeff:      0.110D-06-0.776D-06-0.270D-05-0.674D-05-0.123D-04 0.173D-04
 Coeff:      0.190D-03 0.457D-03 0.263D-03-0.156D-02-0.569D-02-0.208D-01
 Coeff:     -0.329D-01 0.393D-01 0.440D+00 0.580D+00
 Gap=     0.142 Goal=   None    Shift=    0.000
 RMSDP=1.22D-08 MaxDP=9.55D-07 DE= 9.64D-11 OVMax= 2.32D-07

 Cycle  17  Pass 1  IDiag  1:
 RMSU=  6.57D-09    CP:  1.05D+00  9.75D-01  9.14D-01  8.14D-01  8.17D-01
                    CP:  1.10D+00  1.11D+00  1.35D+00  1.20D+00  1.11D+00
                    CP:  1.07D+00  1.17D+00  1.21D+00  1.28D+00  1.93D+00
                    CP:  1.67D+00
 E= -2067.57894535038     Delta-E=        0.000000000027 Rises=F Damp=F
 DIIS: error= 7.96D-09 at cycle  17 NSaved=  17.
 NSaved=17 IEnMin=15 EnMin= -2067.57894535050     IErMin=17 ErrMin= 7.96D-09
 ErrMax= 7.96D-09  0.00D+00 EMaxC= 1.00D-01 BMatC= 1.08D-13 BMatP= 7.95D-13
 IDIUse=1 WtCom= 1.00D+00 WtEn= 0.00D+00
 Coeff-Com:  0.564D-07-0.305D-06-0.106D-05-0.292D-05-0.675D-05-0.250D-06
 Coeff-Com:  0.433D-04 0.144D-03 0.241D-03 0.595D-04-0.148D-02-0.859D-02
 Coeff-Com: -0.194D-01 0.673D-03 0.137D+00 0.278D+00 0.614D+00
 Coeff:      0.564D-07-0.305D-06-0.106D-05-0.292D-05-0.675D-05-0.250D-06
 Coeff:      0.433D-04 0.144D-03 0.241D-03 0.595D-04-0.148D-02-0.859D-02
 Coeff:     -0.194D-01 0.673D-03 0.137D+00 0.278D+00 0.614D+00
 Gap=     0.142 Goal=   None    Shift=    0.000
 RMSDP=1.48D-08 MaxDP=1.34D-06 DE= 2.73D-11 OVMax= 5.27D-08

 Cycle  18  Pass 1  IDiag  1:
 RMSU=  6.16D-09    CP:  1.05D+00  9.75D-01  9.14D-01  8.14D-01  8.17D-01
                    CP:  1.10D+00  1.11D+00  1.35D+00  1.20D+00  1.11D+00
                    CP:  1.07D+00  1.18D+00  1.21D+00  1.30D+00  2.34D+00
                    CP:  2.46D+00  2.12D+00
 E= -2067.57894535030     Delta-E=        0.000000000080 Rises=F Damp=F
 DIIS: error= 1.24D-08 at cycle  18 NSaved=  18.
 NSaved=18 IEnMin=15 EnMin= -2067.57894535050     IErMin=17 ErrMin= 7.96D-09
 ErrMax= 1.24D-08  0.00D+00 EMaxC= 1.00D-01 BMatC= 1.34D-13 BMatP= 1.08D-13
 IDIUse=1 WtCom= 1.00D+00 WtEn= 0.00D+00
 Coeff-Com:  0.667D-07-0.345D-06-0.121D-05-0.339D-05-0.802D-05-0.152D-05
 Coeff-Com:  0.439D-04 0.159D-03 0.296D-03 0.165D-03-0.158D-02-0.980D-02
 Coeff-Com: -0.230D-01-0.174D-02 0.149D+00 0.324D+00 0.782D+00-0.220D+00
 Coeff:      0.667D-07-0.345D-06-0.121D-05-0.339D-05-0.802D-05-0.152D-05
 Coeff:      0.439D-04 0.159D-03 0.296D-03 0.165D-03-0.158D-02-0.980D-02
 Coeff:     -0.230D-01-0.174D-02 0.149D+00 0.324D+00 0.782D+00-0.220D+00
 Gap=     0.142 Goal=   None    Shift=    0.000
 RMSDP=6.67D-09 MaxDP=6.23D-07 DE= 8.00D-11 OVMax= 5.66D-09

 Error on total polarization charges =  0.07850
 SCF Done:  E(RM06) =  -2067.57894535     A.U. after   18 cycles
            NFock= 18  Conv=0.67D-08     -V/T= 2.0047
 KE= 2.057965716260D+03 PE=-1.738958282318D+04 EE= 6.973731177273D+03
 SMD-CDS (non-electrostatic) energy       (kcal/mol) =      -6.30
 (included in total energy above)
 Leave Link  502 at Fri Jul  1 03:52:53 2022, MaxMem=  5242880000 cpu:     86519.0
 (Enter /opt/nce/packages/global/g09/l801.exe)
 DoSCS=F DFT=T ScalE2(SS,OS)=  1.000000  1.000000
 ExpMin= 9.52D-02 ExpMax= 3.55D+04 ExpMxC= 1.21D+03 IAcc=3 IRadAn=         5 AccDes= 0.00D+00
 HarFok:  IExCor=  205 AccDes= 0.00D+00 IRadAn=         5 IDoV=-2 UseB2=F ITyADJ=14
 ICtDFT= 12500011 ScaDFX=  1.000000  1.000000  1.000000  1.000000
 Largest valence mixing into a core orbital is  4.98D-05
 Largest core mixing into a valence orbital is  1.44D-05
 Range of M.O.s used for correlation:    51  1730
 NBasis=  1730 NAE=   169 NBE=   169 NFC=    50 NFV=     0
 NROrb=   1680 NOA=   119 NOB=   119 NVA=  1561 NVB=  1561

 **** Warning!!: The largest alpha MO coefficient is  0.51832192D+02

 Leave Link  801 at Fri Jul  1 03:52:54 2022, MaxMem=  5242880000 cpu:         8.3
 (Enter /opt/nce/packages/global/g09/l914.exe)
 RHF ground state
 MDV=  5242880000 DFT=T DoStab=F Mixed=T DoRPA=T DoScal=F NonHer=T
 Would need an additional       3398529900000 words for in-memory AO integral storage.
 NEqPCM:  Using non-equilibrium solvation (IEInf=1, Eps=  35.6880, EpsInf=   1.8069)
 Inv3:  Mode=1 IEnd=   109952748.
 Iteration    1 A*A^-1 deviation from unit magnitude is 7.22D-15 for   6052.
 Iteration    1 A*A^-1 deviation from orthogonality  is 3.91D-15 for   4221    614.
 Iteration    1 A^-1*A deviation from unit magnitude is 7.22D-15 for   6052.
 Iteration    1 A^-1*A deviation from orthogonality  is 4.45D-14 for   3158   3121.
 Making orbital integer symmetry assigments:
 Orbital symmetries:
       Occupied  (A) (A) (A) (A) (A) (A) (A) (A) (A) (A) (A) (A)
                 (A) (A) (A) (A) (A) (A) (A) (A) (A) (A) (A) (A)
                 (A) (A) (A) (A) (A) (A) (A) (A) (A) (A) (A) (A)
                 (A) (A) (A) (A) (A) (A) (A) (A) (A) (A) (A) (A)
                 (A) (A) (A) (A) (A) (A) (A) (A) (A) (A) (A) (A)
                 (A) (A) (A) (A) (A) (A) (A) (A) (A) (A) (A) (A)
                 (A) (A) (A) (A) (A) (A) (A) (A) (A) (A) (A) (A)
                 (A) (A) (A) (A) (A) (A) (A) (A) (A) (A) (A) (A)
                 (A) (A) (A) (A) (A) (A) (A) (A) (A) (A) (A) (A)
                 (A) (A) (A) (A) (A) (A) (A) (A) (A) (A) (A) (A)
                 (A) (A) (A) (A) (A) (A) (A) (A) (A) (A) (A) (A)
                 (A) (A) (A) (A) (A) (A) (A) (A) (A) (A) (A) (A)
                 (A) (A) (A) (A) (A) (A) (A) (A) (A) (A) (A) (A)
                 (A) (A) (A) (A) (A) (A) (A) (A) (A) (A) (A) (A)
                 (A)
       Virtual   (A) (A) (A) (A) (A) (A) (A) (A) (A) (A) (A) (A)
                 (A) (A) (A) (A) (A) (A) (A) (A) (A) (A) (A) (A)
                 (A) (A) (A) (A) (A) (A) (A) (A) (A) (A) (A) (A)
                 (A) (A) (A) (A) (A) (A) (A) (A) (A) (A) (A) (A)
                 (A) (A) (A) (A) (A) (A) (A) (A) (A) (A) (A) (A)
                 (A) (A) (A) (A) (A) (A) (A) (A) (A) (A) (A) (A)
                 (A) (A) (A) (A) (A) (A) (A) (A) (A) (A) (A) (A)
                 (A) (A) (A) (A) (A) (A) (A) (A) (A) (A) (A) (A)
                 (A) (A) (A) (A) (A) (A) (A) (A) (A) (A) (A) (A)
                 (A) (A) (A) (A) (A) (A) (A) (A) (A) (A) (A) (A)
                 (A) (A) (A) (A) (A) (A) (A) (A) (A) (A) (A) (A)
                 (A) (A) (A) (A) (A) (A) (A) (A) (A) (A) (A) (A)
                 (A) (A) (A) (A) (A) (A) (A) (A) (A) (A) (A) (A)
                 (A) (A) (A) (A) (A) (A) (A) (A) (A) (A) (A) (A)
                 (A) (A) (A) (A) (A) (A) (A) (A) (A) (A) (A) (A)
                 (A) (A) (A) (A) (A) (A) (A) (A) (A) (A) (A) (A)
                 (A) (A) (A) (A) (A) (A) (A) (A) (A) (A) (A) (A)
                 (A) (A) (A) (A) (A) (A) (A) (A) (A) (A) (A) (A)
                 (A) (A) (A) (A) (A) (A) (A) (A) (A) (A) (A) (A)
                 (A) (A) (A) (A) (A) (A) (A) (A) (A) (A) (A) (A)
                 (A) (A) (A) (A) (A) (A) (A) (A) (A) (A) (A) (A)
                 (A) (A) (A) (A) (A) (A) (A) (A) (A) (A) (A) (A)
                 (A) (A) (A) (A) (A) (A) (A) (A) (A) (A) (A) (A)
                 (A) (A) (A) (A) (A) (A) (A) (A) (A) (A) (A) (A)
                 (A) (A) (A) (A) (A) (A) (A) (A) (A) (A) (A) (A)
                 (A) (A) (A) (A) (A) (A) (A) (A) (A) (A) (A) (A)
                 (A) (A) (A) (A) (A) (A) (A) (A) (A) (A) (A) (A)
                 (A) (A) (A) (A) (A) (A) (A) (A) (A) (A) (A) (A)
                 (A) (A) (A) (A) (A) (A) (A) (A) (A) (A) (A) (A)
                 (A) (A) (A) (A) (A) (A) (A) (A) (A) (A) (A) (A)
                 (A) (A) (A) (A) (A) (A) (A) (A) (A) (A) (A) (A)
                 (A) (A) (A) (A) (A) (A) (A) (A) (A) (A) (A) (A)
                 (A) (A) (A) (A) (A) (A) (A) (A) (A) (A) (A) (A)
                 (A) (A) (A) (A) (A) (A) (A) (A) (A) (A) (A) (A)
                 (A) (A) (A) (A) (A) (A) (A) (A) (A) (A) (A) (A)
                 (A) (A) (A) (A) (A) (A) (A) (A) (A) (A) (A) (A)
                 (A) (A) (A) (A) (A) (A) (A) (A) (A) (A) (A) (A)
                 (A) (A) (A) (A) (A) (A) (A) (A) (A) (A) (A) (A)
                 (A) (A) (A) (A) (A) (A) (A) (A) (A) (A) (A) (A)
                 (A) (A) (A) (A) (A) (A) (A) (A) (A) (A) (A) (A)
                 (A) (A) (A) (A) (A) (A) (A) (A) (A) (A) (A) (A)
                 (A) (A) (A) (A) (A) (A) (A) (A) (A) (A) (A) (A)
                 (A) (A) (A) (A) (A) (A) (A) (A) (A) (A) (A) (A)
                 (A) (A) (A) (A) (A) (A) (A) (A) (A) (A) (A) (A)
                 (A) (A) (A) (A) (A) (A) (A) (A) (A) (A) (A) (A)
                 (A) (A) (A) (A) (A) (A) (A) (A) (A) (A) (A) (A)
                 (A) (A) (A) (A) (A) (A) (A) (A) (A) (A) (A) (A)
                 (A) (A) (A) (A) (A) (A) (A) (A) (A) (A) (A) (A)
                 (A) (A) (A) (A) (A) (A) (A) (A) (A) (A) (A) (A)
                 (A) (A) (A) (A) (A) (A) (A) (A) (A) (A) (A) (A)
                 (A) (A) (A) (A) (A) (A) (A) (A) (A) (A) (A) (A)
                 (A) (A) (A) (A) (A) (A) (A) (A) (A) (A) (A) (A)
                 (A) (A) (A) (A) (A) (A) (A) (A) (A) (A) (A) (A)
                 (A) (A) (A) (A) (A) (A) (A) (A) (A) (A) (A) (A)
                 (A) (A) (A) (A) (A) (A) (A) (A) (A) (A) (A) (A)
                 (A) (A) (A) (A) (A) (A) (A) (A) (A) (A) (A) (A)
                 (A) (A) (A) (A) (A) (A) (A) (A) (A) (A) (A) (A)
                 (A) (A) (A) (A) (A) (A) (A) (A) (A) (A) (A) (A)
                 (A) (A) (A) (A) (A) (A) (A) (A) (A) (A) (A) (A)
                 (A) (A) (A) (A) (A) (A) (A) (A) (A) (A) (A) (A)
                 (A) (A) (A) (A) (A) (A) (A) (A) (A) (A) (A) (A)
                 (A) (A) (A) (A) (A) (A) (A) (A) (A) (A) (A) (A)
                 (A) (A) (A) (A) (A) (A) (A) (A) (A) (A) (A) (A)
                 (A) (A) (A) (A) (A) (A) (A) (A) (A) (A) (A) (A)
                 (A) (A) (A) (A) (A) (A) (A) (A) (A) (A) (A) (A)
                 (A) (A) (A) (A) (A) (A) (A) (A) (A) (A) (A) (A)
                 (A) (A) (A) (A) (A) (A) (A) (A) (A) (A) (A) (A)
                 (A) (A) (A) (A) (A) (A) (A) (A) (A) (A) (A) (A)
                 (A) (A) (A) (A) (A) (A) (A) (A) (A) (A) (A) (A)
                 (A) (A) (A) (A) (A) (A) (A) (A) (A) (A) (A) (A)
                 (A) (A) (A) (A) (A) (A) (A) (A) (A) (A) (A) (A)
                 (A) (A) (A) (A) (A) (A) (A) (A) (A) (A) (A) (A)
                 (A) (A) (A) (A) (A) (A) (A) (A) (A) (A) (A) (A)
                 (A) (A) (A) (A) (A) (A) (A) (A) (A) (A) (A) (A)
                 (A) (A) (A) (A) (A) (A) (A) (A) (A) (A) (A) (A)
                 (A) (A) (A) (A) (A) (A) (A) (A) (A) (A) (A) (A)
                 (A) (A) (A) (A) (A) (A) (A) (A) (A) (A) (A) (A)
                 (A) (A) (A) (A) (A) (A) (A) (A) (A) (A) (A) (A)
                 (A) (A) (A) (A) (A) (A) (A) (A) (A) (A) (A) (A)
                 (A) (A) (A) (A) (A) (A) (A) (A) (A) (A) (A) (A)
                 (A) (A) (A) (A) (A) (A) (A) (A) (A) (A) (A) (A)
                 (A) (A) (A) (A) (A) (A) (A) (A) (A) (A) (A) (A)
                 (A) (A) (A) (A) (A) (A) (A) (A) (A) (A) (A) (A)
                 (A) (A) (A) (A) (A) (A) (A) (A) (A) (A) (A) (A)
                 (A) (A) (A) (A) (A) (A) (A) (A) (A) (A) (A) (A)
                 (A) (A) (A) (A) (A) (A) (A) (A) (A) (A) (A) (A)
                 (A) (A) (A) (A) (A) (A) (A) (A) (A) (A) (A) (A)
                 (A) (A) (A) (A) (A) (A) (A) (A) (A) (A) (A) (A)
                 (A) (A) (A) (A) (A) (A) (A) (A) (A) (A) (A) (A)
                 (A) (A) (A) (A) (A) (A) (A) (A) (A) (A) (A) (A)
                 (A) (A) (A) (A) (A) (A) (A) (A) (A) (A) (A) (A)
                 (A) (A) (A) (A) (A) (A) (A) (A) (A) (A) (A) (A)
                 (A) (A) (A) (A) (A) (A) (A) (A) (A) (A) (A) (A)
                 (A) (A) (A) (A) (A) (A) (A) (A) (A) (A) (A) (A)
                 (A) (A) (A) (A) (A) (A) (A) (A) (A) (A) (A) (A)
                 (A) (A) (A) (A) (A) (A) (A) (A) (A) (A) (A) (A)
                 (A) (A) (A) (A) (A) (A) (A) (A) (A) (A) (A) (A)
                 (A) (A) (A) (A) (A) (A) (A) (A) (A) (A) (A) (A)
                 (A) (A) (A) (A) (A) (A) (A) (A) (A) (A) (A) (A)
                 (A) (A) (A) (A) (A) (A) (A) (A) (A) (A) (A) (A)
                 (A) (A) (A) (A) (A) (A) (A) (A) (A) (A) (A) (A)
                 (A) (A) (A) (A) (A) (A) (A) (A) (A) (A) (A) (A)
                 (A) (A) (A) (A) (A) (A) (A) (A) (A) (A) (A) (A)
                 (A) (A) (A) (A) (A) (A) (A) (A) (A) (A) (A) (A)
                 (A) (A) (A) (A) (A) (A) (A) (A) (A) (A) (A) (A)
                 (A) (A) (A) (A) (A) (A) (A) (A) (A) (A) (A) (A)
                 (A) (A) (A) (A) (A) (A) (A) (A) (A) (A) (A) (A)
                 (A) (A) (A) (A) (A) (A) (A) (A) (A) (A) (A) (A)
                 (A) (A) (A) (A) (A) (A) (A) (A) (A) (A) (A) (A)
                 (A) (A) (A) (A) (A) (A) (A) (A) (A) (A) (A) (A)
                 (A) (A) (A) (A) (A) (A) (A) (A) (A) (A) (A) (A)
                 (A) (A) (A) (A) (A) (A) (A) (A) (A) (A) (A) (A)
                 (A) (A) (A) (A) (A) (A) (A) (A) (A) (A) (A) (A)
                 (A) (A) (A) (A) (A) (A) (A) (A) (A) (A) (A) (A)
                 (A) (A) (A) (A) (A) (A) (A) (A) (A) (A) (A) (A)
                 (A) (A) (A) (A) (A) (A) (A) (A) (A) (A) (A) (A)
                 (A) (A) (A) (A) (A) (A) (A) (A) (A) (A) (A) (A)
                 (A) (A) (A) (A) (A) (A) (A) (A) (A) (A) (A) (A)
                 (A) (A) (A) (A) (A) (A) (A) (A) (A) (A) (A) (A)
                 (A) (A) (A) (A) (A) (A) (A) (A) (A) (A) (A) (A)
                 (A) (A) (A) (A) (A) (A) (A) (A) (A) (A) (A) (A)
                 (A) (A) (A) (A) (A) (A) (A) (A) (A) (A) (A) (A)
                 (A) (A) (A) (A) (A) (A) (A) (A) (A) (A) (A) (A)
                 (A) (A) (A) (A) (A) (A) (A) (A) (A) (A) (A) (A)
                 (A) (A) (A) (A) (A) (A) (A) (A) (A) (A) (A) (A)
                 (A) (A) (A) (A) (A) (A) (A) (A) (A) (A) (A) (A)
                 (A) (A) (A) (A) (A) (A) (A) (A) (A) (A) (A) (A)
                 (A) (A) (A) (A) (A) (A) (A) (A) (A) (A) (A) (A)
                 (A) (A) (A) (A) (A) (A) (A) (A) (A) (A) (A) (A)
                 (A) (A) (A) (A) (A) (A) (A) (A) (A) (A) (A) (A)
                 (A)
   200 initial guesses have been made.
 Convergence on wavefunction:    0.001000000000000
 Davidson Disk Diagonalization:  ConvIn= 1.00D-03 SkipCon=T Conv= 1.00D-03.
 Max sub-space:   800 roots to seek:   200 dimension of matrix:       371518
 Iteration     1 Dimension   200 NMult     0 NNew    200
 CISAX will form    72 AO SS matrices at one time.
 NMat=    72 NSing=    72 JSym2X= 0.
 FoFJK:  IHMeth= 1 ICntrl=       0 DoSepK=F KAlg= 0 I1Cent=   0 FoldK=F
 IRaf=         0 NMat= 144 IRICut=       1 DoRegI=T DoRafI=F ISym2E= 0.
 NMat=    72 NSing=    72 JSym2X= 0.
 NMat=    56 NSing=    56 JSym2X= 0.
 New state      2 was old state      3
 New state      3 was old state      2
 New state      8 was old state     10
 New state      9 was old state      8
 New state     10 was old state     25
 New state     11 was old state      9
 New state     12 was old state     13
 New state     13 was old state     12
 New state     14 was old state     11
 New state     15 was old state     21
 New state     19 was old state     22
 New state     20 was old state     15
 New state     21 was old state     14
 New state     22 was old state     24
 New state     23 was old state     34
 New state     24 was old state     19
 New state     25 was old state     27
 New state     26 was old state     20
 New state     27 was old state     31
 New state     28 was old state     23
 New state     30 was old state     26
 New state     31 was old state     30
 New state     32 was old state     36
 New state     33 was old state     35
 New state     34 was old state     28
 New state     35 was old state     32
 New state     36 was old state     45
 New state     37 was old state     42
 New state     38 was old state     41
 New state     39 was old state     43
 New state     40 was old state     38
 New state     41 was old state     39
 New state     42 was old state     49
 New state     43 was old state     44
 New state     44 was old state     46
 New state     45 was old state     37
 New state     46 was old state     48
 New state     47 was old state     40
 New state     48 was old state     47
 New state     49 was old state     53
 New state     50 was old state     54
 Excitation Energies [eV] at current iteration:
 Root      1 :     3.007737538719832
 Root      2 :     3.205143332446470
 Root      3 :     3.319015087636846
 Root      4 :     3.473877547349232
 Root      5 :     3.694652256102402
 Root      6 :     3.752246436723417
 Root      7 :     4.468826813313643
 Root      8 :     4.483613333063513
 Root      9 :     4.495192721861362
 Root     10 :     4.512411234658491
 Root     11 :     4.517621620825076
 Root     12 :     4.532795810059577
 Root     13 :     4.541506736180083
 Root     14 :     4.564917237310937
 Root     15 :     4.602926426369916
 Root     16 :     4.652994324669494
 Root     17 :     4.682803101089638
 Root     18 :     4.708211771484995
 Root     19 :     4.725811604921920
 Root     20 :     4.747999961295417
 Root     21 :     4.758979269982583
 Root     22 :     4.770937532047750
 Root     23 :     4.799681533814955
 Root     24 :     4.815753306811520
 Root     25 :     4.825191006080510
 Root     26 :     4.841301459185358
 Root     27 :     4.853824939741518
 Root     28 :     4.866355039235907
 Root     29 :     4.892427001976738
 Root     30 :     4.930875548361943
 Root     31 :     4.943432209781978
 Root     32 :     4.959907639230591
 Root     33 :     4.969058058290169
 Root     34 :     4.994155981618632
 Root     35 :     5.023477853617114
 Root     36 :     5.034533796874486
 Root     37 :     5.050247636304941
 Root     38 :     5.069847919049848
 Root     39 :     5.095037576783509
 Root     40 :     5.129354716540017
 Root     41 :     5.131671609667743
 Root     42 :     5.161795113411847
 Root     43 :     5.175396649016247
 Root     44 :     5.211726977089412
 Root     45 :     5.229826978593893
 Root     46 :     5.237398122174967
 Root     47 :     5.258276606430820
 Root     48 :     5.295230095030162
 Root     49 :     5.316229872210634
 Root     50 :     5.335700048636367
 Root     51 :     5.341726926799886
 Root     52 :     5.378294693311082
 Root     53 :     5.390411397806944
 Root     54 :     5.428225792211397
 Root     55 :     5.450027675400549
 Root     56 :     5.474578053010911
 Root     57 :     5.515899664312450
 Root     58 :     5.550614885113465
 Root     59 :     5.572964096834643
 Root     60 :     5.611291549411177
 Root     61 :     5.653603708826876
 Root     62 :     5.670239817373381
 Root     63 :     5.704600075022814
 Root     64 :     5.734876439145935
 Root     65 :     5.781568808024119
 Root     66 :     5.799072584528323
 Root     67 :     5.802457663256648
 Root     68 :     5.811810078467851
 Root     69 :     5.837564245447565
 Root     70 :     5.843923707232400
 Root     71 :     5.863466181945434
 Root     72 :     5.864367236188219
 Root     73 :     5.871783340216972
 Root     74 :     5.917749597019807
 Root     75 :     5.942157283492534
 Root     76 :     6.001356128208686
 Root     77 :     6.030688297115486
 Root     78 :     6.034506724579115
 Root     79 :     6.062005212733793
 Root     80 :     6.083099756316875
 Root     81 :     6.095796094616490
 Root     82 :     6.160267283427990
 Root     83 :     6.171548574839568
 Root     84 :     6.181022460562448
 Root     85 :     6.191362766309978
 Root     86 :     6.208954007952306
 Root     87 :     6.219986263801561
 Root     88 :     6.230194989643574
 Root     89 :     6.234690231669205
 Root     90 :     6.244235975600334
 Root     91 :     6.254855387838208
 Root     92 :     6.261353816740315
 Root     93 :     6.264588648320243
 Root     94 :     6.282454233191912
 Root     95 :     6.284791846647867
 Root     96 :     6.295988672494391
 Root     97 :     6.300642697336094
 Root     98 :     6.314185068810284
 Root     99 :     6.317757853850607
 Root    100 :     6.323091752464483
 Root    101 :     6.330020981999784
 Root    102 :     6.335112506226557
 Root    103 :     6.343849453885952
 Root    104 :     6.350099040898806
 Root    105 :     6.365790283228077
 Root    106 :     6.369215915660525
 Root    107 :     6.381999602660735
 Root    108 :     6.388244827722862
 Root    109 :     6.393727077946973
 Root    110 :     6.402674524695292
 Root    111 :     6.416450519611888
 Root    112 :     6.433792654213714
 Root    113 :     6.438780038962904
 Root    114 :     6.442870432744905
 Root    115 :     6.456877386358943
 Root    116 :     6.461314634647660
 Root    117 :     6.469050022256372
 Root    118 :     6.475282182270520
 Root    119 :     6.483065123607833
 Root    120 :     6.486200074907267
 Root    121 :     6.490950412124259
 Root    122 :     6.498473731567584
 Root    123 :     6.506044426903059
 Root    124 :     6.510477413275135
 Root    125 :     6.512044062074701
 Root    126 :     6.519432810958857
 Root    127 :     6.526857597584258
 Root    128 :     6.533760593711604
 Root    129 :     6.544065512988567
 Root    130 :     6.545730736847559
 Root    131 :     6.569979474649106
 Root    132 :     6.584018376462283
 Root    133 :     6.588422642398428
 Root    134 :     6.591656482652166
 Root    135 :     6.596068820643984
 Root    136 :     6.611468987429880
 Root    137 :     6.620561957506140
 Root    138 :     6.630722055685887
 Root    139 :     6.637117519895068
 Root    140 :     6.652160937170063
 Root    141 :     6.656212170913086
 Root    142 :     6.665210123410590
 Root    143 :     6.665638748981185
 Root    144 :     6.672692320137371
 Root    145 :     6.678007371290436
 Root    146 :     6.689883005144812
 Root    147 :     6.696393198728612
 Root    148 :     6.711556340742589
 Root    149 :     6.720825717629171
 Root    150 :     6.730209698708454
 Root    151 :     6.732925224854756
 Root    152 :     6.740838656425695
 Root    153 :     6.743135603937208
 Root    154 :     6.748263386722382
 Root    155 :     6.751819250026771
 Root    156 :     6.777485255591332
 Root    157 :     6.788138721785747
 Root    158 :     6.794405758061973
 Root    159 :     6.798026983882954
 Root    160 :     6.805077675832083
 Root    161 :     6.816630924976620
 Root    162 :     6.819681382741738
 Root    163 :     6.828752079816781
 Root    164 :     6.831374470799584
 Root    165 :     6.832089118059003
 Root    166 :     6.843569282275188
 Root    167 :     6.856479625636353
 Root    168 :     6.863665171155267
 Root    169 :     6.882222145819825
 Root    170 :     6.883139819180227
 Root    171 :     6.884823158452726
 Root    172 :     6.890591325816338
 Root    173 :     6.903828174571204
 Root    174 :     6.917515000923035
 Root    175 :     6.922732425830485
 Root    176 :     6.926064472376996
 Root    177 :     6.933676052481083
 Root    178 :     6.938297344256259
 Root    179 :     6.961941183564904
 Root    180 :     6.967413794385576
 Root    181 :     6.975848592174064
 Root    182 :     6.987376138331252
 Root    183 :     6.997598410851593
 Root    184 :     7.015364154242410
 Root    185 :     7.038879753342505
 Root    186 :     7.044721340012865
 Root    187 :     7.079512195262989
 Root    188 :     7.087279423836875
 Root    189 :     7.364984439515772
 Root    190 :     7.404470635078871
 Root    191 :     7.419145461758269
 Root    192 :     7.515186289840279
 Root    193 :     7.558955732526232
 Root    194 :     7.601246173186397
 Root    195 :     7.623597531551513
 Root    196 :     7.641793942420483
 Root    197 :     7.794709270922387
 Root    198 :     8.215863455735004
 Root    199 :     8.235835665812578
 Root    200 :     8.301846119376636
 Iteration     2 Dimension   300 NMult   200 NNew    100
 CISAX will form   100 AO SS matrices at one time.
 NMat=   100 NSing=   100 JSym2X= 0.
 Root      1 not converged, maximum delta is    0.134472468268072
 Root      2 not converged, maximum delta is    0.256191519071031
 Root      3 not converged, maximum delta is    0.256775406689857
 Root      4 not converged, maximum delta is    0.182297471447004
 Root      5 not converged, maximum delta is    0.181116718310343
 Root      6 not converged, maximum delta is    0.206991816441512
 New state      7 was old state      8
 Root      7 not converged, maximum delta is    0.244133777313155
 New state      8 was old state      7
 Root      8 not converged, maximum delta is    0.257745543704312
 New state      9 was old state     13
 Root      9 not converged, maximum delta is    0.242541277787138
 New state     10 was old state     11
 Root     10 not converged, maximum delta is    0.338617542191912
 New state     11 was old state     10
 Root     11 not converged, maximum delta is    0.298707577628808
 New state     12 was old state      9
 Root     12 not converged, maximum delta is    0.255759771601597
 New state     13 was old state     12
 Root     13 not converged, maximum delta is    0.406428301288366
 Root     14 not converged, maximum delta is    0.271932450846487
 Root     15 not converged, maximum delta is    0.205568334523194
 Root     16 not converged, maximum delta is    0.288214795574358
 Root     17 not converged, maximum delta is    0.474026109634587
 Root     18 not converged, maximum delta is    0.416509104633328
 New state     19 was old state     21
 Root     19 not converged, maximum delta is    0.378905095810220
 New state     20 was old state     19
 Root     20 not converged, maximum delta is    0.356391768551521
 New state     21 was old state     20
 Root     21 not converged, maximum delta is    0.350546816710400
 New state     22 was old state     25
 Root     22 not converged, maximum delta is    0.411819870524970
 New state     23 was old state     22
 Root     23 not converged, maximum delta is    0.407286316204130
 New state     24 was old state     23
 Root     24 not converged, maximum delta is    0.298718849082442
 New state     25 was old state     24
 Root     25 not converged, maximum delta is    0.184872862046807
 New state     26 was old state     27
 Root     26 not converged, maximum delta is    0.307017419854553
 New state     27 was old state     29
 Root     27 not converged, maximum delta is    0.186203406267385
 New state     28 was old state     26
 Root     28 not converged, maximum delta is    0.340916981734006
 New state     29 was old state     28
 Root     29 not converged, maximum delta is    0.288972376733193
 Root     30 not converged, maximum delta is    0.339449003282648
 Root     31 not converged, maximum delta is    0.488236935563771
 New state     32 was old state     37
 Root     32 not converged, maximum delta is    0.365328654285275
 Root     33 not converged, maximum delta is    0.349987858764432
 New state     34 was old state     32
 Root     34 not converged, maximum delta is    0.342636074329499
 Root     35 not converged, maximum delta is    0.304982393189205
 New state     36 was old state     34
 Root     36 not converged, maximum delta is    0.224842872083667
 New state     37 was old state     36
 Root     37 not converged, maximum delta is    0.282739067652334
 New state     38 was old state     39
 Root     38 not converged, maximum delta is    0.296105147233760
 New state     39 was old state     38
 Root     39 not converged, maximum delta is    0.220440710759955
 New state     40 was old state     41
 Root     40 not converged, maximum delta is    0.232542185455704
 New state     41 was old state     40
 Root     41 not converged, maximum delta is    0.190803049290591
 Root     42 not converged, maximum delta is    0.443366279900368
 Root     43 not converged, maximum delta is    0.220914700711143
 New state     44 was old state     46
 Root     44 not converged, maximum delta is    0.382947141462249
 New state     45 was old state     44
 Root     45 not converged, maximum delta is    0.173567265606469
 New state     46 was old state     45
 Root     46 not converged, maximum delta is    0.150208436274483
 Root     47 not converged, maximum delta is    0.176256251407841
 Root     48 not converged, maximum delta is    0.362237837312795
 New state     49 was old state     51
 Root     49 not converged, maximum delta is    0.397308335465531
 New state     50 was old state     49
 Root     50 not converged, maximum delta is    0.130626256817968
 Excitation Energies [eV] at current iteration:
 Root      1 :     2.939941877388375   Change is   -0.067795661331458
 Root      2 :     3.085896714030460   Change is   -0.119246618416010
 Root      3 :     3.170822722684502   Change is   -0.148192364952344
 Root      4 :     3.323750452829731   Change is   -0.150127094519501
 Root      5 :     3.581725386305349   Change is   -0.112926869797053
 Root      6 :     3.648924232437771   Change is   -0.103322204285645
 Root      7 :     4.290703228059130   Change is   -0.192910105004383
 Root      8 :     4.344168373219834   Change is   -0.124658440093808
 Root      9 :     4.356196556043252   Change is   -0.185310180136831
 Root     10 :     4.384110230992214   Change is   -0.133511389832861
 Root     11 :     4.420985600219434   Change is   -0.091425634439057
 Root     12 :     4.432186598437284   Change is   -0.063006123424078
 Root     13 :     4.476872554991542   Change is   -0.055923255068035
 Root     14 :     4.503496065653118   Change is   -0.061421171657819
 Root     15 :     4.559050104892592   Change is   -0.043876321477324
 Root     16 :     4.617513615211742   Change is   -0.035480709457753
 Root     17 :     4.625441512848007   Change is   -0.057361588241631
 Root     18 :     4.643911796157302   Change is   -0.064299975327694
 Root     19 :     4.664205355941334   Change is   -0.094773914041249
 Root     20 :     4.691944979944112   Change is   -0.033866624977808
 Root     21 :     4.723578852312638   Change is   -0.024421108982779
 Root     22 :     4.738644062665688   Change is   -0.086546943414822
 Root     23 :     4.739718413358010   Change is   -0.031219118689740
 Root     24 :     4.745986145857281   Change is   -0.053695387957674
 Root     25 :     4.781659173511720   Change is   -0.034094133299801
 Root     26 :     4.813217286022996   Change is   -0.040607653718522
 Root     27 :     4.814954126749130   Change is   -0.077472875227607
 Root     28 :     4.828226909511758   Change is   -0.013074549673600
 Root     29 :     4.839647622792440   Change is   -0.026707416443467
 Root     30 :     4.862407183026395   Change is   -0.068468365335548
 Root     31 :     4.879589725961391   Change is   -0.063842483820587
 Root     32 :     4.913271484282260   Change is   -0.136976152022681
 Root     33 :     4.931034757565341   Change is   -0.038023300724827
 Root     34 :     4.937416256028892   Change is   -0.022491383201698
 Root     35 :     4.960692632024439   Change is   -0.062785221592675
 Root     36 :     4.976588937908402   Change is   -0.017567043710230
 Root     37 :     5.002195169547107   Change is   -0.032338627327379
 Root     38 :     5.019313619825413   Change is   -0.075723956958097
 Root     39 :     5.041250493996229   Change is   -0.028597425053619
 Root     40 :     5.061177531192496   Change is   -0.070494078475247
 Root     41 :     5.078179420895689   Change is   -0.051175295644328
 Root     42 :     5.082690055569539   Change is   -0.079105057842308
 Root     43 :     5.126189726217141   Change is   -0.049206922799106
 Root     44 :     5.144462181795817   Change is   -0.092935940379149
 Root     45 :     5.167184468838855   Change is   -0.044542508250557
 Root     46 :     5.201506405682157   Change is   -0.028320572911737
 Root     47 :     5.211556837585261   Change is   -0.046719768845559
 Root     48 :     5.242364392952617   Change is   -0.052865702077544
 Root     49 :     5.285671017121448   Change is   -0.056055909678438
 Root     50 :     5.288690404988114   Change is   -0.027539467222520
 Iteration     3 Dimension   400 NMult   300 NNew    100
 CISAX will form   100 AO SS matrices at one time.
 NMat=   100 NSing=   100 JSym2X= 0.
 Root      1 not converged, maximum delta is    0.009168629351777
 Root      2 not converged, maximum delta is    0.017672767045313
 Root      3 not converged, maximum delta is    0.015713295256582
 Root      4 not converged, maximum delta is    0.006404840657881
 Root      5 not converged, maximum delta is    0.016638888614368
 Root      6 not converged, maximum delta is    0.016336716287263
 Root      7 not converged, maximum delta is    0.012184815332698
 Root      8 not converged, maximum delta is    0.031666915871435
 Root      9 not converged, maximum delta is    0.029852690531330
 Root     10 not converged, maximum delta is    0.019137315217033
 Root     11 not converged, maximum delta is    0.013142365593171
 Root     12 not converged, maximum delta is    0.009672514856745
 Root     13 not converged, maximum delta is    0.006127613245293
 Root     14 not converged, maximum delta is    0.006134403922501
 Root     15 not converged, maximum delta is    0.004884746378827
 Root     16 not converged, maximum delta is    0.040548029384261
 Root     17 not converged, maximum delta is    0.039159196899200
 Root     18 not converged, maximum delta is    0.031643486723321
 Root     19 not converged, maximum delta is    0.015288395371326
 Root     20 not converged, maximum delta is    0.012364762803441
 Root     21 not converged, maximum delta is    0.016507930498056
 Root     22 not converged, maximum delta is    0.270175445173573
 Root     23 not converged, maximum delta is    0.331778551630422
 Root     24 not converged, maximum delta is    0.025141613814765
 Root     25 not converged, maximum delta is    0.014649380719962
 New state     26 was old state     27
 Root     26 not converged, maximum delta is    0.404757328729178
 New state     27 was old state     26
 Root     27 not converged, maximum delta is    0.154783089904769
 Root     28 not converged, maximum delta is    0.033230769027475
 Root     29 not converged, maximum delta is    0.029366672151380
 Root     30 not converged, maximum delta is    0.022452658974817
 Root     31 not converged, maximum delta is    0.015749900955831
 Root     32 not converged, maximum delta is    0.030527093853759
 Root     33 not converged, maximum delta is    0.032783196841767
 Root     34 not converged, maximum delta is    0.017137760726561
 Root     35 not converged, maximum delta is    0.042392430507539
 Root     36 not converged, maximum delta is    0.015360571621607
 Root     37 not converged, maximum delta is    0.035433733644122
 Root     38 not converged, maximum delta is    0.047303482257976
 Root     39 not converged, maximum delta is    0.052497269691547
 Root     40 not converged, maximum delta is    0.053578976731201
 Root     41 not converged, maximum delta is    0.123733648305235
 Root     42 not converged, maximum delta is    0.125533542807012
 Root     43 not converged, maximum delta is    0.034686622158551
 Root     44 not converged, maximum delta is    0.061058675554946
 Root     45 not converged, maximum delta is    0.052795416332926
 Root     46 not converged, maximum delta is    0.181055088503526
 Root     47 not converged, maximum delta is    0.102198519654675
 Root     48 not converged, maximum delta is    0.222833334295567
 Root     49 not converged, maximum delta is    0.368999416670283
 Root     50 not converged, maximum delta is    0.385684253091958
 Excitation Energies [eV] at current iteration:
 Root      1 :     2.934503365114733   Change is   -0.005438512273641
 Root      2 :     3.078727503398195   Change is   -0.007169210632265
 Root      3 :     3.164746618459231   Change is   -0.006076104225272
 Root      4 :     3.317386797933348   Change is   -0.006363654896383
 Root      5 :     3.575403694489887   Change is   -0.006321691815461
 Root      6 :     3.644485808107328   Change is   -0.004438424330443
 Root      7 :     4.277440682910182   Change is   -0.013262545148947
 Root      8 :     4.334219265809733   Change is   -0.009949107410101
 Root      9 :     4.344987972954423   Change is   -0.011208583088829
 Root     10 :     4.374639742713915   Change is   -0.009470488278300
 Root     11 :     4.415311150912233   Change is   -0.005674449307202
 Root     12 :     4.426527587007397   Change is   -0.005659011429887
 Root     13 :     4.473850932170611   Change is   -0.003021622820931
 Root     14 :     4.500242623251715   Change is   -0.003253442401402
 Root     15 :     4.557133369664457   Change is   -0.001916735228136
 Root     16 :     4.613864918583920   Change is   -0.003648696627822
[...]
 Alpha virt. eigenvalues --    2.77334   2.77442   2.77568   2.77690   2.77823
 Alpha virt. eigenvalues --    2.78021   2.78085   2.78217   2.78823   2.79149
 Alpha virt. eigenvalues --    2.79354   2.79848   2.80128   2.80712   2.80833
 Alpha virt. eigenvalues --    2.80882   2.81542   2.81743   2.81972   2.82202
 Alpha virt. eigenvalues --    2.82430   2.82707   2.82852   2.83011   2.83247
 Alpha virt. eigenvalues --    2.83605   2.83811   2.84173   2.84565   2.84745
 Alpha virt. eigenvalues --    2.85042   2.85176   2.85546   2.85749   2.85864
 Alpha virt. eigenvalues --    2.86045   2.86161   2.86718   2.86780   2.87008
 Alpha virt. eigenvalues --    2.87115   2.87586   2.87798   2.87914   2.88565
 Alpha virt. eigenvalues --    2.88856   2.89027   2.89302   2.89820   2.89955
 Alpha virt. eigenvalues --    2.90451   2.90603   2.90885   2.91063   2.91371
 Alpha virt. eigenvalues --    2.91530   2.92330   2.92591   2.92871   2.93296
 Alpha virt. eigenvalues --    2.93913   2.94321   2.94410   2.94965   2.95199
 Alpha virt. eigenvalues --    2.95551   2.96290   2.96671   2.97346   2.97529
 Alpha virt. eigenvalues --    2.98061   2.98757   2.98895   2.99655   2.99734
 Alpha virt. eigenvalues --    2.99931   3.00577   3.01291   3.01786   3.01913
 Alpha virt. eigenvalues --    3.02969   3.03255   3.03688   3.03876   3.04008
 Alpha virt. eigenvalues --    3.04193   3.04432   3.04837   3.05459   3.05489
 Alpha virt. eigenvalues --    3.05922   3.06233   3.06672   3.06746   3.07048
 Alpha virt. eigenvalues --    3.07402   3.07666   3.07715   3.08057   3.08197
 Alpha virt. eigenvalues --    3.08297   3.08772   3.09100   3.09450   3.09619
 Alpha virt. eigenvalues --    3.09848   3.10174   3.10533   3.10831   3.10848
 Alpha virt. eigenvalues --    3.10991   3.11142   3.11454   3.11809   3.12166
 Alpha virt. eigenvalues --    3.12424   3.12781   3.12828   3.12976   3.13065
 Alpha virt. eigenvalues --    3.13372   3.13465   3.13987   3.14163   3.14796
 Alpha virt. eigenvalues --    3.15088   3.15428   3.15560   3.15940   3.16011
 Alpha virt. eigenvalues --    3.16186   3.16862   3.16975   3.17191   3.17631
 Alpha virt. eigenvalues --    3.17676   3.18127   3.18358   3.18672   3.19362
 Alpha virt. eigenvalues --    3.19749   3.19982   3.20370   3.20558   3.21075
 Alpha virt. eigenvalues --    3.21251   3.21777   3.22014   3.22202   3.22466
 Alpha virt. eigenvalues --    3.22951   3.23052   3.23206   3.23640   3.23949
 Alpha virt. eigenvalues --    3.24288   3.24537   3.24865   3.25129   3.25711
 Alpha virt. eigenvalues --    3.25777   3.26082   3.26279   3.26351   3.26775
 Alpha virt. eigenvalues --    3.26966   3.27254   3.27814   3.28108   3.28339
 Alpha virt. eigenvalues --    3.28665   3.29143   3.29305   3.29609   3.29872
 Alpha virt. eigenvalues --    3.30170   3.30608   3.30996   3.31357   3.31428
 Alpha virt. eigenvalues --    3.31922   3.32149   3.32306   3.32667   3.32834
 Alpha virt. eigenvalues --    3.33137   3.33348   3.33677   3.33994   3.34278
 Alpha virt. eigenvalues --    3.34836   3.35145   3.35341   3.35570   3.35781
 Alpha virt. eigenvalues --    3.36159   3.36283   3.36501   3.36711   3.36847
 Alpha virt. eigenvalues --    3.37221   3.37417   3.37817   3.37923   3.38190
 Alpha virt. eigenvalues --    3.38435   3.38970   3.39220   3.39285   3.39528
 Alpha virt. eigenvalues --    3.39666   3.39838   3.40074   3.40136   3.40516
 Alpha virt. eigenvalues --    3.40799   3.41298   3.41470   3.41692   3.41879
 Alpha virt. eigenvalues --    3.42254   3.42453   3.42731   3.43230   3.43299
 Alpha virt. eigenvalues --    3.43871   3.44128   3.44278   3.44549   3.44746
 Alpha virt. eigenvalues --    3.44817   3.45111   3.45461   3.45556   3.45721
 Alpha virt. eigenvalues --    3.45786   3.46123   3.46175   3.46535   3.46802
 Alpha virt. eigenvalues --    3.46927   3.47154   3.47391   3.47636   3.47854
 Alpha virt. eigenvalues --    3.48065   3.48195   3.48626   3.48813   3.49092
 Alpha virt. eigenvalues --    3.49446   3.49715   3.50363   3.50615   3.50860
 Alpha virt. eigenvalues --    3.51196   3.51523   3.51618   3.52036   3.52233
 Alpha virt. eigenvalues --    3.52629   3.52886   3.53097   3.53626   3.54417
 Alpha virt. eigenvalues --    3.54838   3.55111   3.55138   3.55676   3.55890
 Alpha virt. eigenvalues --    3.56580   3.56757   3.57279   3.57503   3.58211
 Alpha virt. eigenvalues --    3.59211   3.59673   3.60288   3.61061   3.61463
 Alpha virt. eigenvalues --    3.62303   3.62637   3.62771   3.63639   3.64112
 Alpha virt. eigenvalues --    3.64495   3.64894   3.65182   3.66010   3.66406
 Alpha virt. eigenvalues --    3.66751   3.67139   3.67328   3.67752   3.68269
 Alpha virt. eigenvalues --    3.68384   3.68855   3.69042   3.69709   3.69936
 Alpha virt. eigenvalues --    3.70280   3.70898   3.71381   3.71768   3.72125
 Alpha virt. eigenvalues --    3.72706   3.73088   3.73552   3.73808   3.74114
 Alpha virt. eigenvalues --    3.74506   3.75254   3.75717   3.77085   3.77333
 Alpha virt. eigenvalues --    3.77953   3.78526   3.78764   3.78855   3.79232
 Alpha virt. eigenvalues --    3.80082   3.80233   3.80399   3.80738   3.81516
 Alpha virt. eigenvalues --    3.82356   3.83389   3.85630   3.86298   3.86735
 Alpha virt. eigenvalues --    3.87560   3.87820   3.88603   3.89052   3.89268
 Alpha virt. eigenvalues --    3.90180   3.90937   3.91653   3.92417   3.94001
 Alpha virt. eigenvalues --    3.94223   3.94930   3.95477   3.95740   3.96091
 Alpha virt. eigenvalues --    3.96392   3.96690   3.97168   3.97336   3.97595
 Alpha virt. eigenvalues --    3.97900   3.98588   3.98782   3.98907   3.99319
 Alpha virt. eigenvalues --    3.99485   4.00147   4.00214   4.00721   4.01122
 Alpha virt. eigenvalues --    4.01276   4.01843   4.02410   4.02964   4.03566
 Alpha virt. eigenvalues --    4.04023   4.04367   4.04725   4.05020   4.05557
 Alpha virt. eigenvalues --    4.06139   4.06449   4.07151   4.07375   4.07975
 Alpha virt. eigenvalues --    4.08836   4.08999   4.09738   4.09933   4.10741
 Alpha virt. eigenvalues --    4.10919   4.11665   4.12192   4.13243   4.13607
 Alpha virt. eigenvalues --    4.14434   4.14645   4.15063   4.15520   4.15969
 Alpha virt. eigenvalues --    4.16455   4.16506   4.16728   4.17313   4.17510
 Alpha virt. eigenvalues --    4.17694   4.17846   4.18087   4.18460   4.19057
 Alpha virt. eigenvalues --    4.19453   4.20123   4.20244   4.20651   4.21105
 Alpha virt. eigenvalues --    4.21248   4.21335   4.21715   4.21872   4.22550
 Alpha virt. eigenvalues --    4.22843   4.23259   4.23529   4.23980   4.24755
 Alpha virt. eigenvalues --    4.24988   4.25313   4.25566   4.26165   4.26565
 Alpha virt. eigenvalues --    4.27187   4.27529   4.27638   4.27966   4.28388
 Alpha virt. eigenvalues --    4.28489   4.28774   4.29094   4.29503   4.30252
 Alpha virt. eigenvalues --    4.30789   4.31149   4.31308   4.31689   4.32084
 Alpha virt. eigenvalues --    4.32393   4.32509   4.33346   4.33941   4.34961
 Alpha virt. eigenvalues --    4.36084   4.36772   4.37574   4.38491   4.40112
 Alpha virt. eigenvalues --    4.41383   4.41866   4.42810   4.44452   4.46194
 Alpha virt. eigenvalues --    4.46949   4.48147   4.49732   4.50388   4.51752
 Alpha virt. eigenvalues --    4.52309   4.53657   4.54702   4.55457   4.56841
 Alpha virt. eigenvalues --    4.57759   4.57796   4.58410   4.58952   4.60626
 Alpha virt. eigenvalues --    4.60681   4.61020   4.61347   4.61684   4.62844
 Alpha virt. eigenvalues --    4.63126   4.64627   4.65206   4.65520   4.65860
 Alpha virt. eigenvalues --    4.66097   4.67357   4.67846   4.68424   4.69064
 Alpha virt. eigenvalues --    4.69286   4.69423   4.69810   4.70257   4.70374
 Alpha virt. eigenvalues --    4.70667   4.71560   4.71874   4.72133   4.72369
 Alpha virt. eigenvalues --    4.72635   4.73253   4.73442   4.73616   4.75233
 Alpha virt. eigenvalues --    4.76084   4.77587   4.77792   4.78340   4.78623
 Alpha virt. eigenvalues --    4.81219   4.81320   4.82128   4.83957   4.84793
 Alpha virt. eigenvalues --    4.85507   4.87745   4.88310   4.90279   4.90705
 Alpha virt. eigenvalues --    4.91237   4.92011   4.92587   4.93199   4.94065
 Alpha virt. eigenvalues --    4.94469   4.95325   4.96214   4.98677   5.00102
 Alpha virt. eigenvalues --    5.00332   5.00822   5.01877   5.02023   5.03130
 Alpha virt. eigenvalues --    5.03290   5.03556   5.03777   5.04279   5.06219
 Alpha virt. eigenvalues --    5.07289   5.07570   5.12793   5.14102   5.14585
 Alpha virt. eigenvalues --    5.15647   5.16162   5.16500   5.17150   5.17495
 Alpha virt. eigenvalues --    5.18730   5.19863   5.21067   5.21808   5.22354
 Alpha virt. eigenvalues --    5.22582   5.23525   5.24657   5.25629   5.26640
 Alpha virt. eigenvalues --    5.27119   5.27482   5.28222   5.28983   5.30565
 Alpha virt. eigenvalues --    5.31764   5.33611   5.34147   5.35348   5.36197
 Alpha virt. eigenvalues --    5.38002   5.38453   5.39352   5.39792   5.41430
 Alpha virt. eigenvalues --    5.43742   5.44979   5.47692   5.49075   5.50379
 Alpha virt. eigenvalues --    5.50711   5.51110   5.51900   5.53421   5.54780
 Alpha virt. eigenvalues --    5.55509   5.56923   5.57656   5.60850   5.61845
 Alpha virt. eigenvalues --    5.63378   5.63886   5.68946   5.70053   5.71358
 Alpha virt. eigenvalues --    5.73255   5.73977   5.75535   5.76885   5.78073
 Alpha virt. eigenvalues --    5.79704   5.83246   5.88071   5.90935   5.93192
 Alpha virt. eigenvalues --    5.94557   5.95125   5.98771   5.99976   6.00869
 Alpha virt. eigenvalues --    6.01322   6.03117   6.06742   6.08277   6.12863
 Alpha virt. eigenvalues --    6.17157   6.19559   6.38870   6.40176   6.89621
 Alpha virt. eigenvalues --    6.92640   7.01939   7.14883   7.29441   7.51426
 Alpha virt. eigenvalues --    7.68857   8.50786   8.69975   8.87727   9.13984
 Alpha virt. eigenvalues --    9.19688  22.17455  22.17921  22.19050  22.23933
 Alpha virt. eigenvalues --   22.26680  22.27683  22.60132  22.60740  22.61135
 Alpha virt. eigenvalues --   22.61473  22.61547  22.61726  22.62177  22.62682
 Alpha virt. eigenvalues --   22.62840  22.62921  22.63324  22.63561  22.67912
 Alpha virt. eigenvalues --   22.79729  22.80053  22.80607  22.80842  22.82207
 Alpha virt. eigenvalues --   22.82799  22.84654  22.85237  22.85903  22.87158
 Alpha virt. eigenvalues --   22.87786  22.88189  23.07597  23.14296  23.19036
 Alpha virt. eigenvalues --   23.20482  23.21841  23.23701  23.25277  23.27326
 Alpha virt. eigenvalues --   23.29112  23.33439  23.57518  23.81502  23.91584
 Alpha virt. eigenvalues --   32.28429  32.30307  33.30001  33.30629  33.34750
 Alpha virt. eigenvalues --   57.57859
          Condensed to atoms (all electrons):
 Mulliken charges:
               1
     1  C   -0.230155
     2  C    0.635273
     3  C   -0.367078
     4  C    0.315433
     5  C   -0.454598
     6  C    0.321513
     7  C   -0.023859
     8  C   -0.148906
     9  F   -0.250996
    10  N   -0.178719
    11  N   -0.154590
    12  N    0.243432
    13  C    0.192325
    14  C    0.064693
    15  C   -0.303504
    16  C   -0.291664
    17  C   -0.235403
    18  C   -0.310272
    19  C   -0.135762
    20  H    0.180050
    21  C   -0.061642
    22  H    0.177466
    23  C   -0.113458
    24  H    0.185652
    25  C   -0.039369
    26  H    0.169467
    27  C   -0.140970
    28  H    0.133490
    29  H    0.132421
    30  C   -0.149445
    31  H    0.131774
    32  H    0.133362
    33  H    0.128945
    34  H    0.129973
    35  N    0.128885
    36  C   -0.012816
    37  C    0.163996
    38  C   -0.212824
    39  C   -0.221537
    40  C   -0.273764
    41  C   -0.247256
    42  C   -0.114841
    43  H    0.179805
    44  C   -0.086052
    45  H    0.166161
    46  C   -0.134760
    47  H    0.178419
    48  C   -0.090666
    49  H    0.168670
    50  C   -0.118103
    51  H    0.132515
    52  H    0.133592
    53  C   -0.116914
    54  H    0.137960
    55  H    0.133060
    56  H    0.131289
    57  H    0.130932
    58  N    0.111279
    59  C    0.012728
    60  C    0.131816
    61  C   -0.212488
    62  C   -0.219478
    63  C   -0.256492
    64  C   -0.251439
    65  C   -0.137210
    66  H    0.178963
    67  C   -0.090205
    68  H    0.168585
    69  C   -0.122180
    70  H    0.190034
    71  C   -0.086785
    72  H    0.168327
    73  C   -0.107075
    74  H    0.135129
    75  H    0.133498
    76  C   -0.119843
    77  H    0.136154
    78  H    0.133334
    79  H    0.131659
    80  H    0.131055
 Sum of Mulliken charges =  -0.00000
 Mulliken charges with hydrogens summed into heavy atoms:
               1
     1  C   -0.230155
     2  C    0.635273
     3  C   -0.367078
     4  C    0.315433
     5  C   -0.454598
     6  C    0.321513
     7  C   -0.023859
     8  C   -0.148906
     9  F   -0.250996
    10  N   -0.178719
    11  N   -0.154590
    12  N    0.243432
    13  C    0.192325
    14  C    0.064693
    15  C   -0.123454
    16  C   -0.114198
    17  C   -0.049751
    18  C   -0.140805
    19  C   -0.002272
    21  C    0.070779
    23  C    0.018316
    25  C    0.093994
    27  C   -0.012025
    30  C   -0.019472
    35  N    0.128885
    36  C   -0.012816
    37  C    0.163996
    38  C   -0.033019
    39  C   -0.055375
    40  C   -0.095346
    41  C   -0.078586
    42  C    0.017673
    44  C    0.047540
    46  C    0.003201
    48  C    0.042395
    50  C    0.013186
    53  C    0.014018
    58  N    0.111279
    59  C    0.012728
    60  C    0.131816
    61  C   -0.033525
    62  C   -0.050893
    63  C   -0.066458
    64  C   -0.083112
    65  C   -0.002081
    67  C    0.043292
    69  C    0.013975
    71  C    0.046550
    73  C    0.024584
    76  C    0.011212
 Electronic spatial extent (au):  <R**2>=          25868.8369
 Charge=             -0.0000 electrons
 Dipole moment (field-independent basis, Debye):
    X=             -4.9092    Y=              2.7754    Z=             -1.6957  Tot=              5.8889
 Quadrupole moment (field-independent basis, Debye-Ang):
   XX=           -270.4722   YY=           -290.7460   ZZ=           -257.6731
   XY=             -6.4932   XZ=            -16.1414   YZ=             -3.2355
 Traceless Quadrupole moment (field-independent basis, Debye-Ang):
   XX=              2.4916   YY=            -17.7823   ZZ=             15.2907
   XY=             -6.4932   XZ=            -16.1414   YZ=             -3.2355
 Octapole moment (field-independent basis, Debye-Ang**2):
  XXX=            -99.9736  YYY=            152.3868  ZZZ=             -4.1624  XYY=            -56.0237
  XXY=            -23.1998  XXZ=            -13.3205  XZZ=             -7.3162  YZZ=            -37.8619
  YYZ=            -34.0100  XYZ=            -78.4577
 Hexadecapole moment (field-independent basis, Debye-Ang**3):
 XXXX=         -14632.2533 YYYY=         -13919.6450 ZZZZ=          -5258.9293 XXXY=           -200.1773
 XXXZ=           -354.0025 YYYX=             43.3016 YYYZ=             29.5873 ZZZX=           -187.7615
 ZZZY=            -42.0517 XXYY=          -4748.1954 XXZZ=          -3426.6220 YYZZ=          -3154.3315
 XXYZ=           -110.4022 YYXZ=             84.5314 ZZXY=            -71.2500
 N-N= 6.290306984299D+03 E-N=-1.738958282330D+04  KE= 2.057965716260D+03
 Leave Link  601 at Sat Jul  2 18:13:59 2022, MaxMem=  5242880000 cpu:        15.4
 (Enter /opt/nce/packages/global/g09/l9999.exe)
 1\1\GINC-CN032\SP\RM06 TD-FC\def2TZVP\C44H30F1N5\PNG4RJV\02-Jul-2022\0
 \\#p m06/def2TZVP td=(NStates=50) int=ultrafine scrf=(SMD,solvent=Acet
 onitrile)\\Title\\0,1\C,0,-0.171683,1.38023,-0.00082\C,0,-1.239876,0.5
 43392,-0.306002\C,0,-1.162402,-0.843642,-0.266672\C,0,0.089349,-1.4239
 46,0.028395\C,0,1.19578,-0.620627,0.313644\C,0,1.050356,0.768203,0.343
 619\C,0,0.255875,-2.832699,0.024985\C,0,2.138573,1.547321,0.814721\F,0
 ,-2.37335,1.095274,-0.718997\N,0,0.411612,-3.974169,0.026202\N,0,3.024
 653,2.157731,1.226642\N,0,2.443939,-1.199215,0.596704\C,0,3.536429,-0.
 87496,-0.239933\C,0,2.594486,-1.986552,1.764206\C,0,3.326299,-0.681206
 ,-1.602628\C,0,4.815284,-0.705885,0.283718\C,0,1.935592,-1.625799,2.93
 4033\C,0,3.37869,-3.136165,1.745\C,0,4.377772,-0.308512,-2.422444\H,0,
 2.335504,-0.825811,-2.022259\C,0,5.861913,-0.351563,-0.547053\H,0,4.98
 2743,-0.833498,1.347148\C,0,2.053784,-2.412542,4.068035\H,0,1.331801,-
 0.724436,2.956583\C,0,3.505267,-3.904923,2.886336\H,0,3.876466,-3.4300
 81,0.827527\C,0,5.651006,-0.144649,-1.9023\H,0,4.197804,-0.158052,-3.4
 81004\H,0,6.851404,-0.217864,-0.124507\C,0,2.841329,-3.551007,4.052501
 \H,0,1.533704,-2.121741,4.973682\H,0,4.116214,-4.80013,2.85934\H,0,6.4
 73661,0.141709,-2.546775\H,0,2.937286,-4.161933,4.94236\N,0,-2.281723,
 -1.606773,-0.576829\C,0,-2.193216,-2.633076,-1.552927\C,0,-3.510494,-1
 .320694,0.069905\C,0,-1.456558,-2.423477,-2.712392\C,0,-2.820841,-3.85
 63,-1.345601\C,0,-3.51787,-0.976649,1.417163\C,0,-4.708917,-1.366367,-
 0.634405\C,0,-1.328974,-3.44002,-3.643759\H,0,-0.979193,-1.463493,-2.8
 80783\C,0,-2.703155,-4.859139,-2.289389\H,0,-3.385258,-4.022836,-0.435
 044\C,0,-4.71159,-0.670261,2.047618\H,0,-2.585759,-0.954817,1.972457\C
 ,0,-5.898036,-1.076671,0.008768\H,0,-4.705126,-1.621415,-1.687981\C,0,
 -1.951588,-4.659971,-3.438559\H,0,-0.747597,-3.26923,-4.542587\H,0,-3.
 190409,-5.812084,-2.117141\C,0,-5.906917,-0.722641,1.349809\H,0,-4.704
 742,-0.401954,3.098008\H,0,-6.826611,-1.113707,-0.549528\H,0,-1.854456
 ,-5.452488,-4.171174\H,0,-6.841138,-0.490206,1.847216\N,0,-0.311601,2.
 75734,-0.062199\C,0,0.682252,3.535703,-0.713479\C,0,-1.446401,3.375136
 ,0.524759\C,0,1.258302,3.07558,-1.891748\C,0,1.103884,4.740873,-0.1640
 09\C,0,-1.926055,2.919126,1.746696\C,0,-2.089955,4.425089,-0.120292\C,
 0,2.267726,3.803557,-2.498074\H,0,0.920927,2.141167,-2.328401\C,0,2.09
 8725,5.470953,-0.787308\H,0,0.66342,5.093056,0.761884\C,0,-3.05019,3.4
 99369,2.308766\H,0,-1.413753,2.110591,2.257988\C,0,-3.200584,5.011209,
 0.458208\H,0,-1.722443,4.774393,-1.078522\C,0,2.691247,5.003687,-1.951
 246\H,0,2.716784,3.431563,-3.412033\H,0,2.426216,6.406453,-0.348368\C,
 0,-3.690009,4.5493,1.671015\H,0,-3.418752,3.132906,3.260227\H,0,-3.697
 333,5.828147,-0.052668\H,0,3.478451,5.574216,-2.429733\H,0,-4.565489,5
 .006989,2.116268\\Version=ES64L-G09RevE.01\State=1-A\HF=-2067.5789454\
 RMSD=6.668e-09\PG=C01 [X(C44H30F1N5)]\\@


 THOUGH I SPEAK WITH THE TONGUES OF MEN AND OF ANGELS, 
 AND HAVE NOT LOVE,
 I AM BECOME AS SOUNDING BRASS, A TINKLING CYMBAL.
 AND THOUGH I HAVE THE GIFT OF PROPHECY,
 AND UNDERSTAND ALL MYSTERIES, AND ALL KNOWLEDGE.
 AND THOUGH I HAVE ALL FAITH, SO THAT I COULD REMOVE MOUNTAINS,
 AND HAVE NOT LOVE, I AM NOTHING.
 AND THOUGH I BESTOW ALL MY GOODS TO FEED THE POOR,
 AND THOUGH I GIVE MY BODY TO BE BURNED,
 AND HAVE NOT LOVE IT PROFITETH ME NOTHING.
 LOVE SUFFERETH LONG, AND IS KIND,
 LOVE ENVIETH NOT,
 LOVE VAUNTETH NOT ITSELF, IS NOT PUFFED UP,
 DOTH NOT BEHAVE ITSELF UNSEEMLY, SEEKETH NOT HER OWN,
 IS NOT EASILY PROVOKED, THINKETH NO EVIL,
 REJOICETH NOT IN INIQUITY, BUT REJOICETH IN THE TRUTH,
 BEARETH ALL THINGS, BELIEVETH ALL THINGS,
 HOPETH ALL THINGS, ENDURETH ALL THINGS.
 LOVE NEVER FAILETH, BUT WHETHER THERE BE PROPHECIES, THEY SHALL FAIL, 
 WHETHER THERE BE TONGUES, THEY SHALL CEASE,
 WHETHER THERE BE KNOWLEDGE, IT SHALL VANISH AWAY.
 FOR WE KNOW IN PART, AND WE PROPHESY IN PART.
 BUT WHEN THAT WHICH IS PERFECT IS COME, THEN THAT WHICH IS IN PART 
 SHALL BE DONE AWAY. 
 WHEN I WAS A CHILD, I SPAKE AS A CHILD, I UNDERSTOOD AS A CHILD, 
 I THOUGHT AS A CHILD.
 BUT WHEN I BECAME A MAN, I PUT AWAY CHILDISH THINGS.
 FOR NOW WE SEE THROUGH A GLASS, DARKLY, BUT THEN FACE TO FACE.
 NOW I KNOW IN PART. BUT THEN SHALL I KNOW EVEN AS ALSO I AM KNOWN.
 AND NOW ABIDETH FAITH, HOPE AND LOVE, THESE THREE.
 BUT THE GREATEST OF THESE IS LOVE.

                     I CORINTHIANS 13
 Job cpu time:      20 days  1 hours 46 minutes 22.6 seconds.
 File lengths (MBytes):  RWF=  20529 Int=      0 D2E=      0 Chk=   4174 Scr=      1
 Normal termination of Gaussian 09 at Sat Jul  2 18:14:05 2022.
