 Entering Gaussian System, Link 0=g09
 Input=/home/png4rjv/fotokatalizis/benchmark/OPCs/CA_50_states/CA_2b_PBE-D3_def2TZVP.gjf
 Output=/home/png4rjv/fotokatalizis/benchmark/OPCs/CA_50_states/CA_2b_PBE-D3_def2TZVP.log
 Initial command:
 /opt/nce/packages/global/g09/l1.exe "/home/png4rjv/fotokatalizis/benchmark/OPCs/CA_50_states/CA_2b_PBE-D3_def2TZVP/Gau-41837.inp" -scrdir="/home/png4rjv/fotokatalizis/benchmark/OPCs/CA_50_states/CA_2b_PBE-D3_def2TZVP/"
 Default is to use a total of  12 processors:
                               12 via shared-memory
                                1 via Linda
 Entering Link 1 = /opt/nce/packages/global/g09/l1.exe PID=     41838.
  
 Copyright (c) 1988,1990,1992,1993,1995,1998,2003,2009,2015,
            Gaussian, Inc.  All Rights Reserved.
  
 This is part of the Gaussian(R) 09 program.  It is based on
 the Gaussian(R) 03 system (copyright 2003, Gaussian, Inc.),
 the Gaussian(R) 98 system (copyright 1998, Gaussian, Inc.),
 the Gaussian(R) 94 system (copyright 1995, Gaussian, Inc.),
 the Gaussian 92(TM) system (copyright 1992, Gaussian, Inc.),
 the Gaussian 90(TM) system (copyright 1990, Gaussian, Inc.),
 the Gaussian 88(TM) system (copyright 1988, Gaussian, Inc.),
 the Gaussian 86(TM) system (copyright 1986, Carnegie Mellon
 University), and the Gaussian 82(TM) system (copyright 1983,
 Carnegie Mellon University). Gaussian is a federally registered
 trademark of Gaussian, Inc.
  
 This software contains proprietary and confidential information,
 including trade secrets, belonging to Gaussian, Inc.
  
 This software is provided under written license and may be
 used, copied, transmitted, or stored only in accord with that
 written license.
  
 The following legend is applicable only to US Government
 contracts under FAR:
  
                    RESTRICTED RIGHTS LEGEND
  
 Use, reproduction and disclosure by the US Government is
 subject to restrictions as set forth in subparagraphs (a)
 and (c) of the Commercial Computer Software - Restricted
 Rights clause in FAR 52.227-19.
  
 Gaussian, Inc.
 340 Quinnipiac St., Bldg. 40, Wallingford CT 06492
  
  
 ---------------------------------------------------------------
 Warning -- This program may not be used in any manner that
 competes with the business of Gaussian, Inc. or will provide
 assistance to any competitor of Gaussian, Inc.  The licensee
 of this program is prohibited from giving any competitor of
 Gaussian, Inc. access to this program.  By using this program,
 the user acknowledges that Gaussian, Inc. is engaged in the
 business of creating and licensing software in the field of
 computational chemistry and represents and warrants to the
 licensee that it is not a competitor of Gaussian, Inc. and that
 it will not use this program in any manner prohibited above.
 ---------------------------------------------------------------
  

 Cite this work as:
 Gaussian 09, Revision E.01,
 M. J. Frisch, G. W. Trucks, H. B. Schlegel, G. E. Scuseria, 
 M. A. Robb, J. R. Cheeseman, G. Scalmani, V. Barone, B. Mennucci, 
 G. A. Petersson, H. Nakatsuji, M. Caricato, X. Li, H. P. Hratchian, 
 A. F. Izmaylov, J. Bloino, G. Zheng, J. L. Sonnenberg, M. Hada, 
 M. Ehara, K. Toyota, R. Fukuda, J. Hasegawa, M. Ishida, T. Nakajima, 
 Y. Honda, O. Kitao, H. Nakai, T. Vreven, J. A. Montgomery, Jr., 
 J. E. Peralta, F. Ogliaro, M. Bearpark, J. J. Heyd, E. Brothers, 
 K. N. Kudin, V. N. Staroverov, T. Keith, R. Kobayashi, J. Normand, 
 K. Raghavachari, A. Rendell, J. C. Burant, S. S. Iyengar, J. Tomasi, 
 M. Cossi, N. Rega, J. M. Millam, M. Klene, J. E. Knox, J. B. Cross, 
 V. Bakken, C. Adamo, J. Jaramillo, R. Gomperts, R. E. Stratmann, 
 O. Yazyev, A. J. Austin, R. Cammi, C. Pomelli, J. W. Ochterski, 
 R. L. Martin, K. Morokuma, V. G. Zakrzewski, G. A. Voth, 
 P. Salvador, J. J. Dannenberg, S. Dapprich, A. D. Daniels, 
 O. Farkas, J. B. Foresman, J. V. Ortiz, J. Cioslowski, 
 and D. J. Fox, Gaussian, Inc., Wallingford CT, 2013.
 
 ******************************************
 Gaussian 09:  ES64L-G09RevE.01 30-Nov-2015
                 1-Jul-2022 
 ******************************************
 %chk=cp.chk
 Default route:  MaxDisk=500GB
 ----------------------------------------------------------------------
 #p PBEPBE/def2TZVP td=(NStates=50) int=ultrafine scrf=(SMD,solvent=Ace
 tonitrile) EmpiricalDispersion=GD3BJ
 ----------------------------------------------------------------------
 1/38=1/1;
 2/12=2,17=6,18=5,40=1/2;
 3/5=44,7=101,11=9,16=1,25=1,30=1,70=32201,72=2,74=1009,75=-5,124=41/1,2,8,3;
 4//1;
 5/5=2,38=5,53=2/2;
 8/6=1,10=1,108=50/1;
 9/41=50,42=1,70=2/14;
 6/7=2,8=2,9=2,10=2/1;
 99/5=1,9=1/99;
 Leave Link    1 at Fri Jul  1 05:59:53 2022, MaxMem=           0 cpu:         1.1
 (Enter /opt/nce/packages/global/g09/l101.exe)
 -----
 Title
 -----
 Symbolic Z-matrix:
 Charge =  0 Multiplicity = 1
 C                    -0.12537   1.3964    0.0181 
 C                    -1.22505   0.58552  -0.29279 
 C                    -1.18519  -0.81428  -0.26714 
 C                     0.06458  -1.4429    0.00999 
 C                     1.20676  -0.66417   0.3049 
 C                     1.0932    0.74275   0.35917 
 C                     0.16815  -2.8555   -0.0067 
 C                     2.17514   1.49698   0.87752 
 F                    -2.36159   1.18041  -0.71001 
 N                     0.26185  -4.01944  -0.01332 
 N                     3.05582   2.10325   1.34687 
 N                     2.44312  -1.27287   0.58982 
 C                     3.57993  -0.8778   -0.16582 
 C                     2.53564  -2.21847   1.64532 
 C                     3.4298   -0.5603   -1.52524 
 C                     4.84484  -0.77267   0.43317 
 C                     1.74482  -2.0583    2.79357 
 C                     3.39729  -3.32197   1.54631 
 C                     4.52885  -0.12848  -2.26797 
 H                     2.45071  -0.65323  -1.99797 
 C                     5.94014  -0.36077  -0.32401 
 H                     4.96421  -0.99965   1.49284 
 C                     1.80932  -2.99806   3.82264 
 H                     1.07983  -1.19706   2.87696 
 C                     3.46718  -4.24445   2.58846 
 H                     4.00054  -3.46046   0.64863 
 C                     5.79057  -0.03027  -1.67529 
 H                     4.39625   0.11945  -3.32286 
 H                     6.91775  -0.27819   0.15486 
 C                     2.67294  -4.09275   3.73039 
 H                     1.18726  -2.86251   4.70943 
 H                     4.1383   -5.10076   2.49823 
 H                     6.65035   0.30104  -2.25969 
 H                     2.72703  -4.82244   4.53976 
 N                    -2.33413  -1.54631  -0.5756 
 C                    -2.28848  -2.55849  -1.57526 
 C                    -3.55477  -1.2071    0.07005 
 C                    -1.51328  -2.36388  -2.72718 
 C                    -3.00698  -3.7513   -1.41008 
 C                    -3.53764  -0.80637   1.41489 
 C                    -4.77161  -1.25047  -0.62716 
 C                    -1.44427  -3.36552  -3.696 
 H                    -0.96697  -1.42834  -2.86025 
 C                    -2.94525  -4.73775  -2.39232 
 H                    -3.59936  -3.906    -0.50763 
 C                    -4.72437  -0.43445   2.04654 
 H                    -2.59453  -0.79069   1.96377 
 C                    -5.95402  -0.89643   0.02053 
 H                    -4.7865   -1.55039  -1.67538 
 C                    -2.16071  -4.55453  -3.53653 
 H                    -0.83553  -3.20655  -4.58798 
 H                    -3.5025   -5.66611  -2.2536 
 C                    -5.9387   -0.48095   1.3565 
 H                    -4.69791  -0.11979   3.0915 
 H                    -6.89522  -0.92979  -0.53151 
 H                    -2.10936  -5.33402  -4.29831 
 H                    -6.86676  -0.1969    1.85504 
 N                    -0.22559   2.78461  -0.02161 
 C                     0.79304   3.54632  -0.66407 
 C                    -1.35098   3.42337   0.57055 
 C                     1.3791    3.06563  -1.84392 
 C                     1.22313   4.76264  -0.1157 
 C                    -1.88699   2.91587   1.76309 
 C                    -1.93615   4.54459  -0.03585 
 C                     2.40314   3.78853  -2.45584 
 H                     1.03271   2.12636  -2.27782 
 C                     2.23318   5.48687  -0.74661 
 H                     0.77625   5.12867   0.80921 
 C                    -3.01124   3.51472   2.33142 
 H                    -1.41974   2.0543    2.24302 
 C                    -3.04732   5.14721   0.55167 
 H                    -1.52614   4.93406  -0.96829 
 C                     2.83321   5.00276  -1.91407 
 H                     2.8572    3.4029   -3.3705 
 H                     2.56654   6.43022  -0.31019 
 C                    -3.59484   4.63451   1.73283 
 H                    -3.42372   3.10786   3.25657 
 H                    -3.49905   6.01716   0.07139 
 H                     3.63076   5.56899  -2.39758 
 H                    -4.47      5.10579   2.18283 
 
 NAtoms=     80 NQM=       80 NQMF=       0 NMMI=      0 NMMIF=      0
                NMic=       0 NMicF=      0.
                    Isotopes and Nuclear Properties:
 (Nuclear quadrupole moments (NQMom) in fm**2, nuclear magnetic moments (NMagM)
  in nuclear magnetons)

  Atom         1           2           3           4           5           6           7           8           9          10
 IAtWgt=          12          12          12          12          12          12          12          12          19          14
 AtmWgt=  12.0000000  12.0000000  12.0000000  12.0000000  12.0000000  12.0000000  12.0000000  12.0000000  18.9984033  14.0030740
 NucSpn=           0           0           0           0           0           0           0           0           1           2
 AtZEff=   0.0000000   0.0000000   0.0000000   0.0000000   0.0000000   0.0000000   0.0000000   0.0000000   0.0000000   0.0000000
 NQMom=    0.0000000   0.0000000   0.0000000   0.0000000   0.0000000   0.0000000   0.0000000   0.0000000   0.0000000   2.0440000
 NMagM=    0.0000000   0.0000000   0.0000000   0.0000000   0.0000000   0.0000000   0.0000000   0.0000000   2.6288670   0.4037610
 AtZNuc=   6.0000000   6.0000000   6.0000000   6.0000000   6.0000000   6.0000000   6.0000000   6.0000000   9.0000000   7.0000000

  Atom        11          12          13          14          15          16          17          18          19          20
 IAtWgt=          14          14          12          12          12          12          12          12          12           1
 AtmWgt=  14.0030740  14.0030740  12.0000000  12.0000000  12.0000000  12.0000000  12.0000000  12.0000000  12.0000000   1.0078250
 NucSpn=           2           2           0           0           0           0           0           0           0           1
 AtZEff=   0.0000000   0.0000000   0.0000000   0.0000000   0.0000000   0.0000000   0.0000000   0.0000000   0.0000000   0.0000000
 NQMom=    2.0440000   2.0440000   0.0000000   0.0000000   0.0000000   0.0000000   0.0000000   0.0000000   0.0000000   0.0000000
 NMagM=    0.4037610   0.4037610   0.0000000   0.0000000   0.0000000   0.0000000   0.0000000   0.0000000   0.0000000   2.7928460
 AtZNuc=   7.0000000   7.0000000   6.0000000   6.0000000   6.0000000   6.0000000   6.0000000   6.0000000   6.0000000   1.0000000

  Atom        21          22          23          24          25          26          27          28          29          30
 IAtWgt=          12           1          12           1          12           1          12           1           1          12
 AtmWgt=  12.0000000   1.0078250  12.0000000   1.0078250  12.0000000   1.0078250  12.0000000   1.0078250   1.0078250  12.0000000
 NucSpn=           0           1           0           1           0           1           0           1           1           0
 AtZEff=   0.0000000   0.0000000   0.0000000   0.0000000   0.0000000   0.0000000   0.0000000   0.0000000   0.0000000   0.0000000
 NQMom=    0.0000000   0.0000000   0.0000000   0.0000000   0.0000000   0.0000000   0.0000000   0.0000000   0.0000000   0.0000000
 NMagM=    0.0000000   2.7928460   0.0000000   2.7928460   0.0000000   2.7928460   0.0000000   2.7928460   2.7928460   0.0000000
 AtZNuc=   6.0000000   1.0000000   6.0000000   1.0000000   6.0000000   1.0000000   6.0000000   1.0000000   1.0000000   6.0000000

  Atom        31          32          33          34          35          36          37          38          39          40
 IAtWgt=           1           1           1           1          14          12          12          12          12          12
 AtmWgt=   1.0078250   1.0078250   1.0078250   1.0078250  14.0030740  12.0000000  12.0000000  12.0000000  12.0000000  12.0000000
 NucSpn=           1           1           1           1           2           0           0           0           0           0
 AtZEff=   0.0000000   0.0000000   0.0000000   0.0000000   0.0000000   0.0000000   0.0000000   0.0000000   0.0000000   0.0000000
 NQMom=    0.0000000   0.0000000   0.0000000   0.0000000   2.0440000   0.0000000   0.0000000   0.0000000   0.0000000   0.0000000
 NMagM=    2.7928460   2.7928460   2.7928460   2.7928460   0.4037610   0.0000000   0.0000000   0.0000000   0.0000000   0.0000000
 AtZNuc=   1.0000000   1.0000000   1.0000000   1.0000000   7.0000000   6.0000000   6.0000000   6.0000000   6.0000000   6.0000000

  Atom        41          42          43          44          45          46          47          48          49          50
 IAtWgt=          12          12           1          12           1          12           1          12           1          12
 AtmWgt=  12.0000000  12.0000000   1.0078250  12.0000000   1.0078250  12.0000000   1.0078250  12.0000000   1.0078250  12.0000000
 NucSpn=           0           0           1           0           1           0           1           0           1           0
 AtZEff=   0.0000000   0.0000000   0.0000000   0.0000000   0.0000000   0.0000000   0.0000000   0.0000000   0.0000000   0.0000000
 NQMom=    0.0000000   0.0000000   0.0000000   0.0000000   0.0000000   0.0000000   0.0000000   0.0000000   0.0000000   0.0000000
 NMagM=    0.0000000   0.0000000   2.7928460   0.0000000   2.7928460   0.0000000   2.7928460   0.0000000   2.7928460   0.0000000
 AtZNuc=   6.0000000   6.0000000   1.0000000   6.0000000   1.0000000   6.0000000   1.0000000   6.0000000   1.0000000   6.0000000

  Atom        51          52          53          54          55          56          57          58          59          60
 IAtWgt=           1           1          12           1           1           1           1          14          12          12
 AtmWgt=   1.0078250   1.0078250  12.0000000   1.0078250   1.0078250   1.0078250   1.0078250  14.0030740  12.0000000  12.0000000
 NucSpn=           1           1           0           1           1           1           1           2           0           0
 AtZEff=   0.0000000   0.0000000   0.0000000   0.0000000   0.0000000   0.0000000   0.0000000   0.0000000   0.0000000   0.0000000
 NQMom=    0.0000000   0.0000000   0.0000000   0.0000000   0.0000000   0.0000000   0.0000000   2.0440000   0.0000000   0.0000000
 NMagM=    2.7928460   2.7928460   0.0000000   2.7928460   2.7928460   2.7928460   2.7928460   0.4037610   0.0000000   0.0000000
 AtZNuc=   1.0000000   1.0000000   6.0000000   1.0000000   1.0000000   1.0000000   1.0000000   7.0000000   6.0000000   6.0000000

  Atom        61          62          63          64          65          66          67          68          69          70
 IAtWgt=          12          12          12          12          12           1          12           1          12           1
 AtmWgt=  12.0000000  12.0000000  12.0000000  12.0000000  12.0000000   1.0078250  12.0000000   1.0078250  12.0000000   1.0078250
 NucSpn=           0           0           0           0           0           1           0           1           0           1
 AtZEff=   0.0000000   0.0000000   0.0000000   0.0000000   0.0000000   0.0000000   0.0000000   0.0000000   0.0000000   0.0000000
 NQMom=    0.0000000   0.0000000   0.0000000   0.0000000   0.0000000   0.0000000   0.0000000   0.0000000   0.0000000   0.0000000
 NMagM=    0.0000000   0.0000000   0.0000000   0.0000000   0.0000000   2.7928460   0.0000000   2.7928460   0.0000000   2.7928460
 AtZNuc=   6.0000000   6.0000000   6.0000000   6.0000000   6.0000000   1.0000000   6.0000000   1.0000000   6.0000000   1.0000000

  Atom        71          72          73          74          75          76          77          78          79          80
 IAtWgt=          12           1          12           1           1          12           1           1           1           1
 AtmWgt=  12.0000000   1.0078250  12.0000000   1.0078250   1.0078250  12.0000000   1.0078250   1.0078250   1.0078250   1.0078250
 NucSpn=           0           1           0           1           1           0           1           1           1           1
 AtZEff=   0.0000000   0.0000000   0.0000000   0.0000000   0.0000000   0.0000000   0.0000000   0.0000000   0.0000000   0.0000000
 NQMom=    0.0000000   0.0000000   0.0000000   0.0000000   0.0000000   0.0000000   0.0000000   0.0000000   0.0000000   0.0000000
 NMagM=    0.0000000   2.7928460   0.0000000   2.7928460   2.7928460   0.0000000   2.7928460   2.7928460   2.7928460   2.7928460
 AtZNuc=   6.0000000   1.0000000   6.0000000   1.0000000   1.0000000   6.0000000   1.0000000   1.0000000   1.0000000   1.0000000
 Leave Link  101 at Fri Jul  1 05:59:53 2022, MaxMem=  5242880000 cpu:         1.1
 (Enter /opt/nce/packages/global/g09/l202.exe)
 Stoichiometry    C44H30FN5
 Framework group  C1[X(C44H30FN5)]
 Deg. of freedom   234
 Full point group                 C1      NOp   1
 Largest Abelian subgroup         C1      NOp   1
 Largest concise Abelian subgroup C1      NOp   1
                         Standard orientation:                         
 ---------------------------------------------------------------------
 Center     Atomic      Atomic             Coordinates (Angstroms)
 Number     Number       Type             X           Y           Z
 ---------------------------------------------------------------------
      1          6           0       -0.125371    1.396397    0.018102
      2          6           0       -1.225054    0.585519   -0.292793
      3          6           0       -1.185189   -0.814275   -0.267137
      4          6           0        0.064575   -1.442897    0.009987
      5          6           0        1.206762   -0.664167    0.304903
      6          6           0        1.093200    0.742748    0.359172
      7          6           0        0.168148   -2.855499   -0.006699
      8          6           0        2.175140    1.496975    0.877521
      9          9           0       -2.361594    1.180410   -0.710012
     10          7           0        0.261853   -4.019438   -0.013324
     11          7           0        3.055817    2.103247    1.346871
     12          7           0        2.443118   -1.272870    0.589822
     13          6           0        3.579933   -0.877802   -0.165820
     14          6           0        2.535641   -2.218467    1.645319
     15          6           0        3.429804   -0.560303   -1.525240
     16          6           0        4.844835   -0.772671    0.433168
     17          6           0        1.744822   -2.058299    2.793568
     18          6           0        3.397291   -3.321973    1.546311
     19          6           0        4.528851   -0.128480   -2.267969
     20          1           0        2.450713   -0.653226   -1.997967
     21          6           0        5.940136   -0.360769   -0.324010
     22          1           0        4.964206   -0.999655    1.492839
     23          6           0        1.809317   -2.998064    3.822636
     24          1           0        1.079825   -1.197057    2.876961
     25          6           0        3.467183   -4.244451    2.588455
     26          1           0        4.000539   -3.460465    0.648633
     27          6           0        5.790572   -0.030274   -1.675288
     28          1           0        4.396247    0.119452   -3.322855
     29          1           0        6.917754   -0.278190    0.154859
     30          6           0        2.672940   -4.092750    3.730392
     31          1           0        1.187255   -2.862511    4.709429
     32          1           0        4.138297   -5.100759    2.498233
     33          1           0        6.650354    0.301042   -2.259692
     34          1           0        2.727027   -4.822442    4.539762
     35          7           0       -2.334131   -1.546306   -0.575597
     36          6           0       -2.288482   -2.558492   -1.575259
     37          6           0       -3.554765   -1.207097    0.070051
     38          6           0       -1.513278   -2.363880   -2.727175
     39          6           0       -3.006975   -3.751300   -1.410081
     40          6           0       -3.537638   -0.806373    1.414894
     41          6           0       -4.771614   -1.250468   -0.627156
     42          6           0       -1.444268   -3.365515   -3.695995
     43          1           0       -0.966973   -1.428337   -2.860250
     44          6           0       -2.945250   -4.737754   -2.392320
     45          1           0       -3.599358   -3.906000   -0.507629
     46          6           0       -4.724373   -0.434452    2.046542
     47          1           0       -2.594533   -0.790689    1.963774
     48          6           0       -5.954018   -0.896428    0.020533
     49          1           0       -4.786498   -1.550388   -1.675381
     50          6           0       -2.160712   -4.554529   -3.536528
     51          1           0       -0.835525   -3.206549   -4.587978
     52          1           0       -3.502500   -5.666107   -2.253600
     53          6           0       -5.938702   -0.480952    1.356503
     54          1           0       -4.697909   -0.119790    3.091497
     55          1           0       -6.895224   -0.929787   -0.531507
     56          1           0       -2.109366   -5.334021   -4.298305
     57          1           0       -6.866764   -0.196902    1.855037
     58          7           0       -0.225593    2.784613   -0.021607
     59          6           0        0.793038    3.546315   -0.664074
     60          6           0       -1.350978    3.423370    0.570553
     61          6           0        1.379100    3.065634   -1.843916
     62          6           0        1.223127    4.762637   -0.115703
     63          6           0       -1.886990    2.915866    1.763085
     64          6           0       -1.936144    4.544590   -0.035848
     65          6           0        2.403139    3.788534   -2.455837
     66          1           0        1.032707    2.126359   -2.277824
     67          6           0        2.233178    5.486872   -0.746613
     68          1           0        0.776251    5.128674    0.809209
     69          6           0       -3.011236    3.514722    2.331418
     70          1           0       -1.419743    2.054296    2.243016
     71          6           0       -3.047317    5.147212    0.551666
     72          1           0       -1.526139    4.934056   -0.968285
     73          6           0        2.833214    5.002757   -1.914074
     74          1           0        2.857200    3.402897   -3.370496
     75          1           0        2.566544    6.430219   -0.310192
     76          6           0       -3.594835    4.634511    1.732833
     77          1           0       -3.423722    3.107857    3.256572
     78          1           0       -3.499044    6.017164    0.071392
     79          1           0        3.630758    5.568989   -2.397583
     80          1           0       -4.470002    5.105795    2.182829
 ---------------------------------------------------------------------
 Rotational constants (GHZ):      0.0686273      0.0641755      0.0442105
 Leave Link  202 at Fri Jul  1 05:59:53 2022, MaxMem=  5242880000 cpu:         0.1
 (Enter /opt/nce/packages/global/g09/l301.exe)
 Standard basis: def2TZVP (5D, 7F)
 Ernie: Thresh=  0.10000D-02 Tol=  0.10000D-05 Strict=F.
 There are  1980 symmetry adapted cartesian basis functions of A   symmetry.
 There are  1730 symmetry adapted basis functions of A   symmetry.
  1730 basis functions,  2790 primitive gaussians,  1980 cartesian basis functions
   169 alpha electrons      169 beta electrons
       nuclear repulsion energy      6257.0049111228 Hartrees.
 IExCor= 1009 DFT=T Ex=PBE Corr=PBE ExCW=0 ScaHFX=  0.000000
 ScaDFX=  1.000000  1.000000  1.000000  1.000000 ScalE2=  1.000000  1.000000
 IRadAn=      5 IRanWt=     -1 IRanGd=            0 ICorTp=0 IEmpDi=141
 NAtoms=   80 NActive=   80 NUniq=   80 SFac= 1.00D+00 NAtFMM=   60 NAOKFM=T Big=T
 Integral buffers will be    131072 words long.
 Regular integral format.
 Two-electron integral symmetry is turned on.
 R6Disp:  Grimme-D3(BJ) Dispersion energy=       -0.1402058427 Hartrees.
 Nuclear repulsion after empirical dispersion term =     6256.8647052801 Hartrees.
 ------------------------------------------------------------------------------
 Polarizable Continuum Model (PCM)
 =================================
 Model                : PCM (using non-symmetric T matrix).
 Atomic radii         : SMD-Coulomb.
 Polarization charges : Total charges.
 Charge compensation  : None.
 Solution method      : On-the-fly selection.
 Cavity type          : VdW (van der Waals Surface) (Alpha=1.000).
 Cavity algorithm     : GePol (No added spheres)
                        Default sphere list used, NSphG=   80.
                        Lebedev-Laikov grids with approx.  5.0 points / Ang**2.
                        Smoothing algorithm: York/Karplus (Gamma=1.0000).
                        Polarization charges: spherical gaussians, with
                                              point-specific exponents (IZeta= 3).
                        Self-potential: point-specific (ISelfS= 7).
                        Self-field    : sphere-specific E.n sum rule (ISelfD= 2).
 Solvent              : Acetonitrile, Eps=  35.688000 Eps(inf)=   1.806874
 ------------------------------------------------------------------------------
 GePol: Number of generator spheres                  =      80
 GePol: Total number of spheres                      =      80
 GePol: Number of exposed spheres                    =      80 (100.00%)
 GePol: Number of points                             =    6097
 GePol: Average weight of points                     =       0.11
 GePol: Minimum weight of points                     =   0.15D-11
 GePol: Maximum weight of points                     =    0.21501
 GePol: Number of points with low weight             =     392
 GePol: Fraction of low-weight points (<1% of avg)   =       6.43%
 GePol: Cavity surface area                          =    658.615 Ang**2
 GePol: Cavity volume                                =    665.860 Ang**3
 ------------------------------------------------------------------------------
 Atomic radii for non-electrostatic terms: SMD-CDS.
 ------------------------------------------------------------------------------
 PCM non-electrostatic energy =        -0.0096364400 Hartrees.
 Nuclear repulsion after PCM non-electrostatic terms =     6256.8550688402 Hartrees.
 Leave Link  301 at Fri Jul  1 05:59:53 2022, MaxMem=  5242880000 cpu:         2.2
 (Enter /opt/nce/packages/global/g09/l302.exe)
 NPDir=0 NMtPBC=     1 NCelOv=     1 NCel=       1 NClECP=     1 NCelD=      1
         NCelK=      1 NCelE2=     1 NClLst=     1 CellRange=     0.0.
 One-electron integrals computed using PRISM.
   1 Symmetry operations used in ECPInt.
 ECPInt:  NShTT=  224785 NPrTT=  697980 LenC2=  171068 LenP2D=  346105.
 LDataN:  DoStor=T MaxTD1= 6 Len=  172
 NBasis=  1730 RedAO= T EigKep=  2.27D-06  NBF=  1730
 NBsUse=  1730 1.00D-06 EigRej= -1.00D+00 NBFU=  1730
 Precomputing XC quadrature grid using
 IXCGrd= 4 IRadAn=           5 IRanWt=          -1 IRanGd=           0 AccXCQ= 0.00D+00.
 Generated NRdTot=       0 NPtTot=           0 NUsed=           0 NTot=          32
 NSgBfM=  1873  1874  1881  1884  1887 MxSgAt=    80 MxSgA2=    80.
 Leave Link  302 at Fri Jul  1 06:00:01 2022, MaxMem=  5242880000 cpu:        92.5
 (Enter /opt/nce/packages/global/g09/l308.exe)
 Leave Link  308 at Fri Jul  1 06:00:02 2022, MaxMem=  5242880000 cpu:        12.6
 (Enter /opt/nce/packages/global/g09/l303.exe)
 DipDrv:  MaxL=1.
 Leave Link  303 at Fri Jul  1 06:00:03 2022, MaxMem=  5242880000 cpu:         6.9
 (Enter /opt/nce/packages/global/g09/l401.exe)
 ExpMin= 9.52D-02 ExpMax= 3.55D+04 ExpMxC= 1.21D+03 IAcc=3 IRadAn=         5 AccDes= 0.00D+00
 Harris functional with IExCor= 1009 and IRadAn=       5 diagonalized for initial guess.
 HarFok:  IExCor= 1009 AccDes= 0.00D+00 IRadAn=         5 IDoV= 1 UseB2=F ITyADJ=14
 ICtDFT=  3500011 ScaDFX=  1.000000  1.000000  1.000000  1.000000
 FoFCou: FMM=F IPFlag=           0 FMFlag=      100000 FMFlg1=        2001
         NFxFlg=           0 DoJE=T BraDBF=F KetDBF=T FulRan=T
         wScrn=  0.000000 ICntrl=     500 IOpCl=  0 I1Cent=   200000004 NGrid=           0
         NMat0=    1 NMatS0=      1 NMatT0=    0 NMatD0=    1 NMtDS0=    0 NMtDT0=    0
 Petite list used in FoFCou.
 Harris En= -2067.32151290354    
 JPrj=0 DoOrth=F DoCkMO=F.
 Leave Link  401 at Fri Jul  1 06:00:29 2022, MaxMem=  5242880000 cpu:       309.8
 (Enter /opt/nce/packages/global/g09/l502.exe)
 Closed shell SCF:
 Using DIIS extrapolation, IDIIS=  1040.
 Integral symmetry usage will be decided dynamically.
 IVT=    11817950 IEndB=    11817950 NGot=  5242880000 MDV=  5235001071
 LenX=  5235001071 LenY=  5231078691
 Requested convergence on RMS density matrix=1.00D-08 within 128 cycles.
 Requested convergence on MAX density matrix=1.00D-06.
 Requested convergence on             energy=1.00D-06.
 No special actions if energy rises.
 Fock matrices will be formed incrementally for  20 cycles.

 Cycle   1  Pass 1  IDiag  1:
 FoFJK:  IHMeth= 1 ICntrl=     500 DoSepK=F KAlg= 0 I1Cent=   0 FoldK=F
 IRaf= 710000000 NMat=   1 IRICut=       1 DoRegI=T DoRafI=F ISym2E= 0.
 FoFCou: FMM=T IPFlag=           0 FMFlag=      100000 FMFlg1=        2001
         NFxFlg=           0 DoJE=T BraDBF=F KetDBF=F FulRan=T
         wScrn=  0.000000 ICntrl=     500 IOpCl=  0 I1Cent=           0 NGrid=           0
         NMat0=    1 NMatS0=      1 NMatT0=    0 NMatD0=    1 NMtDS0=    0 NMtDT0=    0
 Symmetry not used in FoFCou.
 FMM levels:  10  Number of levels for PrismC:   9
 Inv3:  Mode=1 IEnd=   111520227.
 Iteration    1 A*A^-1 deviation from unit magnitude is 7.88D-15 for   6081.
 Iteration    1 A*A^-1 deviation from orthogonality  is 6.66D-15 for   6093   2601.
 Iteration    1 A^-1*A deviation from unit magnitude is 7.55D-15 for   6081.
 Iteration    1 A^-1*A deviation from orthogonality  is 1.35D-05 for   3700   3434.
 Iteration    2 A*A^-1 deviation from unit magnitude is 2.33D-15 for     46.
 Iteration    2 A*A^-1 deviation from orthogonality  is 6.44D-15 for   6093   2601.
 Iteration    2 A^-1*A deviation from unit magnitude is 1.11D-15 for    292.
 Iteration    2 A^-1*A deviation from orthogonality  is 4.89D-16 for   3350    380.
 E= -2065.78303289919    
 DIIS: error= 1.47D-02 at cycle   1 NSaved=   1.
 NSaved= 1 IEnMin= 1 EnMin= -2065.78303289919     IErMin= 1 ErrMin= 1.47D-02
 ErrMax= 1.47D-02  0.00D+00 EMaxC= 1.00D-01 BMatC= 8.73D-01 BMatP= 8.73D-01
 IDIUse=3 WtCom= 8.53D-01 WtEn= 1.47D-01
 Coeff-Com:  0.100D+01
 Coeff-En:   0.100D+01
 Coeff:      0.100D+01
 Gap=     0.092 Goal=   None    Shift=    0.000
 GapD=    0.092 DampG=0.500 DampE=0.500 DampFc=0.2500 IDamp=-1.
 Damping current iteration by 2.50D-01
 RMSDP=3.39D-03 MaxDP=8.11D-01              OVMax= 3.12D-01

 Cycle   2  Pass 1  IDiag  1:
 RMSU=  8.45D-04    CP:  1.01D+00
 E= -2066.08578759706     Delta-E=       -0.302754697868 Rises=F Damp=T
 DIIS: error= 5.71D-03 at cycle   2 NSaved=   2.
 NSaved= 2 IEnMin= 2 EnMin= -2066.08578759706     IErMin= 2 ErrMin= 5.71D-03
 ErrMax= 5.71D-03  0.00D+00 EMaxC= 1.00D-01 BMatC= 1.88D-01 BMatP= 8.73D-01
 IDIUse=3 WtCom= 9.43D-01 WtEn= 5.71D-02
 Coeff-Com: -0.494D+00 0.149D+01
 Coeff-En:   0.000D+00 0.100D+01
 Coeff:     -0.466D+00 0.147D+01
 Gap=     0.100 Goal=   None    Shift=    0.000
 RMSDP=1.03D-03 MaxDP=1.57D-01 DE=-3.03D-01 OVMax= 3.45D-01

 Cycle   3  Pass 1  IDiag  1:
 RMSU=  9.94D-04    CP:  9.54D-01  9.50D-01
 E= -2066.34133444641     Delta-E=       -0.255546849354 Rises=F Damp=F
 DIIS: error= 1.25D-02 at cycle   3 NSaved=   3.
 NSaved= 3 IEnMin= 3 EnMin= -2066.34133444641     IErMin= 2 ErrMin= 5.71D-03
 ErrMax= 1.25D-02  0.00D+00 EMaxC= 1.00D-01 BMatC= 3.08D-01 BMatP= 1.88D-01
 IDIUse=2 WtCom= 0.00D+00 WtEn= 1.00D+00
 Coeff-En:   0.000D+00 0.148D+00 0.852D+00
 Coeff:      0.000D+00 0.148D+00 0.852D+00
 Gap=     0.092 Goal=   None    Shift=    0.000
 RMSDP=3.11D-03 MaxDP=8.78D-01 DE=-2.56D-01 OVMax= 4.29D-01

 Cycle   4  Pass 1  IDiag  1:
 RMSU=  1.60D-03    CP:  1.03D+00  3.00D+00 -4.18D-01
 E= -2064.49575068696     Delta-E=        1.845583759454 Rises=F Damp=F
 DIIS: error= 3.86D-02 at cycle   4 NSaved=   4.
 NSaved= 4 IEnMin= 3 EnMin= -2066.34133444641     IErMin= 2 ErrMin= 5.71D-03
 ErrMax= 3.86D-02  0.00D+00 EMaxC= 1.00D-01 BMatC= 1.99D+00 BMatP= 1.88D-01
 IDIUse=2 WtCom= 0.00D+00 WtEn= 1.00D+00
 Coeff-En:   0.000D+00 0.000D+00 0.795D+00 0.205D+00
 Coeff:      0.000D+00 0.000D+00 0.795D+00 0.205D+00
 Gap=     0.081 Goal=   None    Shift=    0.000
 RMSDP=2.52D-03 MaxDP=7.63D-01 DE= 1.85D+00 OVMax= 2.31D-01

 Cycle   5  Pass 1  IDiag  1:
 RMSU=  5.44D-04    CP:  9.48D-01  1.33D+00  4.65D-01  2.35D-01
 E= -2066.46874627183     Delta-E=       -1.972995584872 Rises=F Damp=F
 DIIS: error= 1.03D-02 at cycle   5 NSaved=   5.
 NSaved= 5 IEnMin= 5 EnMin= -2066.46874627183     IErMin= 2 ErrMin= 5.71D-03
 ErrMax= 1.03D-02  0.00D+00 EMaxC= 1.00D-01 BMatC= 1.89D-01 BMatP= 1.88D-01
 IDIUse=3 WtCom= 8.97D-01 WtEn= 1.03D-01
 Coeff-Com: -0.467D-01 0.994D-01 0.383D+00-0.547D-01 0.619D+00
 Coeff-En:   0.000D+00 0.000D+00 0.416D+00 0.000D+00 0.584D+00
 Coeff:     -0.419D-01 0.891D-01 0.386D+00-0.490D-01 0.616D+00
 Gap=     0.078 Goal=   None    Shift=    0.000
 RMSDP=4.16D-04 MaxDP=6.78D-02 DE=-1.97D+00 OVMax= 1.05D-01

 Cycle   6  Pass 1  IDiag  1:
 RMSU=  7.78D-05    CP:  9.49D-01  1.12D+00  7.06D-01  1.24D-01  6.04D-01
 E= -2066.66079544512     Delta-E=       -0.192049173291 Rises=F Damp=F
 DIIS: error= 1.42D-03 at cycle   6 NSaved=   6.
 NSaved= 6 IEnMin= 6 EnMin= -2066.66079544512     IErMin= 6 ErrMin= 1.42D-03
 ErrMax= 1.42D-03  0.00D+00 EMaxC= 1.00D-01 BMatC= 3.64D-03 BMatP= 1.88D-01
 IDIUse=3 WtCom= 9.86D-01 WtEn= 1.42D-02
 Coeff-Com: -0.426D-01 0.770D-01 0.231D+00-0.573D-01 0.429D+00 0.363D+00
 Coeff-En:   0.000D+00 0.000D+00 0.000D+00 0.000D+00 0.000D+00 0.100D+01
 Coeff:     -0.420D-01 0.759D-01 0.228D+00-0.565D-01 0.423D+00 0.372D+00
 Gap=     0.076 Goal=   None    Shift=    0.000
 RMSDP=6.52D-05 MaxDP=1.38D-02 DE=-1.92D-01 OVMax= 2.23D-02

 Cycle   7  Pass 1  IDiag  1:
 RMSU=  4.04D-05    CP:  9.46D-01  1.10D+00  6.99D-01  1.25D-01  6.58D-01
                    CP:  5.66D-01
 E= -2066.66398438254     Delta-E=       -0.003188937420 Rises=F Damp=F
 DIIS: error= 3.15D-04 at cycle   7 NSaved=   7.
 NSaved= 7 IEnMin= 7 EnMin= -2066.66398438254     IErMin= 7 ErrMin= 3.15D-04
 ErrMax= 3.15D-04  0.00D+00 EMaxC= 1.00D-01 BMatC= 4.25D-04 BMatP= 3.64D-03
 IDIUse=3 WtCom= 9.97D-01 WtEn= 3.15D-03
 Coeff-Com: -0.170D-01 0.311D-01 0.720D-01-0.219D-01 0.118D+00 0.196D+00
 Coeff-Com:  0.622D+00
 Coeff-En:   0.000D+00 0.000D+00 0.000D+00 0.000D+00 0.000D+00 0.505D-01
 Coeff-En:   0.950D+00
 Coeff:     -0.170D-01 0.310D-01 0.717D-01-0.218D-01 0.118D+00 0.195D+00
 Coeff:      0.623D+00
 Gap=     0.076 Goal=   None    Shift=    0.000
 RMSDP=2.30D-05 MaxDP=3.74D-03 DE=-3.19D-03 OVMax= 7.85D-03

 Cycle   8  Pass 1  IDiag  1:
 RMSU=  1.82D-05    CP:  9.45D-01  1.09D+00  7.04D-01  1.23D-01  6.64D-01
                    CP:  6.26D-01  8.63D-01
 E= -2066.66429322161     Delta-E=       -0.000308839064 Rises=F Damp=F
 DIIS: error= 3.09D-04 at cycle   8 NSaved=   8.
 NSaved= 8 IEnMin= 8 EnMin= -2066.66429322161     IErMin= 8 ErrMin= 3.09D-04
 ErrMax= 3.09D-04  0.00D+00 EMaxC= 1.00D-01 BMatC= 1.27D-04 BMatP= 4.25D-04
 IDIUse=3 WtCom= 9.97D-01 WtEn= 3.09D-03
 Coeff-Com: -0.385D-02 0.787D-02 0.196D-01-0.568D-02 0.152D-01 0.678D-01
 Coeff-Com:  0.449D+00 0.451D+00
 Coeff-En:   0.000D+00 0.000D+00 0.000D+00 0.000D+00 0.000D+00 0.000D+00
 Coeff-En:   0.145D+00 0.855D+00
 Coeff:     -0.383D-02 0.785D-02 0.195D-01-0.566D-02 0.152D-01 0.676D-01
 Coeff:      0.448D+00 0.452D+00
 Gap=     0.076 Goal=   None    Shift=    0.000
 RMSDP=1.17D-05 MaxDP=1.74D-03 DE=-3.09D-04 OVMax= 4.30D-03

 Cycle   9  Pass 1  IDiag  1:
 RMSU=  5.44D-06    CP:  9.45D-01  1.09D+00  7.07D-01  1.21D-01  6.53D-01
                    CP:  6.19D-01  9.12D-01  6.20D-01
 E= -2066.66441492497     Delta-E=       -0.000121703364 Rises=F Damp=F
 DIIS: error= 5.43D-05 at cycle   9 NSaved=   9.
 NSaved= 9 IEnMin= 9 EnMin= -2066.66441492497     IErMin= 9 ErrMin= 5.43D-05
 ErrMax= 5.43D-05  0.00D+00 EMaxC= 1.00D-01 BMatC= 1.27D-05 BMatP= 1.27D-04
 IDIUse=1 WtCom= 1.00D+00 WtEn= 0.00D+00
 Coeff-Com: -0.217D-03 0.110D-02 0.649D-02-0.127D-02-0.247D-02 0.193D-01
 Coeff-Com:  0.229D+00 0.307D+00 0.441D+00
 Coeff:     -0.217D-03 0.110D-02 0.649D-02-0.127D-02-0.247D-02 0.193D-01
 Coeff:      0.229D+00 0.307D+00 0.441D+00
 Gap=     0.076 Goal=   None    Shift=    0.000
 RMSDP=4.00D-06 MaxDP=6.30D-04 DE=-1.22D-04 OVMax= 1.30D-03

 Cycle  10  Pass 1  IDiag  1:
 RMSU=  2.28D-06    CP:  9.45D-01  1.09D+00  7.08D-01  1.21D-01  6.49D-01
                    CP:  6.22D-01  9.07D-01  5.80D-01  5.88D-01
 E= -2066.66442676029     Delta-E=       -0.000011835318 Rises=F Damp=F
 DIIS: error= 2.00D-05 at cycle  10 NSaved=  10.
 NSaved=10 IEnMin=10 EnMin= -2066.66442676029     IErMin=10 ErrMin= 2.00D-05
 ErrMax= 2.00D-05  0.00D+00 EMaxC= 1.00D-01 BMatC= 1.31D-06 BMatP= 1.27D-05
 IDIUse=1 WtCom= 1.00D+00 WtEn= 0.00D+00
 Coeff-Com:  0.271D-03-0.106D-03 0.247D-02-0.329D-03-0.271D-02 0.445D-02
 Coeff-Com:  0.988D-01 0.151D+00 0.297D+00 0.450D+00
 Coeff:      0.271D-03-0.106D-03 0.247D-02-0.329D-03-0.271D-02 0.445D-02
 Coeff:      0.988D-01 0.151D+00 0.297D+00 0.450D+00
 Gap=     0.076 Goal=   None    Shift=    0.000
 RMSDP=1.39D-06 MaxDP=1.99D-04 DE=-1.18D-05 OVMax= 4.83D-04

 Cycle  11  Pass 1  IDiag  1:
 RMSU=  8.22D-07    CP:  9.45D-01  1.09D+00  7.08D-01  1.21D-01  6.50D-01
                    CP:  6.19D-01  9.19D-01  5.97D-01  6.26D-01  6.78D-01
 E= -2066.66442795763     Delta-E=       -0.000001197335 Rises=F Damp=F
 DIIS: error= 8.39D-06 at cycle  11 NSaved=  11.
 NSaved=11 IEnMin=11 EnMin= -2066.66442795763     IErMin=11 ErrMin= 8.39D-06
 ErrMax= 8.39D-06  0.00D+00 EMaxC= 1.00D-01 BMatC= 1.84D-07 BMatP= 1.31D-06
 IDIUse=1 WtCom= 1.00D+00 WtEn= 0.00D+00
 Coeff-Com:  0.251D-03-0.221D-03 0.763D-03 0.211D-04-0.222D-02-0.177D-03
 Coeff-Com:  0.409D-01 0.704D-01 0.161D+00 0.319D+00 0.411D+00
 Coeff:      0.251D-03-0.221D-03 0.763D-03 0.211D-04-0.222D-02-0.177D-03
 Coeff:      0.409D-01 0.704D-01 0.161D+00 0.319D+00 0.411D+00
 Gap=     0.076 Goal=   None    Shift=    0.000
 RMSDP=6.56D-07 MaxDP=1.96D-04 DE=-1.20D-06 OVMax= 9.15D-05

 Cycle  12  Pass 1  IDiag  1:
 RMSU=  3.15D-07    CP:  9.45D-01  1.09D+00  7.08D-01  1.21D-01  6.50D-01
                    CP:  6.20D-01  9.17D-01  6.02D-01  6.28D-01  7.08D-01
                    CP:  6.17D-01
 E= -2066.66442810750     Delta-E=       -0.000000149879 Rises=F Damp=F
 DIIS: error= 2.22D-06 at cycle  12 NSaved=  12.
 NSaved=12 IEnMin=12 EnMin= -2066.66442810750     IErMin=12 ErrMin= 2.22D-06
 ErrMax= 2.22D-06  0.00D+00 EMaxC= 1.00D-01 BMatC= 2.37D-08 BMatP= 1.84D-07
 IDIUse=1 WtCom= 1.00D+00 WtEn= 0.00D+00
 Coeff-Com:  0.147D-03-0.147D-03 0.278D-03 0.490D-04-0.115D-02-0.591D-03
 Coeff-Com:  0.166D-01 0.306D-01 0.759D-01 0.170D+00 0.298D+00 0.411D+00
 Coeff:      0.147D-03-0.147D-03 0.278D-03 0.490D-04-0.115D-02-0.591D-03
 Coeff:      0.166D-01 0.306D-01 0.759D-01 0.170D+00 0.298D+00 0.411D+00
 Gap=     0.076 Goal=   None    Shift=    0.000
 RMSDP=1.81D-07 MaxDP=2.70D-05 DE=-1.50D-07 OVMax= 2.93D-05

 Cycle  13  Pass 1  IDiag  1:
 RMSU=  1.26D-07    CP:  9.45D-01  1.09D+00  7.08D-01  1.21D-01  6.50D-01
                    CP:  6.20D-01  9.17D-01  6.03D-01  6.33D-01  6.97D-01
                    CP:  6.85D-01  6.73D-01
 E= -2066.66442812450     Delta-E=       -0.000000016991 Rises=F Damp=F
 DIIS: error= 1.10D-06 at cycle  13 NSaved=  13.
 NSaved=13 IEnMin=13 EnMin= -2066.66442812450     IErMin=13 ErrMin= 1.10D-06
 ErrMax= 1.10D-06  0.00D+00 EMaxC= 1.00D-01 BMatC= 4.87D-09 BMatP= 2.37D-08
 IDIUse=1 WtCom= 1.00D+00 WtEn= 0.00D+00
 Coeff-Com:  0.730D-04-0.776D-04 0.144D-03 0.189D-04-0.458D-03-0.269D-03
 Coeff-Com:  0.709D-02 0.130D-01 0.337D-01 0.812D-01 0.166D+00 0.317D+00
 Coeff-Com:  0.382D+00
 Coeff:      0.730D-04-0.776D-04 0.144D-03 0.189D-04-0.458D-03-0.269D-03
 Coeff:      0.709D-02 0.130D-01 0.337D-01 0.812D-01 0.166D+00 0.317D+00
 Coeff:      0.382D+00
 Gap=     0.076 Goal=   None    Shift=    0.000
 RMSDP=7.48D-08 MaxDP=1.07D-05 DE=-1.70D-08 OVMax= 1.58D-05

 Cycle  14  Pass 1  IDiag  1:
 RMSU=  3.26D-08    CP:  9.45D-01  1.09D+00  7.08D-01  1.21D-01  6.50D-01
                    CP:  6.19D-01  9.17D-01  6.03D-01  6.33D-01  7.02D-01
                    CP:  6.68D-01  7.36D-01  5.54D-01
 E= -2066.66442812882     Delta-E=       -0.000000004322 Rises=F Damp=F
 DIIS: error= 2.89D-07 at cycle  14 NSaved=  14.
 NSaved=14 IEnMin=14 EnMin= -2066.66442812882     IErMin=14 ErrMin= 2.89D-07
 ErrMax= 2.89D-07  0.00D+00 EMaxC= 1.00D-01 BMatC= 3.39D-10 BMatP= 4.87D-09
 IDIUse=1 WtCom= 1.00D+00 WtEn= 0.00D+00
 Coeff-Com:  0.268D-04-0.313D-04 0.418D-04 0.628D-05-0.133D-03-0.987D-04
 Coeff-Com:  0.203D-02 0.369D-02 0.100D-01 0.268D-01 0.635D-01 0.143D+00
 Coeff-Com:  0.248D+00 0.503D+00
 Coeff:      0.268D-04-0.313D-04 0.418D-04 0.628D-05-0.133D-03-0.987D-04
 Coeff:      0.203D-02 0.369D-02 0.100D-01 0.268D-01 0.635D-01 0.143D+00
 Coeff:      0.248D+00 0.503D+00
 Gap=     0.076 Goal=   None    Shift=    0.000
 RMSDP=3.28D-08 MaxDP=6.59D-06 DE=-4.32D-09 OVMax= 6.50D-06

 Cycle  15  Pass 1  IDiag  1:
 RMSU=  1.41D-08    CP:  9.45D-01  1.09D+00  7.08D-01  1.21D-01  6.50D-01
                    CP:  6.19D-01  9.17D-01  6.02D-01  6.33D-01  7.05D-01
                    CP:  6.75D-01  7.15D-01  5.76D-01  7.69D-01
 E= -2066.66442812918     Delta-E=       -0.000000000366 Rises=F Damp=F
 DIIS: error= 9.06D-08 at cycle  15 NSaved=  15.
 NSaved=15 IEnMin=15 EnMin= -2066.66442812918     IErMin=15 ErrMin= 9.06D-08
 ErrMax= 9.06D-08  0.00D+00 EMaxC= 1.00D-01 BMatC= 4.50D-11 BMatP= 3.39D-10
 IDIUse=1 WtCom= 1.00D+00 WtEn= 0.00D+00
 Coeff-Com:  0.763D-05-0.955D-05 0.989D-05 0.764D-06-0.268D-04-0.254D-04
 Coeff-Com:  0.453D-03 0.780D-03 0.226D-02 0.713D-02 0.197D-01 0.500D-01
 Coeff-Com:  0.108D+00 0.321D+00 0.491D+00
 Coeff:      0.763D-05-0.955D-05 0.989D-05 0.764D-06-0.268D-04-0.254D-04
 Coeff:      0.453D-03 0.780D-03 0.226D-02 0.713D-02 0.197D-01 0.500D-01
 Coeff:      0.108D+00 0.321D+00 0.491D+00
 Gap=     0.076 Goal=   None    Shift=    0.000
 RMSDP=9.00D-09 MaxDP=1.74D-06 DE=-3.66D-10 OVMax= 1.76D-06

 Cycle  16  Pass 1  IDiag  1:
 RMSU=  4.75D-09    CP:  9.45D-01  1.09D+00  7.08D-01  1.21D-01  6.50D-01
                    CP:  6.19D-01  9.17D-01  6.02D-01  6.33D-01  7.05D-01
                    CP:  6.77D-01  7.18D-01  5.69D-01  8.17D-01  8.20D-01
 E= -2066.66442812895     Delta-E=        0.000000000233 Rises=F Damp=F
 DIIS: error= 4.18D-08 at cycle  16 NSaved=  16.
 NSaved=16 IEnMin=15 EnMin= -2066.66442812918     IErMin=16 ErrMin= 4.18D-08
 ErrMax= 4.18D-08  0.00D+00 EMaxC= 1.00D-01 BMatC= 5.54D-12 BMatP= 4.50D-11
 IDIUse=1 WtCom= 1.00D+00 WtEn= 0.00D+00
 Coeff-Com:  0.196D-05-0.247D-05 0.984D-07 0.519D-06-0.646D-05-0.118D-04
 Coeff-Com:  0.490D-04 0.857D-04 0.354D-03 0.163D-02 0.542D-02 0.154D-01
 Coeff-Com:  0.398D-01 0.146D+00 0.312D+00 0.479D+00
 Coeff:      0.196D-05-0.247D-05 0.984D-07 0.519D-06-0.646D-05-0.118D-04
 Coeff:      0.490D-04 0.857D-04 0.354D-03 0.163D-02 0.542D-02 0.154D-01
 Coeff:      0.398D-01 0.146D+00 0.312D+00 0.479D+00
 Gap=     0.076 Goal=   None    Shift=    0.000
 RMSDP=3.61D-09 MaxDP=7.85D-07 DE= 2.33D-10 OVMax= 5.37D-07

 Error on total polarization charges =  0.08464
 SCF Done:  E(RPBE-PBE) =  -2066.66442813     A.U. after   16 cycles
            NFock= 16  Conv=0.36D-08     -V/T= 2.0047
 KE= 2.056962059928D+03 PE=-1.732240458357D+04 EE= 6.941923026673D+03
 SMD-CDS (non-electrostatic) energy       (kcal/mol) =      -6.05
 (included in total energy above)
 Leave Link  502 at Fri Jul  1 06:39:57 2022, MaxMem=  5242880000 cpu:     28321.3
 (Enter /opt/nce/packages/global/g09/l801.exe)
 ExpMin= 9.52D-02 ExpMax= 3.55D+04 ExpMxC= 1.21D+03 IAcc=3 IRadAn=         5 AccDes= 0.00D+00
 HarFok:  IExCor=  205 AccDes= 0.00D+00 IRadAn=         5 IDoV=-2 UseB2=F ITyADJ=14
 ICtDFT= 12500011 ScaDFX=  1.000000  1.000000  1.000000  1.000000
 Largest valence mixing into a core orbital is  5.17D-05
 Largest core mixing into a valence orbital is  1.68D-05
 Range of M.O.s used for correlation:    51  1730
 NBasis=  1730 NAE=   169 NBE=   169 NFC=    50 NFV=     0
 NROrb=   1680 NOA=   119 NOB=   119 NVA=  1561 NVB=  1561

 **** Warning!!: The largest alpha MO coefficient is  0.59076868D+02


 **** Warning!!: The smallest alpha delta epsilon is  0.75939663D-01

 Leave Link  801 at Fri Jul  1 06:39:58 2022, MaxMem=  5242880000 cpu:         6.7
 (Enter /opt/nce/packages/global/g09/l914.exe)
 RHF ground state
 MDV=  5242880000 DFT=T DoStab=F Mixed=F DoRPA=T DoScal=T NonHer=F
 Would need an additional       1156576200000 words for in-memory AO integral storage.
 NEqPCM:  Using non-equilibrium solvation (IEInf=1, Eps=  35.6880, EpsInf=   1.8069)
 Inv3:  Mode=1 IEnd=   111520227.
 Iteration    1 A*A^-1 deviation from unit magnitude is 9.99D-15 for   6090.
 Iteration    1 A*A^-1 deviation from orthogonality  is 4.55D-15 for   6093   2601.
 Iteration    1 A^-1*A deviation from unit magnitude is 1.02D-14 for   6090.
 Iteration    1 A^-1*A deviation from orthogonality  is 3.32D-14 for   4657   4589.
 Making orbital integer symmetry assigments:
 Orbital symmetries:
       Occupied  (A) (A) (A) (A) (A) (A) (A) (A) (A) (A) (A) (A)
                 (A) (A) (A) (A) (A) (A) (A) (A) (A) (A) (A) (A)
                 (A) (A) (A) (A) (A) (A) (A) (A) (A) (A) (A) (A)
                 (A) (A) (A) (A) (A) (A) (A) (A) (A) (A) (A) (A)
                 (A) (A) (A) (A) (A) (A) (A) (A) (A) (A) (A) (A)
                 (A) (A) (A) (A) (A) (A) (A) (A) (A) (A) (A) (A)
                 (A) (A) (A) (A) (A) (A) (A) (A) (A) (A) (A) (A)
                 (A) (A) (A) (A) (A) (A) (A) (A) (A) (A) (A) (A)
                 (A) (A) (A) (A) (A) (A) (A) (A) (A) (A) (A) (A)
                 (A) (A) (A) (A) (A) (A) (A) (A) (A) (A) (A) (A)
                 (A) (A) (A) (A) (A) (A) (A) (A) (A) (A) (A) (A)
                 (A) (A) (A) (A) (A) (A) (A) (A) (A) (A) (A) (A)
                 (A) (A) (A) (A) (A) (A) (A) (A) (A) (A) (A) (A)
                 (A) (A) (A) (A) (A) (A) (A) (A) (A) (A) (A) (A)
                 (A)
       Virtual   (A) (A) (A) (A) (A) (A) (A) (A) (A) (A) (A) (A)
                 (A) (A) (A) (A) (A) (A) (A) (A) (A) (A) (A) (A)
                 (A) (A) (A) (A) (A) (A) (A) (A) (A) (A) (A) (A)
                 (A) (A) (A) (A) (A) (A) (A) (A) (A) (A) (A) (A)
                 (A) (A) (A) (A) (A) (A) (A) (A) (A) (A) (A) (A)
                 (A) (A) (A) (A) (A) (A) (A) (A) (A) (A) (A) (A)
                 (A) (A) (A) (A) (A) (A) (A) (A) (A) (A) (A) (A)
                 (A) (A) (A) (A) (A) (A) (A) (A) (A) (A) (A) (A)
                 (A) (A) (A) (A) (A) (A) (A) (A) (A) (A) (A) (A)
                 (A) (A) (A) (A) (A) (A) (A) (A) (A) (A) (A) (A)
                 (A) (A) (A) (A) (A) (A) (A) (A) (A) (A) (A) (A)
                 (A) (A) (A) (A) (A) (A) (A) (A) (A) (A) (A) (A)
                 (A) (A) (A) (A) (A) (A) (A) (A) (A) (A) (A) (A)
                 (A) (A) (A) (A) (A) (A) (A) (A) (A) (A) (A) (A)
                 (A) (A) (A) (A) (A) (A) (A) (A) (A) (A) (A) (A)
                 (A) (A) (A) (A) (A) (A) (A) (A) (A) (A) (A) (A)
                 (A) (A) (A) (A) (A) (A) (A) (A) (A) (A) (A) (A)
                 (A) (A) (A) (A) (A) (A) (A) (A) (A) (A) (A) (A)
                 (A) (A) (A) (A) (A) (A) (A) (A) (A) (A) (A) (A)
                 (A) (A) (A) (A) (A) (A) (A) (A) (A) (A) (A) (A)
                 (A) (A) (A) (A) (A) (A) (A) (A) (A) (A) (A) (A)
                 (A) (A) (A) (A) (A) (A) (A) (A) (A) (A) (A) (A)
                 (A) (A) (A) (A) (A) (A) (A) (A) (A) (A) (A) (A)
                 (A) (A) (A) (A) (A) (A) (A) (A) (A) (A) (A) (A)
                 (A) (A) (A) (A) (A) (A) (A) (A) (A) (A) (A) (A)
                 (A) (A) (A) (A) (A) (A) (A) (A) (A) (A) (A) (A)
                 (A) (A) (A) (A) (A) (A) (A) (A) (A) (A) (A) (A)
                 (A) (A) (A) (A) (A) (A) (A) (A) (A) (A) (A) (A)
                 (A) (A) (A) (A) (A) (A) (A) (A) (A) (A) (A) (A)
                 (A) (A) (A) (A) (A) (A) (A) (A) (A) (A) (A) (A)
                 (A) (A) (A) (A) (A) (A) (A) (A) (A) (A) (A) (A)
                 (A) (A) (A) (A) (A) (A) (A) (A) (A) (A) (A) (A)
                 (A) (A) (A) (A) (A) (A) (A) (A) (A) (A) (A) (A)
                 (A) (A) (A) (A) (A) (A) (A) (A) (A) (A) (A) (A)
                 (A) (A) (A) (A) (A) (A) (A) (A) (A) (A) (A) (A)
                 (A) (A) (A) (A) (A) (A) (A) (A) (A) (A) (A) (A)
                 (A) (A) (A) (A) (A) (A) (A) (A) (A) (A) (A) (A)
                 (A) (A) (A) (A) (A) (A) (A) (A) (A) (A) (A) (A)
                 (A) (A) (A) (A) (A) (A) (A) (A) (A) (A) (A) (A)
                 (A) (A) (A) (A) (A) (A) (A) (A) (A) (A) (A) (A)
                 (A) (A) (A) (A) (A) (A) (A) (A) (A) (A) (A) (A)
                 (A) (A) (A) (A) (A) (A) (A) (A) (A) (A) (A) (A)
                 (A) (A) (A) (A) (A) (A) (A) (A) (A) (A) (A) (A)
                 (A) (A) (A) (A) (A) (A) (A) (A) (A) (A) (A) (A)
                 (A) (A) (A) (A) (A) (A) (A) (A) (A) (A) (A) (A)
                 (A) (A) (A) (A) (A) (A) (A) (A) (A) (A) (A) (A)
                 (A) (A) (A) (A) (A) (A) (A) (A) (A) (A) (A) (A)
                 (A) (A) (A) (A) (A) (A) (A) (A) (A) (A) (A) (A)
                 (A) (A) (A) (A) (A) (A) (A) (A) (A) (A) (A) (A)
                 (A) (A) (A) (A) (A) (A) (A) (A) (A) (A) (A) (A)
                 (A) (A) (A) (A) (A) (A) (A) (A) (A) (A) (A) (A)
                 (A) (A) (A) (A) (A) (A) (A) (A) (A) (A) (A) (A)
                 (A) (A) (A) (A) (A) (A) (A) (A) (A) (A) (A) (A)
                 (A) (A) (A) (A) (A) (A) (A) (A) (A) (A) (A) (A)
                 (A) (A) (A) (A) (A) (A) (A) (A) (A) (A) (A) (A)
                 (A) (A) (A) (A) (A) (A) (A) (A) (A) (A) (A) (A)
                 (A) (A) (A) (A) (A) (A) (A) (A) (A) (A) (A) (A)
                 (A) (A) (A) (A) (A) (A) (A) (A) (A) (A) (A) (A)
                 (A) (A) (A) (A) (A) (A) (A) (A) (A) (A) (A) (A)
                 (A) (A) (A) (A) (A) (A) (A) (A) (A) (A) (A) (A)
                 (A) (A) (A) (A) (A) (A) (A) (A) (A) (A) (A) (A)
                 (A) (A) (A) (A) (A) (A) (A) (A) (A) (A) (A) (A)
                 (A) (A) (A) (A) (A) (A) (A) (A) (A) (A) (A) (A)
                 (A) (A) (A) (A) (A) (A) (A) (A) (A) (A) (A) (A)
                 (A) (A) (A) (A) (A) (A) (A) (A) (A) (A) (A) (A)
                 (A) (A) (A) (A) (A) (A) (A) (A) (A) (A) (A) (A)
                 (A) (A) (A) (A) (A) (A) (A) (A) (A) (A) (A) (A)
                 (A) (A) (A) (A) (A) (A) (A) (A) (A) (A) (A) (A)
                 (A) (A) (A) (A) (A) (A) (A) (A) (A) (A) (A) (A)
                 (A) (A) (A) (A) (A) (A) (A) (A) (A) (A) (A) (A)
                 (A) (A) (A) (A) (A) (A) (A) (A) (A) (A) (A) (A)
                 (A) (A) (A) (A) (A) (A) (A) (A) (A) (A) (A) (A)
                 (A) (A) (A) (A) (A) (A) (A) (A) (A) (A) (A) (A)
                 (A) (A) (A) (A) (A) (A) (A) (A) (A) (A) (A) (A)
                 (A) (A) (A) (A) (A) (A) (A) (A) (A) (A) (A) (A)
                 (A) (A) (A) (A) (A) (A) (A) (A) (A) (A) (A) (A)
                 (A) (A) (A) (A) (A) (A) (A) (A) (A) (A) (A) (A)
                 (A) (A) (A) (A) (A) (A) (A) (A) (A) (A) (A) (A)
                 (A) (A) (A) (A) (A) (A) (A) (A) (A) (A) (A) (A)
                 (A) (A) (A) (A) (A) (A) (A) (A) (A) (A) (A) (A)
                 (A) (A) (A) (A) (A) (A) (A) (A) (A) (A) (A) (A)
                 (A) (A) (A) (A) (A) (A) (A) (A) (A) (A) (A) (A)
                 (A) (A) (A) (A) (A) (A) (A) (A) (A) (A) (A) (A)
                 (A) (A) (A) (A) (A) (A) (A) (A) (A) (A) (A) (A)
                 (A) (A) (A) (A) (A) (A) (A) (A) (A) (A) (A) (A)
                 (A) (A) (A) (A) (A) (A) (A) (A) (A) (A) (A) (A)
                 (A) (A) (A) (A) (A) (A) (A) (A) (A) (A) (A) (A)
                 (A) (A) (A) (A) (A) (A) (A) (A) (A) (A) (A) (A)
                 (A) (A) (A) (A) (A) (A) (A) (A) (A) (A) (A) (A)
                 (A) (A) (A) (A) (A) (A) (A) (A) (A) (A) (A) (A)
                 (A) (A) (A) (A) (A) (A) (A) (A) (A) (A) (A) (A)
                 (A) (A) (A) (A) (A) (A) (A) (A) (A) (A) (A) (A)
                 (A) (A) (A) (A) (A) (A) (A) (A) (A) (A) (A) (A)
                 (A) (A) (A) (A) (A) (A) (A) (A) (A) (A) (A) (A)
                 (A) (A) (A) (A) (A) (A) (A) (A) (A) (A) (A) (A)
                 (A) (A) (A) (A) (A) (A) (A) (A) (A) (A) (A) (A)
                 (A) (A) (A) (A) (A) (A) (A) (A) (A) (A) (A) (A)
                 (A) (A) (A) (A) (A) (A) (A) (A) (A) (A) (A) (A)
                 (A) (A) (A) (A) (A) (A) (A) (A) (A) (A) (A) (A)
                 (A) (A) (A) (A) (A) (A) (A) (A) (A) (A) (A) (A)
                 (A) (A) (A) (A) (A) (A) (A) (A) (A) (A) (A) (A)
                 (A) (A) (A) (A) (A) (A) (A) (A) (A) (A) (A) (A)
                 (A) (A) (A) (A) (A) (A) (A) (A) (A) (A) (A) (A)
                 (A) (A) (A) (A) (A) (A) (A) (A) (A) (A) (A) (A)
                 (A) (A) (A) (A) (A) (A) (A) (A) (A) (A) (A) (A)
                 (A) (A) (A) (A) (A) (A) (A) (A) (A) (A) (A) (A)
                 (A) (A) (A) (A) (A) (A) (A) (A) (A) (A) (A) (A)
                 (A) (A) (A) (A) (A) (A) (A) (A) (A) (A) (A) (A)
                 (A) (A) (A) (A) (A) (A) (A) (A) (A) (A) (A) (A)
                 (A) (A) (A) (A) (A) (A) (A) (A) (A) (A) (A) (A)
                 (A) (A) (A) (A) (A) (A) (A) (A) (A) (A) (A) (A)
                 (A) (A) (A) (A) (A) (A) (A) (A) (A) (A) (A) (A)
                 (A) (A) (A) (A) (A) (A) (A) (A) (A) (A) (A) (A)
                 (A) (A) (A) (A) (A) (A) (A) (A) (A) (A) (A) (A)
                 (A) (A) (A) (A) (A) (A) (A) (A) (A) (A) (A) (A)
                 (A) (A) (A) (A) (A) (A) (A) (A) (A) (A) (A) (A)
                 (A) (A) (A) (A) (A) (A) (A) (A) (A) (A) (A) (A)
                 (A) (A) (A) (A) (A) (A) (A) (A) (A) (A) (A) (A)
                 (A) (A) (A) (A) (A) (A) (A) (A) (A) (A) (A) (A)
                 (A) (A) (A) (A) (A) (A) (A) (A) (A) (A) (A) (A)
                 (A) (A) (A) (A) (A) (A) (A) (A) (A) (A) (A) (A)
                 (A) (A) (A) (A) (A) (A) (A) (A) (A) (A) (A) (A)
                 (A) (A) (A) (A) (A) (A) (A) (A) (A) (A) (A) (A)
                 (A) (A) (A) (A) (A) (A) (A) (A) (A) (A) (A) (A)
                 (A) (A) (A) (A) (A) (A) (A) (A) (A) (A) (A) (A)
                 (A) (A) (A) (A) (A) (A) (A) (A) (A) (A) (A) (A)
                 (A) (A) (A) (A) (A) (A) (A) (A) (A) (A) (A) (A)
                 (A) (A) (A) (A) (A) (A) (A) (A) (A) (A) (A) (A)
                 (A) (A) (A) (A) (A) (A) (A) (A) (A) (A) (A) (A)
                 (A) (A) (A) (A) (A) (A) (A) (A) (A) (A) (A) (A)
                 (A)
   200 initial guesses have been made.
 Convergence on wavefunction:    0.001000000000000
 Davidson Disk Diagonalization:  ConvIn= 1.00D-03 SkipCon=T Conv= 1.00D-03.
 Max sub-space:   800 roots to seek:   200 dimension of matrix:       371518
 Iteration     1 Dimension   200 NMult     0 NNew    200
 CISAX will form    72 AO SS matrices at one time.
 NMat=    72 NSing=    72 JSym2X= 0.
 FoFJK:  IHMeth= 1 ICntrl=     500 DoSepK=F KAlg= 0 I1Cent=   0 FoldK=F
 IRaf=         0 NMat=  72 IRICut=       1 DoRegI=T DoRafI=F ISym2E= 0.
 NMat=    72 NSing=    72 JSym2X= 0.
 NMat=    56 NSing=    56 JSym2X= 0.
 New state      4 was old state      5
 New state      5 was old state      4
 New state      8 was old state      9
 New state      9 was old state     10
 New state     10 was old state     13
 New state     11 was old state     14
 New state     12 was old state     11
 New state     13 was old state     12
 New state     14 was old state     16
 New state     16 was old state     22
 New state     17 was old state     20
 New state     18 was old state     21
 New state     20 was old state     24
 New state     21 was old state     23
 New state     22 was old state     28
 New state     23 was old state     27
 New state     24 was old state     31
 New state     25 was old state     30
 New state     26 was old state     29
 New state     27 was old state      8
 New state     28 was old state     34
 New state     29 was old state     33
 New state     30 was old state     25
 New state     31 was old state     35
 New state     32 was old state     36
 New state     33 was old state     39
 New state     34 was old state     38
 New state     35 was old state     40
 New state     36 was old state     43
 New state     38 was old state     41
 New state     39 was old state     47
 New state     40 was old state     49
 New state     41 was old state     42
 New state     42 was old state     48
 New state     43 was old state     50
 New state     46 was old state     55
 New state     47 was old state     52
 New state     48 was old state     56
 New state     49 was old state     53
 New state     50 was old state     17
 Excitation Energies [eV] at current iteration:
 Root      1 :     2.171476915830543
 Root      2 :     2.499892078977414
 Root      3 :     2.618464258504974
 Root      4 :     2.728354944904687
 Root      5 :     2.866702157944989
 Root      6 :     2.914771434930941
 Root      7 :     3.288304817849059
 Root      8 :     3.382934706557356
 Root      9 :     3.400929522628782
 Root     10 :     3.431094367983545
 Root     11 :     3.461736580810870
 Root     12 :     3.469290924697533
 Root     13 :     3.470309992247699
 Root     14 :     3.507116975787703
 Root     15 :     3.524550109484556
 Root     16 :     3.535432934667218
 Root     17 :     3.577552379837019
 Root     18 :     3.595661374369358
 Root     19 :     3.620214642658045
 Root     20 :     3.626314414734880
 Root     21 :     3.633170535930560
 Root     22 :     3.654866865635365
 Root     23 :     3.666989175857185
 Root     24 :     3.678351989004374
 Root     25 :     3.681837866215114
 Root     26 :     3.696579619393633
 Root     27 :     3.720158378738850
 Root     28 :     3.739519427874938
 Root     29 :     3.775124242221336
 Root     30 :     3.840944090279469
 Root     31 :     3.850001092560165
 Root     32 :     3.858496989095856
 Root     33 :     3.860449102453169
 Root     34 :     3.883961901509444
 Root     35 :     3.887989757068345
 Root     36 :     3.907603421115894
 Root     37 :     3.931817229074189
 Root     38 :     3.944887922794444
 Root     39 :     3.960804010534341
 Root     40 :     3.982434773450090
 Root     41 :     3.986615409874815
 Root     42 :     4.002664758889391
 Root     43 :     4.037008020336603
 Root     44 :     4.064434091887702
 Root     45 :     4.077779282025280
 Root     46 :     4.089582463666457
 Root     47 :     4.129341539333874
 Root     48 :     4.141116760117966
 Root     49 :     4.152883820762211
 Root     50 :     4.165867671686256
 Root     51 :     4.185586701307211
 Root     52 :     4.196433842497432
 Root     53 :     4.230724912823909
 Root     54 :     4.252059136859619
 Root     55 :     4.274669214475932
 Root     56 :     4.314695946936641
 Root     57 :     4.354875342114539
 Root     58 :     4.378022081399507
 Root     59 :     4.420904411960651
 Root     60 :     4.437144163366608
 Root     61 :     4.487052724515046
 Root     62 :     4.528908459459351
 Root     63 :     4.638820387824523
 Root     64 :     4.652947098786230
 Root     65 :     4.665466765474179
 Root     66 :     4.687531416285168
 Root     67 :     4.711062780203171
 Root     68 :     4.742047128974535
 Root     69 :     4.757716451038536
 Root     70 :     4.765843840530428
 Root     71 :     4.779511600588066
 Root     72 :     4.808151312587595
 Root     73 :     4.810465490793776
 Root     74 :     4.819334283524920
 Root     75 :     4.823760291762055
 Root     76 :     4.843731082955417
 Root     77 :     4.857421420604497
 Root     78 :     4.862359863548684
 Root     79 :     4.873210087224198
 Root     80 :     4.875481483695198
 Root     81 :     4.888024692562699
 Root     82 :     4.889085542828729
 Root     83 :     4.896576779656248
 Root     84 :     4.909199374770696
 Root     85 :     4.910522287175612
 Root     86 :     4.916188063247454
 Root     87 :     4.925924173029995
 Root     88 :     4.933322718586894
 Root     89 :     4.940296396555693
 Root     90 :     4.960826486832697
 Root     91 :     4.962992084088182
 Root     92 :     4.975098085921465
 Root     93 :     4.983564068998804
 Root     94 :     4.988216914810502
 Root     95 :     5.001337270908807
 Root     96 :     5.009403091740404
 Root     97 :     5.012949967582953
 Root     98 :     5.017993361294298
 Root     99 :     5.022874040731870
 Root    100 :     5.033913349752748
 Root    101 :     5.042381627879462
 Root    102 :     5.055259215567019
 Root    103 :     5.061206398653067
 Root    104 :     5.071320071146077
 Root    105 :     5.075075764109304
 Root    106 :     5.081630059690035
 Root    107 :     5.083211455901770
 Root    108 :     5.098193430043435
 Root    109 :     5.105981792132847
 Root    110 :     5.114175693314266
 Root    111 :     5.116269660410692
 Root    112 :     5.124501326392234
 Root    113 :     5.126179361645637
 Root    114 :     5.135788539742398
 Root    115 :     5.140470956825326
 Root    116 :     5.144112286862313
 Root    117 :     5.155339008957202
 Root    118 :     5.172910539533257
 Root    119 :     5.176046668182611
 Root    120 :     5.179937921786021
 Root    121 :     5.184757220218425
 Root    122 :     5.185900215234593
 Root    123 :     5.197914381590719
 Root    124 :     5.223666855394495
 Root    125 :     5.229512663377013
 Root    126 :     5.233801547139462
 Root    127 :     5.234748208559110
 Root    128 :     5.245865796306089
 Root    129 :     5.264993842278892
 Root    130 :     5.267568440933144
 Root    131 :     5.275545517084378
 Root    132 :     5.276941509901439
 Root    133 :     5.285541523956809
 Root    134 :     5.287508650776547
 Root    135 :     5.292070559442922
 Root    136 :     5.303024301066757
 Root    137 :     5.314477579428772
 Root    138 :     5.320122475984484
 Root    139 :     5.320956094483466
 Root    140 :     5.325853208990260
 Root    141 :     5.339752052733538
 Root    142 :     5.345354233518431
 Root    143 :     5.350715112259155
 Root    144 :     5.355207006348481
 Root    145 :     5.363228461417609
 Root    146 :     5.366755693412719
 Root    147 :     5.374032358690621
 Root    148 :     5.386130612905895
 Root    149 :     5.390323013652142
 Root    150 :     5.393942456629981
 Root    151 :     5.404695615651255
 Root    152 :     5.409808296194710
 Root    153 :     5.414086488666479
 Root    154 :     5.420057009681569
 Root    155 :     5.425534262690616
 Root    156 :     5.436441796727185
 Root    157 :     5.440311645580840
 Root    158 :     5.447550298740828
 Root    159 :     5.455376566095810
 Root    160 :     5.464461574790656
 Root    161 :     5.477597828657557
 Root    162 :     5.480416789581993
 Root    163 :     5.487690880904597
 Root    164 :     5.502119881175791
 Root    165 :     5.516997427560641
 Root    166 :     5.520427307373210
 Root    167 :     5.527149002524194
 Root    168 :     5.529883495296073
 Root    169 :     5.536412985379002
 Root    170 :     5.538749171480781
 Root    171 :     5.555513451219685
 Root    172 :     5.567751045813942
 Root    173 :     5.573434192384518
 Root    174 :     5.574294754979765
 Root    175 :     5.607094616628927
 Root    176 :     5.623010552744660
 Root    177 :     5.645636156039091
 Root    178 :     5.670040978926890
 Root    179 :     5.686983303642937
 Root    180 :     6.025784808334862
 Root    181 :     6.059874659201079
 Root    182 :     6.150972768310187
 Root    183 :     6.198663858864520
 Root    184 :     6.234678909897266
 Root    185 :     6.274963683476298
 Root    186 :     6.555514641475886
 Root    187 :     6.635937465135464
 Root    188 :     6.648934202927625
 Root    189 :     7.017176278209305
 Root    190 :     7.077208590121987
 Root    191 :     7.142359139398597
 Root    192 :     7.172501046495273
 Root    193 :     7.348013381723029
 Root    194 :     7.370895446930297
 Root    195 :     7.411983434470380
 Root    196 :     7.429724844359932
 Root    197 :     7.501898847490894
 Root    198 :     8.060567515494192
 Root    199 :     8.126667449922989
 Root    200 :     8.223850740903730
 Iteration     2 Dimension   400 NMult   200 NNew    200
 CISAX will form    72 AO SS matrices at one time.
 NMat=    72 NSing=    72 JSym2X= 0.
 NMat=    72 NSing=    72 JSym2X= 0.
 NMat=    56 NSing=    56 JSym2X= 0.
 Root      1 not converged, maximum delta is    0.024160862899237
 Root      2 not converged, maximum delta is    0.040957779741628
 Root      3 not converged, maximum delta is    0.137149538562148
 Root      4 not converged, maximum delta is    0.109606525124634
 Root      5 not converged, maximum delta is    0.134493960949475
 Root      6 not converged, maximum delta is    0.106480172110980
 Root      7 not converged, maximum delta is    0.031080427443902
 Root      8 not converged, maximum delta is    0.035899458587589
 Root      9 not converged, maximum delta is    0.076008000701248
 Root     10 not converged, maximum delta is    0.102689535280791
 Root     11 not converged, maximum delta is    0.341010929975996
 Root     12 not converged, maximum delta is    0.310055528509396
 Root     13 not converged, maximum delta is    0.248718998582147
 Root     14 not converged, maximum delta is    0.032598299379310
 Root     15 not converged, maximum delta is    0.059068536821301
 Root     16 not converged, maximum delta is    0.084715312068325
 Root     17 not converged, maximum delta is    0.051667087763924
 Root     18 not converged, maximum delta is    0.080441719036721
 Root     19 not converged, maximum delta is    0.131939553947237
 New state     20 was old state     21
 Root     20 not converged, maximum delta is    0.290809956402268
 New state     21 was old state     20
 Root     21 not converged, maximum delta is    0.248108624722674
 Root     22 not converged, maximum delta is    0.416980558843034
 New state     23 was old state     27
 Root     23 not converged, maximum delta is    0.521632306508669
 Root     24 not converged, maximum delta is    0.241242439371150
 New state     25 was old state     23
 Root     25 not converged, maximum delta is    0.260150306521005
 Root     26 not converged, maximum delta is    0.404455537796167
 New state     27 was old state     25
 Root     27 not converged, maximum delta is    0.352892814159906
 Root     28 not converged, maximum delta is    0.112443310602802
 Root     29 not converged, maximum delta is    0.065089857866144
 Root     30 not converged, maximum delta is    0.201237630871614
 Root     31 not converged, maximum delta is    0.229848420845948
 New state     32 was old state     35
 Root     32 not converged, maximum delta is    0.387869203320224
 New state     33 was old state     32
 Root     33 not converged, maximum delta is    0.279618893639784
 New state     34 was old state     33
 Root     34 not converged, maximum delta is    0.260581539487153
 New state     35 was old state     34
 Root     35 not converged, maximum delta is    0.374639241405582
 Root     36 not converged, maximum delta is    0.340739129935264
 Root     37 not converged, maximum delta is    0.222652977439941
 Root     38 not converged, maximum delta is    0.225665046155875
 Root     39 not converged, maximum delta is    0.291911798340557
 Root     40 not converged, maximum delta is    0.344378074963859
 New state     41 was old state     42
 Root     41 not converged, maximum delta is    0.410348988731521
 New state     42 was old state     41
 Root     42 not converged, maximum delta is    0.239296098160966
 Root     43 not converged, maximum delta is    0.238864663335316
 Root     44 not converged, maximum delta is    0.316651562070648
 New state     45 was old state     46
 Root     45 not converged, maximum delta is    0.484224436694749
 New state     46 was old state     45
 Root     46 not converged, maximum delta is    0.194368943192540
 Root     47 not converged, maximum delta is    0.300853890148608
 Root     48 not converged, maximum delta is    0.290982141328663
 New state     49 was old state     50
 Root     49 not converged, maximum delta is    0.371172895412902
 New state     50 was old state     49
 Root     50 not converged, maximum delta is    0.326220375846342
 Excitation Energies [eV] at current iteration:
 Root      1 :     2.147874636447703   Change is   -0.023602279382839
 Root      2 :     2.405073381462819   Change is   -0.094818697514595
 Root      3 :     2.509719368368304   Change is   -0.108744890136670
 Root      4 :     2.671574684311862   Change is   -0.056780260592826
 Root      5 :     2.693423992334838   Change is   -0.173278165610152
 Root      6 :     2.820017304897927   Change is   -0.094754130033014
 Root      7 :     3.282933672769233   Change is   -0.005371145079826
 Root      8 :     3.380461418304311   Change is   -0.002473288253045
 Root      9 :     3.395568408132672   Change is   -0.005361114496110
 Root     10 :     3.417385991150024   Change is   -0.013708376833521
 Root     11 :     3.458044267755940   Change is   -0.003692313054930
 Root     12 :     3.460643313036307   Change is   -0.008647611661226
 Root     13 :     3.463133159522731   Change is   -0.007176832724969
 Root     14 :     3.503303036920078   Change is   -0.003813938867625
 Root     15 :     3.510921589546498   Change is   -0.013628519938058
 Root     16 :     3.524827479956788   Change is   -0.010605454710430
 Root     17 :     3.567568699413864   Change is   -0.009983680423155
 Root     18 :     3.584969232718645   Change is   -0.010692141650713
 Root     19 :     3.599086189827976   Change is   -0.021128452830069
 Root     20 :     3.617327147869188   Change is   -0.015843388061372
 Root     21 :     3.620092407518791   Change is   -0.006222007216089
 Root     22 :     3.644665368830172   Change is   -0.010201496805193
 Root     23 :     3.645785672381807   Change is   -0.074372706357043
 Root     24 :     3.659072372742481   Change is   -0.019279616261894
 Root     25 :     3.667064001555266   Change is    0.000074825698080
 Root     26 :     3.674744809413208   Change is   -0.021834809980425
 Root     27 :     3.683592778676833   Change is    0.001754912461719
 Root     28 :     3.709280530108077   Change is   -0.030238897766861
 Root     29 :     3.761723442918543   Change is   -0.013400799302793
 Root     30 :     3.780026597065469   Change is   -0.060917493213999
 Root     31 :     3.805156535408876   Change is   -0.044844557151289
 Root     32 :     3.825984118089434   Change is   -0.062005638978912
 Root     33 :     3.847879949921664   Change is   -0.010617039174192
 Root     34 :     3.855932753020376   Change is   -0.004516349432794
 Root     35 :     3.864521109890415   Change is   -0.019440791619029
 Root     36 :     3.883100016212463   Change is   -0.024503404903431
 Root     37 :     3.897307275141089   Change is   -0.034509953933100
 Root     38 :     3.915742605346229   Change is   -0.029145317448216
 Root     39 :     3.932335878135249   Change is   -0.028468132399092
 Root     40 :     3.948785034656162   Change is   -0.033649738793928
 Root     41 :     3.960846897679870   Change is   -0.041817861209520
 Root     42 :     3.980857957200538   Change is   -0.005757452674277
 Root     43 :     4.007274485039896   Change is   -0.029733535296707
 Root     44 :     4.023890492915988   Change is   -0.040543598971714
 Root     45 :     4.037012823318205   Change is   -0.052569640348252
 Root     46 :     4.051625629862901   Change is   -0.026153652162379
 Root     47 :     4.077098539938491   Change is   -0.052242999395382
 Root     48 :     4.096149354438515   Change is   -0.044967405679451
 Root     49 :     4.098489131289215   Change is   -0.067378540397041
 Root     50 :     4.106301087386397   Change is   -0.046582733375814
 Root     51 :     4.126182074477041   Change is   -0.059404626830170
 Root     52 :     4.140877056614253   Change is   -0.055556785883179
 Root     53 :     4.176050828802357   Change is   -0.076008308057261
 Root     54 :     4.197570110898998   Change is   -0.033154801924911
 Root     55 :     4.207177437546235   Change is   -0.067491776929698
 Root     56 :     4.243988600684053   Change is   -0.110886741430486
 Root     57 :     4.310717812676883   Change is   -0.003978134259757
 Root     58 :     4.362858081838808   Change is   -0.058046330121843
 Root     59 :     4.366725461434457   Change is   -0.011296619965050
 Root     60 :     4.401355554622561   Change is   -0.035788608744047
 Root     61 :     4.432195668491239   Change is   -0.054857056023807
 Root     62 :     4.440727209103834   Change is   -0.088181250355517
 Root     63 :     4.567003479598429   Change is   -0.085943619187801
 Root     64 :     4.589477432039969   Change is   -0.049342955784554
 Root     65 :     4.659070310619960   Change is   -0.006396454854219
 Root     66 :     4.661492009079573   Change is   -0.049570771123599
 Root     67 :     4.683999423632334   Change is   -0.003531992652834
 Root     68 :     4.712447037999564   Change is   -0.053396802530863
 Root     69 :     4.738709280779557   Change is   -0.003337848194978
 Root     70 :     4.752047507855147   Change is   -0.005668943183389
 Root     71 :     4.756098321742609   Change is   -0.132987221086120
 Root     72 :     4.770996277805955   Change is   -0.008515322782111
 Root     73 :     4.779503330507819   Change is   -0.064227752447598
 Root     74 :     4.798934830826626   Change is   -0.009216481760969
 Root     75 :     4.805870044315948   Change is   -0.004595446477829
 Root     76 :     4.808436992313617   Change is   -0.010897291211302
 Root     77 :     4.816785431294377   Change is   -0.109138741735618
 Root     78 :     4.820864190147963   Change is   -0.002896101614092
 Root     79 :     4.842086151343763   Change is   -0.015335269260734
 Root     80 :     4.860267279060207   Change is   -0.002092584488477
 Root     81 :     4.866045626624470   Change is   -0.009435857070728
 Root     82 :     4.869118544449852   Change is   -0.004091542774346
 Root     83 :     4.876208952705533   Change is   -0.107355116293271
 Root     84 :     4.883206291671856   Change is   -0.004818400890843
 Root     85 :     4.892396549948578   Change is   -0.004180229707669
 Root     86 :     4.905942377688393   Change is   -0.003256997082303
 Root     87 :     4.911360043742518   Change is   -0.004828019504936
 Root     88 :     4.914232793273900   Change is   -0.048759290814283
 Root     89 :     4.926147194334833   Change is   -0.007175524252061
 Root     90 :     4.937724979641512   Change is   -0.002571416914181
 Root     91 :     4.942562098495604   Change is   -0.075431262798694
 Root     92 :     4.954571902528239   Change is   -0.006254584304458
 Root     93 :     4.959718273828296   Change is   -0.082663354051167
 Root     94 :     4.971457681103693   Change is   -0.003640404817771
 Root     95 :     4.983053955928081   Change is   -0.005162958882421
 Root     96 :     4.988191940697607   Change is   -0.013145330211201
 Root     97 :     4.994832485418399   Change is   -0.014570606322005
 Root     98 :     4.999199176970397   Change is   -0.023674863761472
 Root     99 :     5.006943313608090   Change is   -0.006006653974862
 Root    100 :     5.013826474538905   Change is   -0.020086875213843
 Root    101 :     5.021919410546962   Change is   -0.033339805020057
 Root    102 :     5.026580336678094   Change is   -0.087595356636172
 Root    103 :     5.036050295323240   Change is   -0.025156103329827
 Root    104 :     5.042337894981439   Change is   -0.032737869127864
 Root    105 :     5.047269730453452   Change is   -0.035941725448319
 Root    106 :     5.059805214425747   Change is   -0.080665742399579
 Root    107 :     5.068189521593745   Change is   -0.003130549552331
 Root    108 :     5.072775416840971   Change is   -0.008854642849064
 Root    109 :     5.074843077972268   Change is   -0.031138714160580
 Root    110 :     5.079875431929572   Change is   -0.046303929716065
 Root    111 :     5.095588043951532   Change is   -0.002605386091903
 Root    112 :     5.103725379559649   Change is   -0.012544280851044
 Root    113 :     5.106468583828206   Change is   -0.018032742564027
 Root    114 :     5.110609487513844   Change is   -0.025179052228555
 Root    115 :     5.119035258739790   Change is   -0.065721961478635
 Root    116 :     5.123175014858558   Change is   -0.020937272003756
 Root    117 :     5.130605980224587
 Root    118 :     5.134992815267958   Change is   -0.020346193689244
 Root    119 :     5.145174104107560   Change is   -0.078492751286935
 Root    120 :     5.158585795538245   Change is   -0.186768437980185
 Root    121 :     5.163421874904678   Change is   -0.009488664628579
 Root    122 :     5.170315624834712   Change is   -0.009622296951308
 Root    123 :     5.174037628616198   Change is   -0.002009039566413
 Root    124 :     5.181742252882843   Change is   -0.004157962351750
 Root    125 :     5.194193829709664   Change is   -0.003720551881054
 Root    126 :     5.207556319327790   Change is   -0.026245227811672
 Root    127 :     5.211669901945062   Change is   -0.023078306614048
 Root    128 :     5.224063490331990   Change is   -0.005449173045023
 Root    129 :     5.229813516990447   Change is   -0.016052279315641
 Root    130 :     5.238356072280629
 Root    131 :     5.249949167977968   Change is   -0.025596349106410
 Root    132 :     5.261783835974884   Change is   -0.003210006304008
 Root    133 :     5.266167654575884   Change is   -0.001400786357261
 Root    134 :     5.268371370366197   Change is   -0.008570139535242
 Root    135 :     5.270060695860852   Change is   -0.015480828095956
 Root    136 :     5.281232164363464   Change is   -0.006276486413083
 Root    137 :     5.287094778050668   Change is   -0.015929523016089
 Root    138 :     5.291404916818794   Change is   -0.059310195440361
 Root    139 :     5.295589846130953   Change is    0.003519286688031
 Root    140 :     5.309791629951939   Change is   -0.004685949476833
 Root    141 :     5.311992293844602   Change is   -0.008963800638865
 Root    142 :     5.319313564859332   Change is   -0.006539644130929
 Root    143 :     5.324317310766737   Change is    0.004194834782252
 Root    144 :     5.331040545612095   Change is   -0.008711507121444
 Root    145 :     5.347516736468766   Change is   -0.007690269879715
 Root    146 :     5.350876633798921   Change is   -0.015879059613798
 Root    147 :     5.359451336361217   Change is   -0.003777125056392
 Root    148 :     5.364522904428044   Change is   -0.040172711223210
 Root    149 :     5.371163532429015   Change is   -0.002868826261607
 Root    150 :     5.379459682736028   Change is   -0.006670930169867
[...]
 Alpha virt. eigenvalues --    2.47550   2.47622   2.47807   2.48045   2.48274
 Alpha virt. eigenvalues --    2.48848   2.49306   2.49939   2.50961   2.51633
 Alpha virt. eigenvalues --    2.51944   2.52153   2.52516   2.52929   2.52978
 Alpha virt. eigenvalues --    2.53643   2.54093   2.54495   2.54695   2.54789
 Alpha virt. eigenvalues --    2.55197   2.55290   2.55425   2.55634   2.55852
 Alpha virt. eigenvalues --    2.56122   2.56432   2.56562   2.56617   2.57326
 Alpha virt. eigenvalues --    2.57456   2.57543   2.57832   2.58125   2.58288
 Alpha virt. eigenvalues --    2.58418   2.58582   2.58886   2.59016   2.59187
 Alpha virt. eigenvalues --    2.59430   2.59505   2.59796   2.59954   2.60033
 Alpha virt. eigenvalues --    2.60328   2.60625   2.60707   2.61106   2.61258
 Alpha virt. eigenvalues --    2.61455   2.61857   2.62090   2.62220   2.62933
 Alpha virt. eigenvalues --    2.63442   2.63535   2.64111   2.64197   2.64740
 Alpha virt. eigenvalues --    2.64938   2.65300   2.65430   2.65880   2.66272
 Alpha virt. eigenvalues --    2.66317   2.66512   2.66784   2.67088   2.67472
 Alpha virt. eigenvalues --    2.67657   2.68073   2.68343   2.68360   2.68612
 Alpha virt. eigenvalues --    2.68881   2.69017   2.69076   2.69707   2.69771
 Alpha virt. eigenvalues --    2.69989   2.70118   2.70298   2.70586   2.70829
 Alpha virt. eigenvalues --    2.71412   2.71601   2.71822   2.72123   2.72529
 Alpha virt. eigenvalues --    2.72671   2.72928   2.73117   2.73292   2.73772
 Alpha virt. eigenvalues --    2.73900   2.74214   2.74512   2.74944   2.75078
 Alpha virt. eigenvalues --    2.75260   2.75496   2.76047   2.76173   2.76436
 Alpha virt. eigenvalues --    2.76564   2.76694   2.77077   2.77421   2.77679
 Alpha virt. eigenvalues --    2.77816   2.78287   2.78498   2.78646   2.78900
 Alpha virt. eigenvalues --    2.78986   2.79215   2.79386   2.79791   2.79935
 Alpha virt. eigenvalues --    2.80485   2.80680   2.80879   2.81203   2.81449
 Alpha virt. eigenvalues --    2.81603   2.82017   2.82124   2.82668   2.82770
 Alpha virt. eigenvalues --    2.83278   2.84093   2.84163   2.84587   2.84770
 Alpha virt. eigenvalues --    2.85169   2.85430   2.85816   2.86091   2.86291
 Alpha virt. eigenvalues --    2.86717   2.86892   2.87231   2.87451   2.87561
 Alpha virt. eigenvalues --    2.88361   2.88746   2.89082   2.89519   2.89999
 Alpha virt. eigenvalues --    2.90244   2.90711   2.91310   2.91649   2.92123
 Alpha virt. eigenvalues --    2.92329   2.92969   2.93518   2.94002   2.94131
 Alpha virt. eigenvalues --    2.94485   2.94972   2.95509   2.96512   2.97171
 Alpha virt. eigenvalues --    2.97394   2.97980   2.98637   2.99044   2.99520
 Alpha virt. eigenvalues --    2.99792   3.00161   3.00544   3.00671   3.00878
 Alpha virt. eigenvalues --    3.01267   3.01766   3.02418   3.03092   3.03311
 Alpha virt. eigenvalues --    3.03641   3.03732   3.03943   3.04287   3.04468
 Alpha virt. eigenvalues --    3.04549   3.04645   3.05006   3.05317   3.05676
 Alpha virt. eigenvalues --    3.05878   3.06234   3.06515   3.06724   3.06838
 Alpha virt. eigenvalues --    3.07036   3.07315   3.07400   3.07494   3.07924
 Alpha virt. eigenvalues --    3.08112   3.08956   3.09080   3.09262   3.09534
 Alpha virt. eigenvalues --    3.09683   3.09825   3.09978   3.10087   3.10512
 Alpha virt. eigenvalues --    3.10879   3.11227   3.11413   3.11709   3.12054
 Alpha virt. eigenvalues --    3.12133   3.12427   3.12710   3.12824   3.13170
 Alpha virt. eigenvalues --    3.13521   3.13704   3.14306   3.14590   3.14895
 Alpha virt. eigenvalues --    3.15077   3.15870   3.16054   3.16307   3.16611
 Alpha virt. eigenvalues --    3.16895   3.17014   3.17054   3.17468   3.17545
 Alpha virt. eigenvalues --    3.17967   3.18027   3.18639   3.19123   3.19340
 Alpha virt. eigenvalues --    3.19529   3.20072   3.20392   3.20574   3.20840
 Alpha virt. eigenvalues --    3.21148   3.21566   3.21687   3.21781   3.22017
 Alpha virt. eigenvalues --    3.22099   3.22304   3.23197   3.23615   3.23788
 Alpha virt. eigenvalues --    3.24242   3.24588   3.24877   3.25135   3.25595
 Alpha virt. eigenvalues --    3.25856   3.25975   3.26129   3.26357   3.26666
 Alpha virt. eigenvalues --    3.26883   3.27051   3.27454   3.27736   3.27903
 Alpha virt. eigenvalues --    3.28328   3.28844   3.28864   3.28954   3.29220
 Alpha virt. eigenvalues --    3.29564   3.29966   3.30356   3.30849   3.30964
 Alpha virt. eigenvalues --    3.31175   3.31361   3.31616   3.31860   3.32193
 Alpha virt. eigenvalues --    3.32362   3.32686   3.32955   3.33149   3.33501
 Alpha virt. eigenvalues --    3.33657   3.34011   3.34247   3.34564   3.34810
 Alpha virt. eigenvalues --    3.35385   3.35470   3.35723   3.36103   3.36484
 Alpha virt. eigenvalues --    3.36574   3.37044   3.37123   3.37306   3.37453
 Alpha virt. eigenvalues --    3.37739   3.38054   3.38236   3.38342   3.38740
 Alpha virt. eigenvalues --    3.38882   3.39190   3.39292   3.39414   3.39687
 Alpha virt. eigenvalues --    3.39942   3.39980   3.40400   3.40562   3.40661
 Alpha virt. eigenvalues --    3.40758   3.40913   3.41129   3.41338   3.41545
 Alpha virt. eigenvalues --    3.41701   3.42065   3.42279   3.42586   3.42777
 Alpha virt. eigenvalues --    3.42996   3.43264   3.44008   3.44281   3.44529
 Alpha virt. eigenvalues --    3.44786   3.45190   3.45220   3.45363   3.45821
 Alpha virt. eigenvalues --    3.46149   3.46581   3.46743   3.47048   3.47450
 Alpha virt. eigenvalues --    3.48014   3.48121   3.48942   3.49203   3.49724
 Alpha virt. eigenvalues --    3.49802   3.49952   3.50568   3.50828   3.51160
 Alpha virt. eigenvalues --    3.51620   3.51944   3.52501   3.53157   3.53650
 Alpha virt. eigenvalues --    3.54670   3.55726   3.55982   3.56445   3.57014
 Alpha virt. eigenvalues --    3.57756   3.58641   3.58950   3.59000   3.59703
 Alpha virt. eigenvalues --    3.59868   3.60278   3.60763   3.61087   3.61282
 Alpha virt. eigenvalues --    3.61674   3.62099   3.62300   3.63010   3.63586
 Alpha virt. eigenvalues --    3.63912   3.63952   3.64833   3.65149   3.65643
 Alpha virt. eigenvalues --    3.65954   3.66377   3.66921   3.67413   3.67696
 Alpha virt. eigenvalues --    3.68004   3.68605   3.69607   3.69677   3.69849
 Alpha virt. eigenvalues --    3.70171   3.71398   3.71590   3.72166   3.72466
 Alpha virt. eigenvalues --    3.72723   3.73609   3.74468   3.74945   3.76373
 Alpha virt. eigenvalues --    3.77556   3.80206   3.81200   3.81776   3.82331
 Alpha virt. eigenvalues --    3.82930   3.83053   3.83272   3.83635   3.84000
 Alpha virt. eigenvalues --    3.85112   3.85642   3.85889   3.86849   3.86974
 Alpha virt. eigenvalues --    3.87333   3.87366   3.88027   3.88189   3.89032
 Alpha virt. eigenvalues --    3.89445   3.90029   3.90406   3.91265   3.91664
 Alpha virt. eigenvalues --    3.92256   3.92940   3.93284   3.93399   3.93729
 Alpha virt. eigenvalues --    3.93752   3.94261   3.94383   3.94971   3.95433
 Alpha virt. eigenvalues --    3.95943   3.96112   3.96288   3.96680   3.97051
 Alpha virt. eigenvalues --    3.97547   3.97834   3.98228   3.98754   3.98988
 Alpha virt. eigenvalues --    3.99607   3.99783   3.99849   4.00134   4.00336
 Alpha virt. eigenvalues --    4.00505   4.00995   4.01528   4.02026   4.03079
 Alpha virt. eigenvalues --    4.03813   4.04463   4.04670   4.05474   4.05710
 Alpha virt. eigenvalues --    4.06057   4.06343   4.06617   4.07730   4.07955
 Alpha virt. eigenvalues --    4.08278   4.08979   4.09726   4.09908   4.10040
 Alpha virt. eigenvalues --    4.10302   4.10569   4.10852   4.11116   4.11584
 Alpha virt. eigenvalues --    4.11881   4.12102   4.12358   4.12637   4.13552
 Alpha virt. eigenvalues --    4.13729   4.14099   4.14248   4.14566   4.14741
 Alpha virt. eigenvalues --    4.15183   4.15271   4.15597   4.15837   4.15963
 Alpha virt. eigenvalues --    4.16655   4.17076   4.17398   4.17785   4.18201
 Alpha virt. eigenvalues --    4.18342   4.19038   4.19329   4.19808   4.19973
 Alpha virt. eigenvalues --    4.20789   4.21131   4.21317   4.21687   4.22086
 Alpha virt. eigenvalues --    4.22391   4.22851   4.22964   4.23250   4.23902
 Alpha virt. eigenvalues --    4.24120   4.24573   4.25171   4.25591   4.25794
 Alpha virt. eigenvalues --    4.26114   4.26281   4.27161   4.28091   4.29593
 Alpha virt. eigenvalues --    4.30124   4.31212   4.31953   4.32863   4.33851
 Alpha virt. eigenvalues --    4.35963   4.36347   4.36974   4.38114   4.40063
 Alpha virt. eigenvalues --    4.42167   4.43253   4.43809   4.44732   4.46953
 Alpha virt. eigenvalues --    4.47522   4.48097   4.49239   4.49689   4.50175
 Alpha virt. eigenvalues --    4.51589   4.51837   4.52756   4.52936   4.53687
 Alpha virt. eigenvalues --    4.53914   4.54498   4.54604   4.55441   4.55556
 Alpha virt. eigenvalues --    4.56442   4.57134   4.57296   4.58707   4.59152
 Alpha virt. eigenvalues --    4.60564   4.61047   4.61912   4.62226   4.62534
 Alpha virt. eigenvalues --    4.62601   4.63067   4.63176   4.64058   4.64398
 Alpha virt. eigenvalues --    4.64942   4.65283   4.65649   4.66700   4.67453
 Alpha virt. eigenvalues --    4.67577   4.68295   4.68607   4.69884   4.72055
 Alpha virt. eigenvalues --    4.72749   4.74924   4.75914   4.76105   4.76744
 Alpha virt. eigenvalues --    4.76890   4.77164   4.78636   4.79203   4.79719
 Alpha virt. eigenvalues --    4.80511   4.81015   4.81746   4.83171   4.83808
 Alpha virt. eigenvalues --    4.84276   4.85335   4.85518   4.85665   4.86226
 Alpha virt. eigenvalues --    4.86743   4.88190   4.89892   4.92628   4.94028
 Alpha virt. eigenvalues --    4.94390   4.94800   4.97293   4.98102   4.98363
 Alpha virt. eigenvalues --    4.99464   5.00303   5.01010   5.01068   5.01514
 Alpha virt. eigenvalues --    5.01653   5.02527   5.06535   5.07272   5.07434
 Alpha virt. eigenvalues --    5.08159   5.09140   5.11036   5.11700   5.12587
 Alpha virt. eigenvalues --    5.13016   5.13406   5.14063   5.14460   5.15631
 Alpha virt. eigenvalues --    5.17216   5.17787   5.17982   5.18877   5.19883
 Alpha virt. eigenvalues --    5.20323   5.20866   5.21065   5.22122   5.22612
 Alpha virt. eigenvalues --    5.24247   5.24649   5.25611   5.26816   5.27550
 Alpha virt. eigenvalues --    5.29665   5.30509   5.31731   5.33962   5.35740
 Alpha virt. eigenvalues --    5.37722   5.38328   5.38989   5.42611   5.43565
 Alpha virt. eigenvalues --    5.44769   5.45738   5.47175   5.48071   5.48239
 Alpha virt. eigenvalues --    5.48750   5.49478   5.49955   5.53316   5.55170
 Alpha virt. eigenvalues --    5.55542   5.56662   5.62698   5.63550   5.65028
 Alpha virt. eigenvalues --    5.65853   5.66140   5.68806   5.70112   5.70746
 Alpha virt. eigenvalues --    5.72305   5.76328   5.81574   5.83684   5.85476
 Alpha virt. eigenvalues --    5.87599   5.89256   5.92353   5.93630   5.93974
 Alpha virt. eigenvalues --    5.94706   5.96919   6.00934   6.03008   6.05332
 Alpha virt. eigenvalues --    6.06652   6.08699   6.26852   6.32541   6.72854
 Alpha virt. eigenvalues --    6.75649   6.83540   6.96270   7.08877   7.30288
 Alpha virt. eigenvalues --    7.46142   8.25473   8.43504   8.61749   8.90258
 Alpha virt. eigenvalues --    8.92785  21.92599  21.92858  21.94464  21.98555
 Alpha virt. eigenvalues --   22.00838  22.01877  22.30239  22.30851  22.31308
 Alpha virt. eigenvalues --   22.31611  22.31705  22.32100  22.32434  22.32763
 Alpha virt. eigenvalues --   22.33060  22.33291  22.33588  22.33882  22.39007
 Alpha virt. eigenvalues --   22.49179  22.49338  22.50417  22.50534  22.51201
 Alpha virt. eigenvalues --   22.52338  22.53730  22.54450  22.55312  22.56881
 Alpha virt. eigenvalues --   22.57746  22.58531  22.78077  22.81134  22.85391
 Alpha virt. eigenvalues --   22.87888  22.89493  22.91526  22.92446  22.95200
 Alpha virt. eigenvalues --   22.96574  23.00554  23.26807  23.49216  23.59747
 Alpha virt. eigenvalues --   31.96756  31.97994  32.96160  32.97176  33.00196
 Alpha virt. eigenvalues --   57.12771
          Condensed to atoms (all electrons):
 Mulliken charges:
               1
     1  C   -0.173802
     2  C    0.405398
     3  C   -0.255634
     4  C    0.237152
     5  C   -0.300885
     6  C    0.178404
     7  C   -0.244565
     8  C   -0.206469
     9  F   -0.163612
    10  N   -0.002931
    11  N   -0.011221
    12  N    0.221264
    13  C    0.097340
    14  C    0.084063
    15  C   -0.204037
    16  C   -0.243048
    17  C   -0.192765
    18  C   -0.241549
    19  C   -0.156135
    20  H    0.154416
    21  C   -0.116420
    22  H    0.148499
    23  C   -0.158748
    24  H    0.155968
    25  C   -0.126910
    26  H    0.149583
    27  C   -0.151907
    28  H    0.142815
    29  H    0.144513
    30  C   -0.147526
    31  H    0.142915
    32  H    0.144771
    33  H    0.143402
    34  H    0.144050
    35  N    0.243054
    36  C    0.042926
    37  C    0.103355
    38  C   -0.178014
    39  C   -0.213856
    40  C   -0.195275
    41  C   -0.236455
    42  C   -0.158004
    43  H    0.156788
    44  C   -0.133222
    45  H    0.150880
    46  C   -0.155122
    47  H    0.155630
    48  C   -0.129830
    49  H    0.151880
    50  C   -0.136749
    51  H    0.143948
    52  H    0.145911
    53  C   -0.145411
    54  H    0.144096
    55  H    0.145377
    56  H    0.145494
    57  H    0.144589
    58  N    0.247770
    59  C    0.043249
    60  C    0.093521
    61  C   -0.170439
    62  C   -0.213705
    63  C   -0.187311
    64  C   -0.235667
    65  C   -0.153831
    66  H    0.150853
    67  C   -0.128081
    68  H    0.150690
    69  C   -0.151348
    70  H    0.156093
    71  C   -0.127715
    72  H    0.151937
    73  C   -0.138554
    74  H    0.143190
    75  H    0.146082
    76  C   -0.144907
    77  H    0.143469
    78  H    0.145792
    79  H    0.145426
    80  H    0.145110
 Sum of Mulliken charges =  -0.00000
 Mulliken charges with hydrogens summed into heavy atoms:
               1
     1  C   -0.173802
     2  C    0.405398
     3  C   -0.255634
     4  C    0.237152
     5  C   -0.300885
     6  C    0.178404
     7  C   -0.244565
     8  C   -0.206469
     9  F   -0.163612
    10  N   -0.002931
    11  N   -0.011221
    12  N    0.221264
    13  C    0.097340
    14  C    0.084063
    15  C   -0.049620
    16  C   -0.094549
    17  C   -0.036797
    18  C   -0.091966
    19  C   -0.013319
    21  C    0.028093
    23  C   -0.015833
    25  C    0.017861
    27  C   -0.008506
    30  C   -0.003476
    35  N    0.243054
    36  C    0.042926
    37  C    0.103355
    38  C   -0.021226
    39  C   -0.062976
    40  C   -0.039644
    41  C   -0.084575
    42  C   -0.014056
    44  C    0.012689
    46  C   -0.011027
    48  C    0.015547
    50  C    0.008746
    53  C   -0.000822
    58  N    0.247770
    59  C    0.043249
    60  C    0.093521
    61  C   -0.019586
    62  C   -0.063016
    63  C   -0.031219
    64  C   -0.083730
    65  C   -0.010641
    67  C    0.018000
    69  C   -0.007879
    71  C    0.018077
    73  C    0.006872
    76  C    0.000203
 Electronic spatial extent (au):  <R**2>=          26210.5548
 Charge=              0.0000 electrons
 Dipole moment (field-independent basis, Debye):
    X=             -4.6465    Y=              3.0789    Z=             -2.0512  Tot=              5.9395
 Quadrupole moment (field-independent basis, Debye-Ang):
   XX=           -268.6259   YY=           -291.1115   ZZ=           -260.9892
   XY=             -6.6329   XZ=            -18.2942   YZ=             -4.1583
 Traceless Quadrupole moment (field-independent basis, Debye-Ang):
   XX=              4.9497   YY=            -17.5360   ZZ=             12.5863
   XY=             -6.6329   XZ=            -18.2942   YZ=             -4.1583
 Octapole moment (field-independent basis, Debye-Ang**2):
  XXX=            -89.9513  YYY=            168.4867  ZZZ=            -16.8157  XYY=            -48.2845
  XXY=            -23.8983  XXZ=            -19.3000  XZZ=            -17.7145  YZZ=            -40.6252
  YYZ=            -28.5832  XYZ=            -85.6095
 Hexadecapole moment (field-independent basis, Debye-Ang**3):
 XXXX=         -14883.1908 YYYY=         -14348.0269 ZZZZ=          -5101.3167 XXXY=           -187.4546
 XXXZ=           -348.4316 YYYX=              9.0060 YYYZ=             -6.8637 ZZZX=           -234.8743
 ZZZY=            -31.8871 XXYY=          -4835.5416 XXZZ=          -3470.7003 YYZZ=          -3176.7429
 XXYZ=            -83.4395 YYXZ=             85.9140 ZZXY=            -38.5073
 N-N= 6.256855068840D+03 E-N=-1.732240459606D+04  KE= 2.056962059928D+03
 Leave Link  601 at Fri Jul  1 17:57:58 2022, MaxMem=  5242880000 cpu:        14.2
 (Enter /opt/nce/packages/global/g09/l9999.exe)
 1\1\GINC-CN058\SP\RPBEPBE TD-FC\def2TZVP\C44H30F1N5\PNG4RJV\01-Jul-202
 2\0\\#p PBEPBE/def2TZVP td=(NStates=50) int=ultrafine scrf=(SMD,solven
 t=Acetonitrile) EmpiricalDispersion=GD3BJ\\Title\\0,1\C,0,-0.125371,1.
 396397,0.018102\C,0,-1.225054,0.585519,-0.292793\C,0,-1.185189,-0.8142
 75,-0.267137\C,0,0.064575,-1.442897,0.009987\C,0,1.206762,-0.664167,0.
 304903\C,0,1.0932,0.742748,0.359172\C,0,0.168148,-2.855499,-0.006699\C
 ,0,2.17514,1.496975,0.877521\F,0,-2.361594,1.18041,-0.710012\N,0,0.261
 854,-4.019438,-0.013324\N,0,3.055817,2.103247,1.346871\N,0,2.443118,-1
 .27287,0.589822\C,0,3.579933,-0.877802,-0.16582\C,0,2.535641,-2.218467
 ,1.645319\C,0,3.429804,-0.560303,-1.52524\C,0,4.844835,-0.77267,0.4331
 68\C,0,1.744822,-2.058299,2.793568\C,0,3.397291,-3.321973,1.546311\C,0
 ,4.528851,-0.128479,-2.267969\H,0,2.450713,-0.653226,-1.997967\C,0,5.9
 40136,-0.360768,-0.32401\H,0,4.964206,-0.999654,1.492839\C,0,1.809317,
 -2.998064,3.822636\H,0,1.079825,-1.197057,2.876961\C,0,3.467184,-4.244
 451,2.588455\H,0,4.000539,-3.460464,0.648633\C,0,5.790572,-0.030273,-1
 .675288\H,0,4.396247,0.119453,-3.322855\H,0,6.917754,-0.278189,0.15485
 9\C,0,2.672941,-4.09275,3.730392\H,0,1.187255,-2.862511,4.709429\H,0,4
 .138298,-5.100758,2.498233\H,0,6.650354,0.301043,-2.259692\H,0,2.72702
 8,-4.822442,4.539762\N,0,-2.334131,-1.546306,-0.575597\C,0,-2.288482,-
 2.558492,-1.575259\C,0,-3.554765,-1.207097,0.070051\C,0,-1.513278,-2.3
 6388,-2.727175\C,0,-3.006975,-3.7513,-1.410081\C,0,-3.537638,-0.806373
 ,1.414894\C,0,-4.771614,-1.250469,-0.627156\C,0,-1.444268,-3.365515,-3
 .695995\H,0,-0.966973,-1.428337,-2.86025\C,0,-2.945249,-4.737754,-2.39
 232\H,0,-3.599357,-3.906,-0.507629\C,0,-4.724373,-0.434453,2.046542\H,
 0,-2.594533,-0.790689,1.963774\C,0,-5.954018,-0.896429,0.020533\H,0,-4
 .786498,-1.550389,-1.675381\C,0,-2.160711,-4.554529,-3.536528\H,0,-0.8
 35525,-3.206549,-4.587978\H,0,-3.502499,-5.666107,-2.2536\C,0,-5.93870
 2,-0.480953,1.356503\H,0,-4.697909,-0.119791,3.091497\H,0,-6.895224,-0
 .929788,-0.531507\H,0,-2.109365,-5.334021,-4.298305\H,0,-6.866764,-0.1
 96903,1.855037\N,0,-0.225593,2.784613,-0.021607\C,0,0.793038,3.546315,
 -0.664074\C,0,-1.350978,3.42337,0.570553\C,0,1.3791,3.065634,-1.843916
 \C,0,1.223126,4.762637,-0.115703\C,0,-1.88699,2.915866,1.763085\C,0,-1
 .936145,4.54459,-0.035848\C,0,2.403139,3.788534,-2.455837\H,0,1.032707
 ,2.126359,-2.277824\C,0,2.233177,5.486872,-0.746613\H,0,0.77625,5.1286
 74,0.809209\C,0,-3.011236,3.514722,2.331418\H,0,-1.419743,2.054296,2.2
 43016\C,0,-3.047318,5.147212,0.551666\H,0,-1.52614,4.934056,-0.968285\
 C,0,2.833213,5.002757,-1.914074\H,0,2.8572,3.402897,-3.370496\H,0,2.56
 6543,6.430219,-0.310192\C,0,-3.594836,4.634511,1.732833\H,0,-3.423722,
 3.107857,3.256572\H,0,-3.499045,6.017164,0.071392\H,0,3.630757,5.56898
 9,-2.397583\H,0,-4.470003,5.105794,2.182829\\Version=ES64L-G09RevE.01\
 State=1-A\HF=-2066.6644281\RMSD=3.611e-09\PG=C01 [X(C44H30F1N5)]\\@


 Experience is what you get when you don't get what you want.
 -- Dan Stanford
 Job cpu time:       5 days 23 hours 14 minutes  4.2 seconds.
 File lengths (MBytes):  RWF=  18537 Int=      0 D2E=      0 Chk=   4174 Scr=      1
 Normal termination of Gaussian 09 at Fri Jul  1 17:58:04 2022.
