
                                 *****************
                                 * O   R   C   A *
                                 *****************

                                            #,                                       
                                            ###                                      
                                            ####                                     
                                            #####                                    
                                            ######                                   
                                           ########,                                 
                                     ,,################,,,,,                         
                               ,,#################################,,                 
                          ,,##########################################,,             
                       ,#########################################, ''#####,          
                    ,#############################################,,   '####,        
                  ,##################################################,,,,####,       
                ,###########''''           ''''###############################       
              ,#####''   ,,,,##########,,,,          '''####'''          '####       
            ,##' ,,,,###########################,,,                        '##       
           ' ,,###''''                  '''############,,,                           
         ,,##''                                '''############,,,,        ,,,,,,###''
      ,#''                                            '''#######################'''  
     '                                                          ''''####''''         
             ,#######,   #######,   ,#######,      ##                                
            ,#'     '#,  ##    ##  ,#'     '#,    #''#        ######   ,####,        
            ##       ##  ##   ,#'  ##            #'  '#       #        #'  '#        
            ##       ##  #######   ##           ,######,      #####,   #    #        
            '#,     ,#'  ##    ##  '#,     ,#' ,#      #,         ##   #,  ,#        
             '#######'   ##     ##  '#######'  #'      '#     #####' # '####'        



                  #######################################################
                  #                        -***-                        #
                  #          Department of theory and spectroscopy      #
                  #    Directorship and core code : Frank Neese         #
                  #        Max Planck Institute fuer Kohlenforschung    #
                  #                Kaiser Wilhelm Platz 1               #
                  #                 D-45470 Muelheim/Ruhr               #
                  #                      Germany                        #
                  #                                                     #
                  #                  All rights reserved                #
                  #                        -***-                        #
                  #######################################################


                         Program Version 5.0.2 -  RELEASE  -


 With contributions from (in alphabetic order):
   Daniel Aravena         : Magnetic Suceptibility
   Michael Atanasov       : Ab Initio Ligand Field Theory (pilot matlab implementation)
   Alexander A. Auer      : GIAO ZORA, VPT2 properties, NMR spectrum
   Ute Becker             : Parallelization
   Giovanni Bistoni       : ED, misc. LED, open-shell LED, HFLD
   Martin Brehm           : Molecular dynamics
   Dmytro Bykov           : SCF Hessian
   Vijay G. Chilkuri      : MRCI spin determinant printing, contributions to CSF-ICE
   Dipayan Datta          : RHF DLPNO-CCSD density
   Achintya Kumar Dutta   : EOM-CC, STEOM-CC
   Dmitry Ganyushin       : Spin-Orbit,Spin-Spin,Magnetic field MRCI
   Miquel Garcia          : C-PCM and meta-GGA Hessian, CC/C-PCM, Gaussian charge scheme
   Yang Guo               : DLPNO-NEVPT2, F12-NEVPT2, CIM, IAO-localization
   Andreas Hansen         : Spin unrestricted coupled pair/coupled cluster methods
   Benjamin Helmich-Paris : MC-RPA, TRAH-SCF, COSX integrals
   Lee Huntington         : MR-EOM, pCC
   Robert Izsak           : Overlap fitted RIJCOSX, COSX-SCS-MP3, EOM
   Marcus Kettner         : VPT2
   Christian Kollmar      : KDIIS, OOCD, Brueckner-CCSD(T), CCSD density, CASPT2, CASPT2-K
   Simone Kossmann        : Meta GGA functionals, TD-DFT gradient, OOMP2, MP2 Hessian
   Martin Krupicka        : Initial AUTO-CI
   Lucas Lang             : DCDCAS
   Marvin Lechner         : AUTO-CI (C++ implementation), FIC-MRCC
   Dagmar Lenk            : GEPOL surface, SMD
   Dimitrios Liakos       : Extrapolation schemes; Compound Job, initial MDCI parallelization
   Dimitrios Manganas     : Further ROCIS development; embedding schemes
   Dimitrios Pantazis     : SARC Basis sets
   Anastasios Papadopoulos: AUTO-CI, single reference methods and gradients
   Taras Petrenko         : DFT Hessian,TD-DFT gradient, ASA, ECA, R-Raman, ABS, FL, XAS/XES, NRVS
   Peter Pinski           : DLPNO-MP2, DLPNO-MP2 Gradient
   Christoph Reimann      : Effective Core Potentials
   Marius Retegan         : Local ZFS, SOC
   Christoph Riplinger    : Optimizer, TS searches, QM/MM, DLPNO-CCSD(T), (RO)-DLPNO pert. Triples
   Tobias Risthaus        : Range-separated hybrids, TD-DFT gradient, RPA, STAB
   Michael Roemelt        : Original ROCIS implementation
   Masaaki Saitow         : Open-shell DLPNO-CCSD energy and density
   Barbara Sandhoefer     : DKH picture change effects
   Avijit Sen             : IP-ROCIS
   Kantharuban Sivalingam : CASSCF convergence, NEVPT2, FIC-MRCI
   Bernardo de Souza      : ESD, SOC TD-DFT
   Georgi Stoychev        : AutoAux, RI-MP2 NMR, DLPNO-MP2 response
   Willem Van den Heuvel  : Paramagnetic NMR
   Boris Wezisla          : Elementary symmetry handling
   Frank Wennmohs         : Technical directorship


 We gratefully acknowledge several colleagues who have allowed us to
 interface, adapt or use parts of their codes:
   Stefan Grimme, W. Hujo, H. Kruse, P. Pracht,  : VdW corrections, initial TS optimization,
                  C. Bannwarth, S. Ehlert          DFT functionals, gCP, sTDA/sTD-DF
   Ed Valeev, F. Pavosevic, A. Kumar             : LibInt (2-el integral package), F12 methods
   Garnet Chan, S. Sharma, J. Yang, R. Olivares  : DMRG
   Ulf Ekstrom                                   : XCFun DFT Library
   Mihaly Kallay                                 : mrcc  (arbitrary order and MRCC methods)
   Jiri Pittner, Ondrej Demel                    : Mk-CCSD
   Frank Weinhold                                : gennbo (NPA and NBO analysis)
   Christopher J. Cramer and Donald G. Truhlar   : smd solvation model
   Lars Goerigk                                  : TD-DFT with DH, B97 family of functionals
   V. Asgeirsson, H. Jonsson                     : NEB implementation
   FAccTs GmbH                                   : IRC, NEB, NEB-TS, DLPNO-Multilevel, CI-OPT
                                                   MM, QMMM, 2- and 3-layer-ONIOM, Crystal-QMMM,
                                                   LR-CPCM, SF, NACMEs, symmetry and pop. for TD-DFT,
                                                   nearIR, NL-DFT gradient (VV10), updates on ESD,
                                                   ML-optimized integration grids
   S Lehtola, MJT Oliveira, MAL Marques          : LibXC Library
   Liviu Ungur et al                             : ANISO software


 Your calculation uses the libint2 library for the computation of 2-el integrals
 For citations please refer to: http://libint.valeyev.net

 Your ORCA version has been built with support for libXC version: 5.1.0
 For citations please refer to: https://tddft.org/programs/libxc/

 This ORCA versions uses:
   CBLAS   interface :  Fast vector & matrix operations
   LAPACKE interface :  Fast linear algebra routines
   SCALAPACK package :  Parallel linear algebra routines
   Shared memory     :  Shared parallel matrices
   BLAS/LAPACK       :  OpenBLAS 0.3.15  USE64BITINT DYNAMIC_ARCH NO_AFFINITY Zen SINGLE_THREADED
        Core in use  :  Zen
   Copyright (c) 2011-2014, The OpenBLAS Project


Your calculation utilizes the SMD solvation module
Please cite in your paper:
A.V. Marenich, C.J. Cramer, D.G. Truhlar J. Phys. Chem. B, 113, (2009), 6378 

================================================================================

----- Orbital basis set information -----
Your calculation utilizes the basis: def2-TZVP
   F. Weigend and R. Ahlrichs, Phys. Chem. Chem. Phys. 7, 3297 (2005).

----- AuxJ basis set information -----
Your calculation utilizes the auxiliary basis: def2/J
   F. Weigend, Phys. Chem. Chem. Phys. 8, 1057 (2006).

----- AuxC basis set information -----
Your calculation utilizes the auxiliary basis: def2-TZVP/C
  H-La, Hf-Rn : A. Hellweg, C. Hattig, S. Hofener and W. Klopper, Theor. Chem. Acc. 117, 587 (2007).
        Ce-Lu : J. Chmela and M. E. Harding, Mol. Phys. (2018).

================================================================================
                                        WARNINGS
                       Please study these warnings very carefully!
================================================================================

INFO   : Checking CIS options ...
  ===> : (D) CORRECTION FOUND - SETTING MODE=3
  ===> : JK MODE FOUND - ACTIVATING RI-MP2 CODE
  ===> : MP2 AND CIS FOUND - CHECKING
WARNING: CIS(D) and MP2 runs must have the same orbital window
  ===> : adjusting orbital windows

WARNING: No MP2 level density has been requested!
         To caclulate MP2 level properties use
         %mp2 Density relaxed end
         or
         %mp2 Density unrelaxed end
         Otherwise for double-hybrid DFT only the energy is correct!

WARNING: The frozen-core approximation is turned on by default for 
         the MP2 part of double-hybrid DFT.

WARNING:  You are using a Range-Separated Double Hybrid functional with Doubles Correction 
          Changing Mode to RPA_AOINTS 


WARNING: CIS/ROCIS methods need fully converged wavefunctions
  ===> : Setting SCFConvForced true
         You can overwrite this default with %scf ConvForced false 


INFO   : the flag for use of the SHARK integral package has been found!

================================================================================
                                       INPUT FILE
================================================================================
NAME = CA_2b_M06L_def2TZVP_coords.inp
|  1> %maxcore 20000
|  2> %pal
|  3>  nprocs= 6
|  4> end
|  5> ! RI-wPBEPP86   def2-TZVP def2/J def2-TZVP/C RIJCOSX CPCM TightSCF
|  6> %TDDFT  
|  7>    NROOTS   60
|  8>    dcorr 1
|  9>    TDA      FALSE
| 10> END
| 11> 
| 12> %CPCM
| 13>    SMD          TRUE 
| 14>    SMDsolvent   "ACETONITRILE" 
| 15>  END 
| 16>  
| 17> 
| 18> * xyz 0 1
| 19> C                  -0.09813300    1.39242200    0.01340000
| 20> C                  -1.20637900    0.60874400   -0.29352100
| 21> C                  -1.19524300   -0.78207400   -0.27236200
| 22> C                   0.03211700   -1.43179700    0.00936000
| 23> C                   1.18254600   -0.68059500    0.30053400
| 24> C                   1.10095000    0.71991200    0.34893500
| 25> C                   0.10905800   -2.84191600    0.00152300
| 26> C                   2.20820800    1.44917600    0.83684900
| 27> F                  -2.32243000    1.22148900   -0.69634000
| 28> N                   0.18172800   -3.99861900    0.00279700
| 29> N                   3.11213500    2.03242400    1.26805200
| 30> N                   2.40257400   -1.31501700    0.58267100
| 31> C                   3.54736000   -0.93505600   -0.15925700
| 32> C                   2.47202700   -2.26177900    1.63312100
| 33> C                   3.41016000   -0.56535400   -1.49760300
| 34> C                   4.80666700   -0.88523200    0.43791100
| 35> C                   1.67530700   -2.10006700    2.76587800
| 36> C                   3.30954700   -3.37277600    1.53715400
| 37> C                   4.51316200   -0.13516200   -2.21728600
| 38> H                   2.43702300   -0.61638900   -1.97148600
| 39> C                   5.90440100   -0.47135100   -0.29617700
| 40> H                   4.91794500   -1.15275100    1.48064200
| 41> C                   1.70763900   -3.04523900    3.77860500
| 42> H                   1.02969900   -1.23392500    2.84858600
| 43> C                   3.34553300   -4.30174200    2.56190900
| 44> H                   3.91866800   -3.51091500    0.65322400
| 45> C                   5.76637200   -0.08683400   -1.62395500
| 46> H                   4.38942700    0.15208700   -3.25410100
| 47> H                   6.87487800   -0.43099800    0.18245000
| 48> C                   2.54325600   -4.14863000    3.68589500
| 49> H                   1.08216200   -2.90774000    4.65167500
| 50> H                   3.99637400   -5.16250000    2.47269900
| 51> H                   6.62742400    0.24434000   -2.18951600
| 52> H                   2.57091600   -4.88227700    4.48085000
| 53> N                  -2.35461600   -1.48622000   -0.58604000
| 54> C                  -2.31584000   -2.51804500   -1.55954300
| 55> C                  -3.57137900   -1.12006900    0.04154900
| 56> C                  -1.50701900   -2.37888600   -2.68521200
| 57> C                  -3.06545300   -3.67977300   -1.38688900
| 58> C                  -3.56216100   -0.67398200    1.36251700
| 59> C                  -4.77810200   -1.18220100   -0.65382800
| 60> C                  -1.43563900   -3.40256300   -3.61632400
| 61> H                  -0.93421300   -1.46968200   -2.82465500
| 62> C                  -2.99855800   -4.68925100   -2.33086700
| 63> H                  -3.68574500   -3.79106700   -0.50680900
| 64> C                  -4.74379600   -0.28414300    1.97131600
| 65> H                  -2.62844600   -0.63768700    1.91099700
| 66> C                  -5.95480100   -0.80638400   -0.02939600
| 67> H                  -4.78865300   -1.51533000   -1.68337700
| 68> C                  -2.18018800   -4.56065900   -3.44620000
| 69> H                  -0.80179000   -3.28570600   -4.48622600
| 70> H                  -3.57954700   -5.59114600   -2.18485000
| 71> C                  -5.94648400   -0.35120600    1.28278700
| 72> H                  -4.72219800    0.06114700    2.99744800
| 73> H                  -6.88524500   -0.85588300   -0.58096000
| 74> H                  -2.12586800   -5.35662500   -4.17733100
| 75> H                  -6.86900700   -0.05323500    1.76357000
| 76> N                  -0.17654800    2.77809700   -0.02664800
| 77> C                   0.85731900    3.52236800   -0.65521300
| 78> C                  -1.28859700    3.43307200    0.56225100
| 79> C                   1.46649000    3.02592900   -1.80608100
| 80> C                   1.28606100    4.73255100   -0.11468100
| 81> C                  -1.85516300    2.92207900    1.72844200
| 82> C                  -1.83117100    4.57461600   -0.02474200
| 83> C                   2.50727300    3.72558000   -2.39474400
| 84> H                   1.12482800    2.09134900   -2.23419700
| 85> C                   2.31513300    5.43169000   -0.72110600
| 86> H                   0.82204500    5.11235400    0.78639000
| 87> C                  -2.95931500    3.54115700    2.29096900
| 88> H                  -1.42557100    2.04255400    2.19312000
| 89> C                  -2.92451700    5.19430400    0.55527800
| 90> H                  -1.39963600    4.96699800   -0.93645900
| 91> C                   2.93594500    4.93123000   -1.85846700
| 92> H                   2.97500800    3.32907900   -3.28717600
| 93> H                   2.64520400    6.36837200   -0.28997600
| 94> C                  -3.49782600    4.68107700    1.71163900
| 95> H                  -3.39081900    3.13471700    3.19710400
| 96> H                  -3.34016700    6.07894600    0.08956200
| 97> H                   3.74567900    5.47816800   -2.32338400
| 98> H                  -4.35599900    5.16686100    2.15721800
| 99> *
|100> 
|101> 
|102>                          ****END OF INPUT****
================================================================================

                       ****************************
                       * Single Point Calculation *
                       ****************************

---------------------------------
CARTESIAN COORDINATES (ANGSTROEM)
---------------------------------
  C     -0.098133    1.392422    0.013400
  C     -1.206379    0.608744   -0.293521
  C     -1.195243   -0.782074   -0.272362
  C      0.032117   -1.431797    0.009360
  C      1.182546   -0.680595    0.300534
  C      1.100950    0.719912    0.348935
  C      0.109058   -2.841916    0.001523
  C      2.208208    1.449176    0.836849
  F     -2.322430    1.221489   -0.696340
  N      0.181728   -3.998619    0.002797
  N      3.112135    2.032424    1.268052
  N      2.402574   -1.315017    0.582671
  C      3.547360   -0.935056   -0.159257
  C      2.472027   -2.261779    1.633121
  C      3.410160   -0.565354   -1.497603
  C      4.806667   -0.885232    0.437911
  C      1.675307   -2.100067    2.765878
  C      3.309547   -3.372776    1.537154
  C      4.513162   -0.135162   -2.217286
  H      2.437023   -0.616389   -1.971486
  C      5.904401   -0.471351   -0.296177
  H      4.917945   -1.152751    1.480642
  C      1.707639   -3.045239    3.778605
  H      1.029699   -1.233925    2.848586
  C      3.345533   -4.301742    2.561909
  H      3.918668   -3.510915    0.653224
  C      5.766372   -0.086834   -1.623955
  H      4.389427    0.152087   -3.254101
  H      6.874878   -0.430998    0.182450
  C      2.543256   -4.148630    3.685895
  H      1.082162   -2.907740    4.651675
  H      3.996374   -5.162500    2.472699
  H      6.627424    0.244340   -2.189516
  H      2.570916   -4.882277    4.480850
  N     -2.354616   -1.486220   -0.586040
  C     -2.315840   -2.518045   -1.559543
  C     -3.571379   -1.120069    0.041549
  C     -1.507019   -2.378886   -2.685212
  C     -3.065453   -3.679773   -1.386889
  C     -3.562161   -0.673982    1.362517
  C     -4.778102   -1.182201   -0.653828
  C     -1.435639   -3.402563   -3.616324
  H     -0.934213   -1.469682   -2.824655
  C     -2.998558   -4.689251   -2.330867
  H     -3.685745   -3.791067   -0.506809
  C     -4.743796   -0.284143    1.971316
  H     -2.628446   -0.637687    1.910997
  C     -5.954801   -0.806384   -0.029396
  H     -4.788653   -1.515330   -1.683377
  C     -2.180188   -4.560659   -3.446200
  H     -0.801790   -3.285706   -4.486226
  H     -3.579547   -5.591146   -2.184850
  C     -5.946484   -0.351206    1.282787
  H     -4.722198    0.061147    2.997448
  H     -6.885245   -0.855883   -0.580960
  H     -2.125868   -5.356625   -4.177331
  H     -6.869007   -0.053235    1.763570
  N     -0.176548    2.778097   -0.026648
  C      0.857319    3.522368   -0.655213
  C     -1.288597    3.433072    0.562251
  C      1.466490    3.025929   -1.806081
  C      1.286061    4.732551   -0.114681
  C     -1.855163    2.922079    1.728442
  C     -1.831171    4.574616   -0.024742
  C      2.507273    3.725580   -2.394744
  H      1.124828    2.091349   -2.234197
  C      2.315133    5.431690   -0.721106
  H      0.822045    5.112354    0.786390
  C     -2.959315    3.541157    2.290969
  H     -1.425571    2.042554    2.193120
  C     -2.924517    5.194304    0.555278
  H     -1.399636    4.966998   -0.936459
  C      2.935945    4.931230   -1.858467
  H      2.975008    3.329079   -3.287176
  H      2.645204    6.368372   -0.289976
  C     -3.497826    4.681077    1.711639
  H     -3.390819    3.134717    3.197104
  H     -3.340167    6.078946    0.089562
  H      3.745679    5.478168   -2.323384
  H     -4.355999    5.166861    2.157218

----------------------------
CARTESIAN COORDINATES (A.U.)
----------------------------
  NO LB      ZA    FRAG     MASS         X           Y           Z
   0 C     6.0000    0    12.011   -0.185444    2.631296    0.025322
   1 C     6.0000    0    12.011   -2.279726    1.150359   -0.554674
   2 C     6.0000    0    12.011   -2.258682   -1.477906   -0.514690
   3 C     6.0000    0    12.011    0.060692   -2.705704    0.017688
   4 C     6.0000    0    12.011    2.234688   -1.286138    0.567927
   5 C     6.0000    0    12.011    2.080494    1.360437    0.659392
   6 C     6.0000    0    12.011    0.206090   -5.370443    0.002878
   7 C     6.0000    0    12.011    4.172908    2.738546    1.581415
   8 F     9.0000    0    18.998   -4.388757    2.308280   -1.315892
   9 N     7.0000    0    14.007    0.343416   -7.556295    0.005286
  10 N     7.0000    0    14.007    5.881083    3.840725    2.396271
  11 N     7.0000    0    14.007    4.540207   -2.485022    1.101089
  12 C     6.0000    0    12.011    6.703539   -1.767000   -0.300952
  13 C     6.0000    0    12.011    4.671454   -4.274143    3.086151
  14 C     6.0000    0    12.011    6.444268   -1.068364   -2.830060
  15 C     6.0000    0    12.011    9.083284   -1.672846    0.827532
  16 C     6.0000    0    12.011    3.165871   -3.968551    5.226752
  17 C     6.0000    0    12.011    6.254137   -6.373623    2.904800
  18 C     6.0000    0    12.011    8.528640   -0.255419   -4.190063
  19 H     1.0000    0     1.008    4.605306   -1.164806   -3.725569
  20 C     6.0000    0    12.011   11.157701   -0.890724   -0.559693
  21 H     1.0000    0     1.008    9.293569   -2.178384    2.798008
  22 C     6.0000    0    12.011    3.226970   -5.754668    7.140529
  23 H     1.0000    0     1.008    1.945849   -2.331780    5.383047
  24 C     6.0000    0    12.011    6.322141   -8.129114    4.841306
  25 H     1.0000    0     1.008    7.405209   -6.634668    1.234414
  26 C     6.0000    0    12.011   10.896864   -0.164092   -3.068830
  27 H     1.0000    0     1.008    8.294815    0.287403   -6.149360
  28 H     1.0000    0     1.008   12.991637   -0.814468    0.344781
  29 C     6.0000    0    12.011    4.806057   -7.839775    6.965332
  30 H     1.0000    0     1.008    2.044990   -5.494832    8.790392
  31 H     1.0000    0     1.008    7.552052   -9.755711    4.672724
  32 H     1.0000    0     1.008   12.524016    0.461736   -4.137586
  33 H     1.0000    0     1.008    4.858327   -9.226166    8.467579
  34 N     7.0000    0    14.007   -4.449579   -2.808549   -1.107455
  35 C     6.0000    0    12.011   -4.376303   -4.758415   -2.947109
  36 C     6.0000    0    12.011   -6.748928   -2.116624    0.078516
  37 C     6.0000    0    12.011   -2.847853   -4.495443   -5.074315
  38 C     6.0000    0    12.011   -5.792867   -6.953763   -2.620840
  39 C     6.0000    0    12.011   -6.731509   -1.273641    2.574784
  40 C     6.0000    0    12.011   -9.029304   -2.234036   -1.235556
  41 C     6.0000    0    12.011   -2.712965   -6.429912   -6.833862
  42 H     1.0000    0     1.008   -1.765407   -2.777296   -5.337824
  43 C     6.0000    0    12.011   -5.666453   -8.861400   -4.404700
  44 H     1.0000    0     1.008   -6.965049   -7.164078   -0.957730
  45 C     6.0000    0    12.011   -8.964475   -0.536952    3.725247
  46 H     1.0000    0     1.008   -4.967043   -1.205054    3.611261
  47 C     6.0000    0    12.011  -11.252943   -1.523845   -0.055550
  48 H     1.0000    0     1.008   -9.049243   -2.863559   -3.181122
  49 C     6.0000    0    12.011   -4.119958   -8.618397   -6.512374
  50 H     1.0000    0     1.008   -1.515164   -6.209084   -8.477739
  51 H     1.0000    0     1.008   -6.764364  -10.565735   -4.128768
  52 C     6.0000    0    12.011  -11.237226   -0.663683    2.424116
  53 H     1.0000    0     1.008   -8.923661    0.115551    5.664356
  54 H     1.0000    0     1.008  -13.011227   -1.617384   -1.097855
  55 H     1.0000    0     1.008   -4.017308  -10.122554   -7.894012
  56 H     1.0000    0     1.008  -12.980542   -0.100600    3.332664
  57 N     7.0000    0    14.007   -0.333627    5.249843   -0.050357
  58 C     6.0000    0    12.011    1.620098    6.656311   -1.238173
  59 C     6.0000    0    12.011   -2.435095    6.487566    1.062500
  60 C     6.0000    0    12.011    2.771264    5.718177   -3.412998
  61 C     6.0000    0    12.011    2.430303    8.943225   -0.216716
  62 C     6.0000    0    12.011   -3.505750    5.521929    3.266282
  63 C     6.0000    0    12.011   -3.460412    8.644771   -0.046756
  64 C     6.0000    0    12.011    4.738059    7.040326   -4.525410
  65 H     1.0000    0     1.008    2.125617    3.952077   -4.222020
  66 C     6.0000    0    12.011    4.374967   10.264407   -1.362693
  67 H     1.0000    0     1.008    1.553440    9.660949    1.486062
  68 C     6.0000    0    12.011   -5.592295    6.691817    4.329304
  69 H     1.0000    0     1.008   -2.693939    3.859868    4.144396
  70 C     6.0000    0    12.011   -5.526536    9.815812    1.049323
  71 H     1.0000    0     1.008   -2.644929    9.386266   -1.769651
  72 C     6.0000    0    12.011    5.548132    9.318674   -3.511994
  73 H     1.0000    0     1.008    5.621950    6.291048   -6.211862
  74 H     1.0000    0     1.008    4.998711   12.034479   -0.547975
  75 C     6.0000    0    12.011   -6.609933    8.845954    3.234529
  76 H     1.0000    0     1.008   -6.407719    5.923757    6.041651
  77 H     1.0000    0     1.008   -6.312001   11.487543    0.169248
  78 H     1.0000    0     1.008    7.078307   10.352237   -4.390559
  79 H     1.0000    0     1.008   -8.231645    9.763952    4.076551

--------------------------------
INTERNAL COORDINATES (ANGSTROEM)
--------------------------------
 C      0   0   0     0.000000000000     0.00000000     0.00000000
 C      1   0   0     1.391603716739     0.00000000     0.00000000
 C      2   1   0     1.391023516300   123.59602979     0.00000000
 C      3   2   1     1.417010879144   117.93095326   356.57506396
 C      4   3   2     1.404483402223   120.36179262     2.09469008
 C      5   4   3     1.403716645576   119.54926138     1.82843558
 C      4   3   2     1.412238269631   120.25935980   182.01268448
 C      6   5   4     1.412765490680   118.77463341   170.60136676
 F      2   1   3     1.335398598317   118.27472528   183.54393453
 N      7   4   3     1.158984202733   179.39366691   205.42313830
 N      8   6   5     1.158964312670   178.28593535   296.16194472
 N      5   4   3     1.403766676352   120.78649022   179.91360981
 C     12   5   4     1.416108224855   118.42633167   126.88065436
 C     12   5   4     1.415848581718   119.60106748   303.88853514
 C     13  12   5     1.395232390865   119.61446555   325.92002212
 C     13  12   5     1.394613269494   121.01190893   143.95739268
 C     14  12   5     1.394292634418   119.81295533   326.80975629
 C     14  12   5     1.394619571603   120.73735363   145.46857482
 C     15  13  12     1.385504308675   120.14883752   177.14691362
 H     15  13  12     1.083589077872   119.69138945   357.13857382
 C     16  13  12     1.383908453858   119.98707442   181.99416311
 H     16  13  12     1.082237102952   119.77401697     0.81927349
 C     17  14  12     1.385644775668   120.08808903   177.97146249
 H     17  14  12     1.083444630377   119.68529952   358.13622769
 C     18  14  12     1.383616865818   119.96795403   181.25949259
 H     18  14  12     1.082332213723   119.72557481     0.39775244
 C     19  15  13     1.387412186499   120.51555790     1.00397121
 H     19  15  13     1.082962456621   119.25521148   180.24406622
 H     21  16  13     1.082837835166   119.18209925   179.57633699
 C     23  17  14     1.387199557984   120.51552163     0.90290188
 H     23  17  14     1.082764368378   119.28970224   180.11736677
 H     25  18  14     1.082800427570   119.23135800   179.68960857
 H     27  19  15     1.082102587420   120.39111993   179.66414605
 H     30  23  17     1.082107410673   120.36927732   179.63755989
 N      3   2   1     1.392250419332   119.70883835   179.59472346
 C     35   3   2     1.419110460750   119.96944927   128.57867164
 C     35   3   2     1.417196777406   118.98085025   311.01140447
 C     36  35   3     1.393085544711   119.83769479   323.04491756
 C     36  35   3     1.393320135313   120.43312509   142.02072525
 C     37  35   3     1.394286570299   119.77107492   324.91475410
 C     37  35   3     1.394126951279   120.71446766   143.97451900
 C     38  36  35     1.385633162591   119.94007012   178.00077934
 H     38  36  35     1.083606468004   119.65042851   358.21055383
 C     39  36  35     1.383696223162   119.85069950   181.25519463
 H     39  36  35     1.082445992232   119.65513543     0.39975495
 C     40  37  35     1.385233533216   120.05165340   178.44996513
 H     40  37  35     1.083499579442   119.73617699   358.19605476
 C     41  37  35     1.384114979586   119.91664568   180.72461374
 H     41  37  35     1.082154054487   119.78205781     0.13263223
 C     42  38  36     1.387256909874   120.44330991     0.93866472
 H     42  38  36     1.082658580927   119.36312020   180.18210961
 H     44  39  36     1.082720542631   119.32498481   179.59265527
 C     46  40  37     1.387453802890   120.51233838     0.92810523
 H     46  40  37     1.082884360921   119.28675840   180.05749110
 H     48  41  37     1.082773768722   119.23016159   179.79682544
 H     50  42  38     1.082157601608   120.28081258   179.72208042
 H     53  46  40     1.082121848712   120.34406317   179.52304162
 N      1   2   3     1.388469646825   120.70888232   180.01346354
 C     58   1   2     1.420533088089   119.63960230   225.41957465
 C     58   1   2     1.418607507814   119.54265862    45.47363733
 C     59  58   1     1.393570285772   119.79653205    37.02955111
 C     59  58   1     1.393031743743   120.49548730   218.33511292
 C     60  58   1     1.393596902582   119.78761317    35.84198415
 C     60  58   1     1.393581727586   120.56717399   216.66413032
 C     61  59  58     1.385375365184   119.96043511   182.29751570
 H     61  59  58     1.083261744963   119.72583949     2.09049578
 C     62  59  58     1.384028830310   119.84578227   178.53187844
 H     62  59  58     1.082353968952   119.73133648   359.48571191
 C     63  60  58     1.385224109997   120.00076658   181.41815955
 H     63  60  58     1.083530874398   119.69113274     1.65801772
 C     64  60  58     1.384139405356   119.85258508   179.36459744
 H     64  60  58     1.082318796953   119.77231433   359.85179324
 C     65  61  59     1.387423737296   120.44678827   358.97763522
 H     65  61  59     1.082785273196   119.32781576   179.83341014
 H     67  62  59     1.082678673968   119.28993513   180.36612319
 C     69  63  60     1.387456288472   120.46372658   359.11519330
 H     69  63  60     1.082806452623   119.32252224   179.98901743
 H     71  64  60     1.082703922280   119.26194061   180.17864890
 H     73  65  61     1.082108193985   120.28819845   180.32320248
 H     76  69  63     1.082121822082   120.31136402   180.44800843

---------------------------
INTERNAL COORDINATES (A.U.)
---------------------------
 C      0   0   0     0.000000000000     0.00000000     0.00000000
 C      1   0   0     2.629749911583     0.00000000     0.00000000
 C      2   1   0     2.628653491652   123.59602979     0.00000000
 C      3   2   1     2.677762490370   117.93095326   356.57506396
 C      4   3   2     2.654088989840   120.36179262     2.09469008
 C      5   4   3     2.652640029764   119.54926138     1.82843558
 C      4   3   2     2.668743565446   120.25935980   182.01268448
 C      6   5   4     2.669739868840   118.77463341   170.60136676
 F      2   1   3     2.523537630441   118.27472528   183.54393453
 N      7   4   3     2.190162736707   179.39366691   205.42313830
 N      8   6   5     2.190125149934   178.28593535   296.16194472
 N      5   4   3     2.652734574231   120.78649022   179.91360981
 C     12   5   4     2.676056720969   118.42633167   126.88065436
 C     12   5   4     2.675566066548   119.60106748   303.88853514
 C     13  12   5     2.636607111912   119.61446555   325.92002212
 C     13  12   5     2.635437142076   121.01190893   143.95739268
 C     14  12   5     2.634831229594   119.81295533   326.80975629
 C     14  12   5     2.635449051336   120.73735363   145.46857482
 C     15  13  12     2.618223700764   120.14883752   177.14691362
 H     15  13  12     2.047686598886   119.69138945   357.13857382
 C     16  13  12     2.615207972211   119.98707442   181.99416311
 H     16  13  12     2.045131736548   119.77401697     0.81927349
 C     17  14  12     2.618489144912   120.08808903   177.97146249
 H     17  14  12     2.047413632679   119.68529952   358.13622769
 C     18  14  12     2.614656950671   119.96795403   181.25949259
 H     18  14  12     2.045311469857   119.72557481     0.39775244
 C     19  15  13     2.621829067347   120.51555790     1.00397121
 H     19  15  13     2.046502456333   119.25521148   180.24406622
 H     21  16  13     2.046266955912   119.18209925   179.57633699
 C     23  17  14     2.621427257686   120.51552163     0.90290188
 H     23  17  14     2.046128123804   119.28970224   180.11736677
 H     25  18  14     2.046196265799   119.23135800   179.68960857
 H     27  19  15     2.044877539031   120.39111993   179.66414605
 H     30  23  17     2.044886653659   120.36927732   179.63755989
 N      3   2   1     2.630972002374   119.70883835   179.59472346
 C     35   3   2     2.681730124600   119.96944927   128.57867164
 C     35   3   2     2.678113787174   118.98085025   311.01140447
 C     36  35   3     2.632550160628   119.83769479   323.04491756
 C     36  35   3     2.632993472620   120.43312509   142.02072525
 C     37  35   3     2.634819770070   119.77107492   324.91475410
 C     37  35   3     2.634518133836   120.71446766   143.97451900
 C     38  36  35     2.618467199377   119.94007012   178.00077934
 H     38  36  35     2.047719461474   119.65042851   358.21055383
 C     39  36  35     2.614806914318   119.85069950   181.25519463
 H     39  36  35     2.045526480080   119.65513543     0.39975495
 C     40  37  35     2.617712009303   120.05165340   178.44996513
 H     40  37  35     2.047517471363   119.73617699   358.19605476
 C     41  37  35     2.615598249275   119.91664568   180.72461374
 H     41  37  35     2.044974797693   119.78205781     0.13263223
 C     42  38  36     2.621535637052   120.44330991     0.93866472
 H     42  38  36     2.045928214491   119.36312020   180.18210961
 H     44  39  36     2.046045305143   119.32498481   179.59265527
 C     46  40  37     2.621907710930   120.51233838     0.92810523
 H     46  40  37     2.046354876848   119.28675840   180.05749110
 H     48  41  37     2.046145887879   119.23016159   179.79682544
 H     50  42  38     2.044981500779   120.28081258   179.72208042
 H     53  46  40     2.044913937597   120.34406317   179.52304162
 N      1   2   3     2.623827377761   120.70888232   180.01346354
 C     58   1   2     2.684418500661   119.63960230   225.41957465
 C     58   1   2     2.680779681294   119.54265862    45.47363733
 C     59  58   1     2.633466188479   119.79653205    37.02955111
 C     59  58   1     2.632448491534   120.49548730   218.33511292
 C     60  58   1     2.633516486961   119.78761317    35.84198415
 C     60  58   1     2.633487810374   120.56717399   216.66413032
 C     61  59  58     2.617980032879   119.96043511   182.29751570
 H     61  59  58     2.047068029333   119.72583949     2.09049578
 C     62  59  58     2.615435450738   119.84578227   178.53187844
 H     62  59  58     2.045352581282   119.73133648   359.48571191
 C     63  60  58     2.617694201999   120.00076658   181.41815955
 H     63  60  58     2.047576610260   119.69113274     1.65801772
 C     64  60  58     2.615644407292   119.85258508   179.36459744
 H     64  60  58     2.045286115836   119.77231433   359.85179324
 C     65  61  59     2.621850895191   120.44678827   358.97763522
 H     65  61  59     2.046167628183   119.32781576   179.83341014
 H     67  62  59     2.045966184836   119.28993513   180.36612319
 C     69  63  60     2.621912407999   120.46372658   359.11519330
 H     69  63  60     2.046207651499   119.32252224   179.98901743
 H     71  64  60     2.046013897231   119.26194061   180.17864890
 H     73  65  61     2.044888133903   120.28819845   180.32320248
 H     76  69  63     2.044913887275   120.31136402   180.44800843

---------------------
BASIS SET INFORMATION
---------------------
There are 4 groups of distinct atoms

 Group   1 Type C   : 11s6p2d1f contracted to 5s3p2d1f pattern {62111/411/11/1}
 Group   2 Type F   : 11s6p2d1f contracted to 5s3p2d1f pattern {62111/411/11/1}
 Group   3 Type N   : 11s6p2d1f contracted to 5s3p2d1f pattern {62111/411/11/1}
 Group   4 Type H   : 5s1p contracted to 3s1p pattern {311/1}

Atom   0C    basis set group =>   1
Atom   1C    basis set group =>   1
Atom   2C    basis set group =>   1
Atom   3C    basis set group =>   1
Atom   4C    basis set group =>   1
Atom   5C    basis set group =>   1
Atom   6C    basis set group =>   1
Atom   7C    basis set group =>   1
Atom   8F    basis set group =>   2
Atom   9N    basis set group =>   3
Atom  10N    basis set group =>   3
Atom  11N    basis set group =>   3
Atom  12C    basis set group =>   1
Atom  13C    basis set group =>   1
Atom  14C    basis set group =>   1
Atom  15C    basis set group =>   1
Atom  16C    basis set group =>   1
Atom  17C    basis set group =>   1
Atom  18C    basis set group =>   1
Atom  19H    basis set group =>   4
Atom  20C    basis set group =>   1
Atom  21H    basis set group =>   4
Atom  22C    basis set group =>   1
Atom  23H    basis set group =>   4
Atom  24C    basis set group =>   1
Atom  25H    basis set group =>   4
Atom  26C    basis set group =>   1
Atom  27H    basis set group =>   4
Atom  28H    basis set group =>   4
Atom  29C    basis set group =>   1
Atom  30H    basis set group =>   4
Atom  31H    basis set group =>   4
Atom  32H    basis set group =>   4
Atom  33H    basis set group =>   4
Atom  34N    basis set group =>   3
Atom  35C    basis set group =>   1
Atom  36C    basis set group =>   1
Atom  37C    basis set group =>   1
Atom  38C    basis set group =>   1
Atom  39C    basis set group =>   1
Atom  40C    basis set group =>   1
Atom  41C    basis set group =>   1
Atom  42H    basis set group =>   4
Atom  43C    basis set group =>   1
Atom  44H    basis set group =>   4
Atom  45C    basis set group =>   1
Atom  46H    basis set group =>   4
Atom  47C    basis set group =>   1
Atom  48H    basis set group =>   4
Atom  49C    basis set group =>   1
Atom  50H    basis set group =>   4
Atom  51H    basis set group =>   4
Atom  52C    basis set group =>   1
Atom  53H    basis set group =>   4
Atom  54H    basis set group =>   4
Atom  55H    basis set group =>   4
Atom  56H    basis set group =>   4
Atom  57N    basis set group =>   3
Atom  58C    basis set group =>   1
Atom  59C    basis set group =>   1
Atom  60C    basis set group =>   1
Atom  61C    basis set group =>   1
Atom  62C    basis set group =>   1
Atom  63C    basis set group =>   1
Atom  64C    basis set group =>   1
Atom  65H    basis set group =>   4
Atom  66C    basis set group =>   1
Atom  67H    basis set group =>   4
Atom  68C    basis set group =>   1
Atom  69H    basis set group =>   4
Atom  70C    basis set group =>   1
Atom  71H    basis set group =>   4
Atom  72C    basis set group =>   1
Atom  73H    basis set group =>   4
Atom  74H    basis set group =>   4
Atom  75C    basis set group =>   1
Atom  76H    basis set group =>   4
Atom  77H    basis set group =>   4
Atom  78H    basis set group =>   4
Atom  79H    basis set group =>   4
---------------------------------
AUXILIARY/J BASIS SET INFORMATION
---------------------------------
There are 4 groups of distinct atoms

 Group   1 Type C   : 12s5p4d2f1g contracted to 6s4p3d1f1g pattern {711111/2111/211/2/1}
 Group   2 Type F   : 12s5p4d2f1g contracted to 6s4p3d1f1g pattern {711111/2111/211/2/1}
 Group   3 Type N   : 12s5p4d2f1g contracted to 6s4p3d1f1g pattern {711111/2111/211/2/1}
 Group   4 Type H   : 5s2p1d contracted to 3s1p1d pattern {311/2/1}

Atom   0C    basis set group =>   1
Atom   1C    basis set group =>   1
Atom   2C    basis set group =>   1
Atom   3C    basis set group =>   1
Atom   4C    basis set group =>   1
Atom   5C    basis set group =>   1
Atom   6C    basis set group =>   1
Atom   7C    basis set group =>   1
Atom   8F    basis set group =>   2
Atom   9N    basis set group =>   3
Atom  10N    basis set group =>   3
Atom  11N    basis set group =>   3
Atom  12C    basis set group =>   1
Atom  13C    basis set group =>   1
Atom  14C    basis set group =>   1
Atom  15C    basis set group =>   1
Atom  16C    basis set group =>   1
Atom  17C    basis set group =>   1
Atom  18C    basis set group =>   1
Atom  19H    basis set group =>   4
Atom  20C    basis set group =>   1
Atom  21H    basis set group =>   4
Atom  22C    basis set group =>   1
Atom  23H    basis set group =>   4
Atom  24C    basis set group =>   1
Atom  25H    basis set group =>   4
Atom  26C    basis set group =>   1
Atom  27H    basis set group =>   4
Atom  28H    basis set group =>   4
Atom  29C    basis set group =>   1
Atom  30H    basis set group =>   4
Atom  31H    basis set group =>   4
Atom  32H    basis set group =>   4
Atom  33H    basis set group =>   4
Atom  34N    basis set group =>   3
Atom  35C    basis set group =>   1
Atom  36C    basis set group =>   1
Atom  37C    basis set group =>   1
Atom  38C    basis set group =>   1
Atom  39C    basis set group =>   1
Atom  40C    basis set group =>   1
Atom  41C    basis set group =>   1
Atom  42H    basis set group =>   4
Atom  43C    basis set group =>   1
Atom  44H    basis set group =>   4
Atom  45C    basis set group =>   1
Atom  46H    basis set group =>   4
Atom  47C    basis set group =>   1
Atom  48H    basis set group =>   4
Atom  49C    basis set group =>   1
Atom  50H    basis set group =>   4
Atom  51H    basis set group =>   4
Atom  52C    basis set group =>   1
Atom  53H    basis set group =>   4
Atom  54H    basis set group =>   4
Atom  55H    basis set group =>   4
Atom  56H    basis set group =>   4
Atom  57N    basis set group =>   3
Atom  58C    basis set group =>   1
Atom  59C    basis set group =>   1
Atom  60C    basis set group =>   1
Atom  61C    basis set group =>   1
Atom  62C    basis set group =>   1
Atom  63C    basis set group =>   1
Atom  64C    basis set group =>   1
Atom  65H    basis set group =>   4
Atom  66C    basis set group =>   1
Atom  67H    basis set group =>   4
Atom  68C    basis set group =>   1
Atom  69H    basis set group =>   4
Atom  70C    basis set group =>   1
Atom  71H    basis set group =>   4
Atom  72C    basis set group =>   1
Atom  73H    basis set group =>   4
Atom  74H    basis set group =>   4
Atom  75C    basis set group =>   1
Atom  76H    basis set group =>   4
Atom  77H    basis set group =>   4
Atom  78H    basis set group =>   4
Atom  79H    basis set group =>   4
---------------------------------
AUXILIARY/C BASIS SET INFORMATION
---------------------------------
There are 4 groups of distinct atoms

 Group   1 Type C   : 8s6p5d3f1g contracted to 8s6p4d3f1g pattern {11111111/111111/2111/111/1}
 Group   2 Type F   : 8s6p5d3f1g contracted to 8s6p4d3f1g pattern {11111111/111111/2111/111/1}
 Group   3 Type N   : 8s6p5d3f1g contracted to 8s6p4d3f1g pattern {11111111/111111/2111/111/1}
 Group   4 Type H   : 4s3p2d contracted to 4s2p1d pattern {1111/21/2}

Atom   0C    basis set group =>   1
Atom   1C    basis set group =>   1
Atom   2C    basis set group =>   1
Atom   3C    basis set group =>   1
Atom   4C    basis set group =>   1
Atom   5C    basis set group =>   1
Atom   6C    basis set group =>   1
Atom   7C    basis set group =>   1
Atom   8F    basis set group =>   2
Atom   9N    basis set group =>   3
Atom  10N    basis set group =>   3
Atom  11N    basis set group =>   3
Atom  12C    basis set group =>   1
Atom  13C    basis set group =>   1
Atom  14C    basis set group =>   1
Atom  15C    basis set group =>   1
Atom  16C    basis set group =>   1
Atom  17C    basis set group =>   1
Atom  18C    basis set group =>   1
Atom  19H    basis set group =>   4
Atom  20C    basis set group =>   1
Atom  21H    basis set group =>   4
Atom  22C    basis set group =>   1
Atom  23H    basis set group =>   4
Atom  24C    basis set group =>   1
Atom  25H    basis set group =>   4
Atom  26C    basis set group =>   1
Atom  27H    basis set group =>   4
Atom  28H    basis set group =>   4
Atom  29C    basis set group =>   1
Atom  30H    basis set group =>   4
Atom  31H    basis set group =>   4
Atom  32H    basis set group =>   4
Atom  33H    basis set group =>   4
Atom  34N    basis set group =>   3
Atom  35C    basis set group =>   1
Atom  36C    basis set group =>   1
Atom  37C    basis set group =>   1
Atom  38C    basis set group =>   1
Atom  39C    basis set group =>   1
Atom  40C    basis set group =>   1
Atom  41C    basis set group =>   1
Atom  42H    basis set group =>   4
Atom  43C    basis set group =>   1
Atom  44H    basis set group =>   4
Atom  45C    basis set group =>   1
Atom  46H    basis set group =>   4
Atom  47C    basis set group =>   1
Atom  48H    basis set group =>   4
Atom  49C    basis set group =>   1
Atom  50H    basis set group =>   4
Atom  51H    basis set group =>   4
Atom  52C    basis set group =>   1
Atom  53H    basis set group =>   4
Atom  54H    basis set group =>   4
Atom  55H    basis set group =>   4
Atom  56H    basis set group =>   4
Atom  57N    basis set group =>   3
Atom  58C    basis set group =>   1
Atom  59C    basis set group =>   1
Atom  60C    basis set group =>   1
Atom  61C    basis set group =>   1
Atom  62C    basis set group =>   1
Atom  63C    basis set group =>   1
Atom  64C    basis set group =>   1
Atom  65H    basis set group =>   4
Atom  66C    basis set group =>   1
Atom  67H    basis set group =>   4
Atom  68C    basis set group =>   1
Atom  69H    basis set group =>   4
Atom  70C    basis set group =>   1
Atom  71H    basis set group =>   4
Atom  72C    basis set group =>   1
Atom  73H    basis set group =>   4
Atom  74H    basis set group =>   4
Atom  75C    basis set group =>   1
Atom  76H    basis set group =>   4
Atom  77H    basis set group =>   4
Atom  78H    basis set group =>   4
Atom  79H    basis set group =>   4


           ************************************************************
           *        Program running with 6 parallel MPI-processes     *
           *              working on a common directory               *
           ************************************************************
------------------------------------------------------------------------------
                           ORCA GTO INTEGRAL CALCULATION
                           -- RI-GTO INTEGRALS CHOSEN --
------------------------------------------------------------------------------
------------------------------------------------------------------------------
                   ___                                                        
                  /   \      - P O W E R E D   B Y -                         
                 /     \                                                     
                 |  |  |   _    _      __       _____    __    __             
                 |  |  |  | |  | |    /  \     |  _  \  |  |  /  |          
                  \  \/   | |  | |   /    \    | | | |  |  | /  /          
                 / \  \   | |__| |  /  /\  \   | |_| |  |  |/  /          
                |  |  |   |  __  | /  /__\  \  |    /   |      \           
                |  |  |   | |  | | |   __   |  |    \   |  |\   \          
                \     /   | |  | | |  |  |  |  | |\  \  |  | \   \       
                 \___/    |_|  |_| |__|  |__|  |_| \__\ |__|  \__/        
                                                                              
                      - O R C A' S   B I G   F R I E N D -                    
                                      &                                       
                       - I N T E G R A L  F E E D E R -                       
                                                                              
 v1 FN, 2020, v2 2021                                                         
------------------------------------------------------------------------------


Reading SHARK input file CA_2b_M06L_def2TZVP_coords.SHARKINP.tmp ... ok
----------------------
SHARK INTEGRAL PACKAGE
----------------------

Number of atoms                             ...     80
Number of basis functions                   ...   1730
Number of shells                            ...    670
Maximum angular momentum                    ...      3
Integral batch strategy                     ... SHARK/LIBINT Hybrid
RI-J (if used) integral strategy            ... SPLIT-RIJ (Revised 2003 algorithm where possible)
Printlevel                                  ...      1
Contraction scheme used                     ... SEGMENTED contraction
Coulomb Range Separation                    ... NOT USED
Exchange Range Separation                   ... Long Range
   Mu parameter                             ...  0.180000
   Scaling (regular/separated)              ...  0.700000  0.300000
Finite Nucleus Model                        ... NOT USED
Auxiliary Coulomb fitting basis             ... AVAILABLE
   # of basis functions in Aux-J            ...   2780
   # of shells in Aux-J                     ...    900
   Maximum angular momentum in Aux-J        ...      4
Auxiliary J/K fitting basis                 ... NOT available
Auxiliary Correlation fitting basis         ... AVAILABLE
   # of basis functions in Aux-C            ...   4250
   # of shells in Aux-C                     ...   1310
   Maximum angular momentum in Aux-C        ...      4
Auxiliary 'external' fitting basis          ... NOT available
Integral threshold                          ...     2.500000e-11
Primitive cut-off                           ...     2.500000e-12
Primitive pair pre-selection threshold      ...     2.500000e-12

Calculating pre-screening integrals         ... done (  0.2 sec) Dimension = 670
Organizing shell pair data                  ... done (  2.6 sec)
Shell pair information
Total number of shell pairs                 ...    224785
Shell pairs after pre-screening             ...    124571
Total number of primitive shell pairs       ...    697980
Primitive shell pairs kept                  ...    235402
          la=0 lb=0:  30511 shell pairs
          la=1 lb=0:  36729 shell pairs
          la=1 lb=1:  10907 shell pairs
          la=2 lb=0:  17467 shell pairs
          la=2 lb=1:  10725 shell pairs
          la=2 lb=2:   2518 shell pairs
          la=3 lb=0:   7888 shell pairs
          la=3 lb=1:   5035 shell pairs
          la=3 lb=2:   2268 shell pairs
          la=3 lb=3:    523 shell pairs

Calculating one electron integrals          ... done (  0.3 sec)
Calculating RI/J V-Matrix + Cholesky decomp.... done (  0.4 sec)
Calculating RI/C V-Matrix + Cholesky decomp.... done (  0.9 sec)
Calculating Nuclear repulsion               ... done (  0.0 sec) ENN=   6295.605137647248 Eh

SHARK setup successfully completed in   5.5 seconds

Maximum memory used throughout the entire GTOINT-calculation: 228.4 MB


           ************************************************************
           *        Program running with 6 parallel MPI-processes     *
           *              working on a common directory               *
           ************************************************************
-------------------------------------------------------------------------------
                                 ORCA SCF
-------------------------------------------------------------------------------

------------
SCF SETTINGS
------------
Hamiltonian:
 Density Functional     Method          .... DFT(GTOs)
 Exchange Functional    Exchange        .... LC-PBE
 Correlation Functional Correlation     .... P86
 LDA part of GGA corr.  LDAOpt          .... VWN-5
 Gradients option       PostSCFGGA      .... off
 Hybrid DFT is turned on
   Fraction HF Exchange ScalHFX         ....  0.700000
   Scaling of DF-GGA-X  ScalDFX         ....  0.000000
   Scaling of DF-GGA-C  ScalDFC         ....  0.680000
   Scaling of DF-LDA-C  ScalLDAC        ....  0.680000
   Perturbative correction              ....  0.480000
   Density functional embedding theory  .... OFF
 Long-range corrected/Screened/Range-Separated Hybrid DFT is turned on
   Amount of maximum screened exact exchange              ....  0.300000
   Range separation parameter mu (erf(mu*r12)/r12)        ....  0.180000
 RI-approximation to the Coulomb term is turned on
   Number of AuxJ basis functions       .... 2780
   RIJ-COSX (HFX calculated with COS-X)).... on


General Settings:
 Integral files         IntName         .... CA_2b_M06L_def2TZVP_coords
 Hartree-Fock type      HFTyp           .... RHF
 Total Charge           Charge          ....    0
 Multiplicity           Mult            ....    1
 Number of Electrons    NEL             ....  338
 Basis Dimension        Dim             .... 1730
 Nuclear Repulsion      ENuc            ....   6295.6051376472 Eh

Convergence Acceleration:
 DIIS                   CNVDIIS         .... on
   Start iteration      DIISMaxIt       ....    12
   Startup error        DIISStart       ....  0.200000
   # of expansion vecs  DIISMaxEq       ....     5
   Bias factor          DIISBfac        ....   1.050
   Max. coefficient     DIISMaxC        ....  10.000
 Trust-Rad. Augm. Hess. CNVTRAH         .... auto
   Auto Start mean grad. ratio tolernc. ....  1.125000
   Auto Start start iteration           ....    20
   Auto Start num. interpolation iter.  ....    10
   Max. Number of Micro iterations      ....    16
   Max. Number of Macro iterations      .... Maxiter - #DIIS iter
   Number of Davidson start vectors     ....     2
   Converg. threshold I  (grad. norm)   ....   1.000e-05
   Converg. threshold II (energy diff.) ....   1.000e-08
   Grad. Scal. Fac. for Micro threshold ....   0.100
   Minimum threshold for Micro iter.    ....   0.010
   NR start threshold (gradient norm)   ....   0.001
   Initial trust radius                 ....   0.400
   Minimum AH scaling param. (alpha)    ....   1.000
   Maximum AH scaling param. (alpha)    .... 1000.000
   Orbital update algorithm             .... Taylor
   White noise on init. David. guess    .... on
   Maximum white noise                  ....   0.010
   Quad. conv. algorithm                .... NR
 SOSCF                  CNVSOSCF        .... on
   Start iteration      SOSCFMaxIt      ....   150
   Startup grad/error   SOSCFStart      ....  0.003300
 Level Shifting         CNVShift        .... on
   Level shift para.    LevelShift      ....    0.2500
   Turn off err/grad.   ShiftErr        ....    0.0010
 Zerner damping         CNVZerner       .... off
 Static damping         CNVDamp         .... on
   Fraction old density DampFac         ....    0.7000
   Max. Damping (<1)    DampMax         ....    0.9800
   Min. Damping (>=0)   DampMin         ....    0.0000
   Turn off err/grad.   DampErr         ....    0.1000
 Fernandez-Rico         CNVRico         .... off

SCF Procedure:
 Maximum # iterations   MaxIter         ....   125
 SCF integral mode      SCFMode         .... Direct
   Integral package                     .... SHARK and LIBINT hybrid scheme
 Reset frequency        DirectResetFreq ....    20
 Integral Threshold     Thresh          ....  2.500e-11 Eh
 Primitive CutOff       TCut            ....  2.500e-12 Eh

Convergence Tolerance:
 Convergence Check Mode ConvCheckMode   .... Total+1el-Energy
 Convergence forced     ConvForced      .... 1
 Energy Change          TolE            ....  1.000e-08 Eh
 1-El. energy change                    ....  1.000e-05 Eh
 Orbital Gradient       TolG            ....  1.000e-05
 Orbital Rotation angle TolX            ....  1.000e-05
 DIIS Error             TolErr          ....  5.000e-07


Diagonalization of the overlap matrix:
Smallest eigenvalue                        ... 2.094e-06
Time for diagonalization                   ...    0.494 sec
Threshold for overlap eigenvalues          ... 1.000e-08
Number of eigenvalues below threshold      ... 0
Time for construction of square roots      ...    0.300 sec
Total time needed                          ...    0.805 sec

Time for model grid setup =    1.165 sec

------------------------------
INITIAL GUESS: MODEL POTENTIAL
------------------------------
Loading Hartree-Fock densities                     ... done
Calculating cut-offs                               ... done
Initializing the effective Hamiltonian             ... done
Setting up the integral package (SHARK)            ... done
Starting the Coulomb interaction                   ... done (   3.6 sec)
Reading the grid                                   ... done
Mapping shells                                     ... done
Starting the XC term evaluation                    ... done (   1.2 sec)
  promolecular density results
     # of electrons  =    337.982589109
     EX              =   -265.897666656
     EC              =     -5.534668586
     EX+EC           =   -271.432335241
Transforming the Hamiltonian                       ... done (   0.2 sec)
Diagonalizing the Hamiltonian                      ... done (   0.4 sec)
Back transforming the eigenvectors                 ... done (   0.1 sec)
Now organizing SCF variables                       ... done
                      ------------------
                      INITIAL GUESS DONE (   6.7 sec)
                      ------------------
-------------------
DFT GRID GENERATION
-------------------

General Integration Accuracy     IntAcc      ... 4.388
Radial Grid Type                 RadialGrid  ... OptM3 with GC (2021)
Angular Grid (max. ang.)         AngularGrid ... 4 (Lebedev-302)
Angular grid pruning method      GridPruning ... 4 (adaptive)
Weight generation scheme         WeightScheme... Becke
Basis function cutoff            BFCut       ... 1.0000e-11
Integration weight cutoff        WCut        ... 1.0000e-14
Angular grids for H and He will be reduced by one unit
Partially contracted basis set               ... off
Rotationally invariant grid construction     ... off

Total number of grid points                  ...   391137
Total number of batches                      ...     6153
Average number of points per batch           ...       63
Average number of grid points per atom       ...     4889
Time for grid setup =    4.135 sec

--------------------
COSX GRID GENERATION
--------------------

GRIDX 1
-------
General Integration Accuracy     IntAcc      ... 3.816
Radial Grid Type                 RadialGrid  ... OptM3 with GC (2021)
Angular Grid (max. ang.)         AngularGrid ... 1 (Lebedev-50)
Angular grid pruning method      GridPruning ... 4 (adaptive)
Weight generation scheme         WeightScheme... Becke
Basis function cutoff            BFCut       ... 1.0000e-11
Integration weight cutoff        WCut        ... 1.0000e-14
Angular grids for H and He will be reduced by one unit
Partially contracted basis set               ... on
Rotationally invariant grid construction     ... off

Total number of grid points                  ...    49408
Total number of batches                      ...      810
Average number of points per batch           ...       60
Average number of grid points per atom       ...      618
UseSFitting                                  ... on

GRIDX 2
-------
General Integration Accuracy     IntAcc      ... 4.020
Radial Grid Type                 RadialGrid  ... OptM3 with GC (2021)
Angular Grid (max. ang.)         AngularGrid ... 2 (Lebedev-110)
Angular grid pruning method      GridPruning ... 4 (adaptive)
Weight generation scheme         WeightScheme... Becke
Basis function cutoff            BFCut       ... 1.0000e-11
Integration weight cutoff        WCut        ... 1.0000e-14
Angular grids for H and He will be reduced by one unit
Partially contracted basis set               ... on
Rotationally invariant grid construction     ... off

Total number of grid points                  ...   107178
Total number of batches                      ...     1719
Average number of points per batch           ...       62
Average number of grid points per atom       ...     1340
UseSFitting                                  ... on

GRIDX 3
-------
General Integration Accuracy     IntAcc      ... 4.338
Radial Grid Type                 RadialGrid  ... OptM3 with GC (2021)
Angular Grid (max. ang.)         AngularGrid ... 3 (Lebedev-194)
Angular grid pruning method      GridPruning ... 4 (adaptive)
Weight generation scheme         WeightScheme... Becke
Basis function cutoff            BFCut       ... 1.0000e-11
Integration weight cutoff        WCut        ... 1.0000e-14
Angular grids for H and He will be reduced by one unit
Partially contracted basis set               ... on
Rotationally invariant grid construction     ... off

Total number of grid points                  ...   233690
Total number of batches                      ...     3690
Average number of points per batch           ...       63
Average number of grid points per atom       ...     2921
UseSFitting                                  ... on

Time for X-Grid setup             =    7.346 sec


--------------------
CPCM SOLVATION MODEL
--------------------
CPCM parameters:
  Epsilon                                         ...      35.6880
  Refrac                                          ...       1.3442
  Rsolv                                           ...       1.3000
  Surface type                                    ... GAUSSIAN VDW
  Epsilon function type                           ...         CPCM
Solvent:                                     ... ACETONITRILE
SMD-CDS solvent descriptors:
  Soln                                       ...    1.3442
  Soln25                                     ...    1.3416
  Sola                                       ...    0.0700
  Solb                                       ...    0.3200
  Solg                                       ...   41.2500
  Solc                                       ...    0.0000
  Solh                                       ...    0.0000
Radii:
 Radius for C  used is    3.4960 Bohr (=   1.8500 Ang.)
 Radius for F  used is    3.2692 Bohr (=   1.7300 Ang.)
 Radius for N  used is    3.5716 Bohr (=   1.8900 Ang.)
 Radius for H  used is    2.2677 Bohr (=   1.2000 Ang.)
Calculating surface                               ...        done! (  0.0s)
GEPOL surface points                              ...         4441
GEPOL Volume                                      ...    4413.6934
GEPOL Surface-area                                ...    2300.5179
Calculating surface distance matrix               ...        done! (  0.1s)
Performing Cholesky decomposition & store         ...        done! (  0.7s)
Overall time for CPCM initialization              ...                 0.8s
--------------
SCF ITERATIONS
--------------
ITER       Energy         Delta-E        Max-DP      RMS-DP      [F,P]     Damp
               ***  Starting incremental Fock matrix formation  ***
  0  -2062.0605696290   0.000000000000 0.10325769  0.00049464  0.2452888 0.7000
  1  -2062.4878435846  -0.427273955517 0.07920000  0.00040806  0.1355391 0.7000
                               ***Turning on DIIS***
  2  -2062.7383306920  -0.250487107440 0.19782931  0.00096921  0.0658537 0.0000
  3  -2063.2076133520  -0.469282659996 0.05371717  0.00027006  0.0509367 0.0000
  4  -2063.2442866517  -0.036673299669 0.02988970  0.00011486  0.0134379 0.0000
  5  -2063.2461372042  -0.001850552509 0.01296506  0.00005970  0.0070695 0.0000
                      *** Initiating the SOSCF procedure ***
                           *** Shutting down DIIS ***
                      *** Re-Reading the Fockian *** 
                      *** Removing any level shift *** 
ITER      Energy       Delta-E        Grad      Rot      Max-DP    RMS-DP
  6  -2063.24666963  -0.0005324284  0.001511  0.001511  0.004908  0.000029
               *** Restarting incremental Fock matrix formation ***
  7  -2063.24680880  -0.0001391670  0.000895  0.002200  0.013150  0.000144
  8  -2063.24686671  -0.0000579083  0.000375  0.002036  0.007060  0.000057
  9  -2063.24688281  -0.0000160974  0.000140  0.000283  0.003988  0.000044
 10  -2063.24688628  -0.0000034701  0.000096  0.000317  0.000787  0.000006
 11  -2063.24688693  -0.0000006503  0.000038  0.000209  0.000561  0.000003
 12  -2063.24688705  -0.0000001265  0.000014  0.000105  0.000642  0.000003
 13  -2063.24688696   0.0000000919  0.000005  0.000030  0.000541  0.000002
                  ***Gradient check signals convergence***
              ***Rediagonalizing the Fockian in SOSCF/NRSCF***

               *****************************************************
               *                     SUCCESS                       *
               *           SCF CONVERGED AFTER  14 CYCLES          *
               *****************************************************

Old exchange energy                            =   -207.606606456 Eh
New exchange energy                            =   -207.606528640 Eh
Exchange energy change after final integration =      0.000077816 Eh
Total energy after final integration           =  -2063.246809179 Eh
Final COS-X integration done in                =   330.333 sec

SMD CDS free energy correction energy :                -6.21907     Kcal/mol
Total Energy after SMD CDS correction =             -2063.256719890 Eh

----------------
TOTAL SCF ENERGY
----------------

Total Energy       :        -2063.25671989 Eh          -56144.06966 eV

Components:
Nuclear Repulsion  :         6295.60513765 Eh          171312.12514 eV
Electronic Energy  :        -8358.86185754 Eh         -227456.19479 eV
One Electron Energy:       -15337.94530503 Eh         -417366.71026 eV
Two Electron Energy:         6979.08344749 Eh          189910.51547 eV
Max COSX asymmetry :            0.00000502 Eh               0.00014 eV
CPCM Dielectric    :           -0.06802021 Eh              -1.85092 eV
SMD CDS (Gcds)     :           -0.00991071 Eh              -0.26968 eV

Virial components:
Potential Energy   :        -4118.13423996 Eh         -112060.12970 eV
Kinetic Energy     :         2054.87752007 Eh           55916.06004 eV
Virial Ratio       :            2.00407771


DFT components:
N(Alpha)           :      169.000111012312 electrons
N(Beta)            :      169.000111012312 electrons
N(Total)           :      338.000222024624 electrons
E(X)               :      -73.467552001159 Eh       
E(C)               :       -8.511491114157 Eh       
E(XC)              :      -81.979043115316 Eh       
DFET-embed. en.    :        0.000000000000 Eh       
CPCM Solvation Model Properties:
Surface-charge          :           -0.07937119
Charge-correction       :           -0.00017728 Eh              -0.00482 eV
Free-energy (cav+disp)  :           -0.00991071 Eh              -0.26968 eV

---------------
SCF CONVERGENCE
---------------

  Last Energy change         ...   -3.5286e-08  Tolerance :   1.0000e-08
  Last MAX-Density change    ...    3.2196e-15  Tolerance :   1.0000e-07
  Last RMS-Density change    ...    1.1133e-17  Tolerance :   5.0000e-09
  Last Orbital Gradient      ...    1.9281e-06  Tolerance :   1.0000e-05
  Last Orbital Rotation      ...    7.4456e-06  Tolerance :   1.0000e-05

             **** THE GBW FILE WAS UPDATED (CA_2b_M06L_def2TZVP_coords.gbw) ****
             **** DENSITY CA_2b_M06L_def2TZVP_coords.scfp WAS UPDATED ****
             **** ENERGY FILE WAS UPDATED (CA_2b_M06L_def2TZVP_coords.en.tmp) ****
             **** THE GBW FILE WAS UPDATED (CA_2b_M06L_def2TZVP_coords.gbw) ****
             **** DENSITY CA_2b_M06L_def2TZVP_coords.scfp WAS UPDATED ****
----------------
ORBITAL ENERGIES
----------------

  NO   OCC          E(Eh)            E(eV) 
   0   2.0000     -25.763813      -701.0690 
   1   2.0000     -15.186894      -413.2564 
   2   2.0000     -15.184346      -413.1871 
   3   2.0000     -15.180518      -413.0829 
   4   2.0000     -15.150197      -412.2578 
   5   2.0000     -15.150147      -412.2565 
   6   2.0000     -10.978775      -298.7477 
   7   2.0000     -10.970185      -298.5139 
   8   2.0000     -10.969152      -298.4858 
   9   2.0000     -10.968761      -298.4752 
  10   2.0000     -10.930303      -297.4287 
  11   2.0000     -10.930100      -297.4231 
  12   2.0000     -10.927513      -297.3527 
  13   2.0000     -10.927438      -297.3507 
  14   2.0000     -10.921913      -297.2004 
  15   2.0000     -10.921872      -297.1993 
  16   2.0000     -10.921847      -297.1986 
  17   2.0000     -10.921518      -297.1896 
  18   2.0000     -10.920963      -297.1745 
  19   2.0000     -10.920914      -297.1732 
  20   2.0000     -10.871345      -295.8243 
  21   2.0000     -10.870984      -295.8145 
  22   2.0000     -10.870829      -295.8103 
  23   2.0000     -10.870742      -295.8079 
  24   2.0000     -10.870642      -295.8052 
  25   2.0000     -10.870536      -295.8023 
  26   2.0000     -10.870527      -295.8021 
  27   2.0000     -10.870335      -295.7969 
  28   2.0000     -10.870312      -295.7962 
  29   2.0000     -10.870239      -295.7942 
  30   2.0000     -10.869958      -295.7866 
  31   2.0000     -10.869881      -295.7845 
  32   2.0000     -10.869752      -295.7810 
  33   2.0000     -10.869517      -295.7746 
  34   2.0000     -10.869405      -295.7715 
  35   2.0000     -10.869107      -295.7634 
  36   2.0000     -10.868767      -295.7542 
  37   2.0000     -10.868727      -295.7531 
  38   2.0000     -10.868550      -295.7483 
  39   2.0000     -10.868446      -295.7454 
  40   2.0000     -10.868193      -295.7386 
  41   2.0000     -10.867986      -295.7329 
  42   2.0000     -10.867164      -295.7106 
  43   2.0000     -10.867075      -295.7081 
  44   2.0000     -10.865400      -295.6626 
  45   2.0000     -10.864991      -295.6514 
  46   2.0000     -10.864509      -295.6383 
  47   2.0000     -10.863749      -295.6176 
  48   2.0000     -10.863310      -295.6057 
  49   2.0000     -10.863276      -295.6048 
  50   2.0000      -1.553409       -42.2704 
  51   2.0000      -1.254126       -34.1265 
  52   2.0000      -1.244307       -33.8593 
  53   2.0000      -1.240402       -33.7531 
  54   2.0000      -1.167119       -31.7589 
  55   2.0000      -1.166576       -31.7442 
  56   2.0000      -1.128432       -30.7062 
  57   2.0000      -1.102165       -29.9914 
  58   2.0000      -1.101555       -29.9748 
  59   2.0000      -1.100734       -29.9525 
  60   2.0000      -1.090102       -29.6632 
  61   2.0000      -1.088115       -29.6091 
  62   2.0000      -1.074160       -29.2294 
  63   2.0000      -1.030778       -28.0489 
  64   2.0000      -1.014077       -27.5944 
  65   2.0000      -0.982754       -26.7421 
  66   2.0000      -0.981934       -26.7198 
  67   2.0000      -0.981338       -26.7036 
  68   2.0000      -0.972093       -26.4520 
  69   2.0000      -0.971427       -26.4339 
  70   2.0000      -0.969257       -26.3748 
  71   2.0000      -0.966846       -26.3092 
  72   2.0000      -0.966140       -26.2900 
  73   2.0000      -0.965213       -26.2648 
  74   2.0000      -0.948143       -25.8003 
  75   2.0000      -0.938178       -25.5291 
  76   2.0000      -0.936071       -25.4718 
  77   2.0000      -0.879701       -23.9379 
  78   2.0000      -0.865199       -23.5433 
  79   2.0000      -0.820572       -22.3289 
  80   2.0000      -0.819425       -22.2977 
  81   2.0000      -0.816038       -22.2055 
  82   2.0000      -0.814527       -22.1644 
  83   2.0000      -0.803392       -21.8614 
  84   2.0000      -0.799917       -21.7668 
  85   2.0000      -0.794167       -21.6104 
  86   2.0000      -0.792500       -21.5650 
  87   2.0000      -0.791510       -21.5381 
  88   2.0000      -0.789975       -21.4963 
  89   2.0000      -0.778159       -21.1748 
  90   2.0000      -0.761544       -20.7227 
  91   2.0000      -0.756301       -20.5800 
  92   2.0000      -0.741875       -20.1874 
  93   2.0000      -0.719036       -19.5660 
  94   2.0000      -0.712062       -19.3762 
  95   2.0000      -0.707094       -19.2410 
  96   2.0000      -0.698814       -19.0157 
  97   2.0000      -0.698581       -19.0094 
  98   2.0000      -0.697164       -18.9708 
  99   2.0000      -0.682019       -18.5587 
 100   2.0000      -0.670113       -18.2347 
 101   2.0000      -0.665844       -18.1185 
 102   2.0000      -0.658930       -17.9304 
 103   2.0000      -0.650288       -17.6952 
 104   2.0000      -0.643602       -17.5133 
 105   2.0000      -0.639380       -17.3984 
 106   2.0000      -0.638663       -17.3789 
 107   2.0000      -0.637806       -17.3556 
 108   2.0000      -0.620310       -16.8795 
 109   2.0000      -0.617021       -16.7900 
 110   2.0000      -0.613991       -16.7075 
 111   2.0000      -0.607938       -16.5428 
 112   2.0000      -0.607089       -16.5197 
 113   2.0000      -0.601578       -16.3698 
 114   2.0000      -0.594597       -16.1798 
 115   2.0000      -0.591472       -16.0948 
 116   2.0000      -0.588996       -16.0274 
 117   2.0000      -0.586176       -15.9507 
 118   2.0000      -0.584088       -15.8938 
 119   2.0000      -0.580008       -15.7828 
 120   2.0000      -0.576540       -15.6885 
 121   2.0000      -0.574665       -15.6374 
 122   2.0000      -0.571667       -15.5559 
 123   2.0000      -0.570894       -15.5348 
 124   2.0000      -0.569780       -15.5045 
 125   2.0000      -0.568773       -15.4771 
 126   2.0000      -0.568482       -15.4692 
 127   2.0000      -0.557430       -15.1684 
 128   2.0000      -0.553611       -15.0645 
 129   2.0000      -0.546908       -14.8821 
 130   2.0000      -0.537214       -14.6183 
 131   2.0000      -0.536076       -14.5874 
 132   2.0000      -0.532170       -14.4811 
 133   2.0000      -0.527922       -14.3655 
 134   2.0000      -0.519656       -14.1406 
 135   2.0000      -0.514078       -13.9888 
 136   2.0000      -0.508779       -13.8446 
 137   2.0000      -0.504581       -13.7304 
 138   2.0000      -0.503234       -13.6937 
 139   2.0000      -0.502751       -13.6806 
 140   2.0000      -0.494273       -13.4499 
 141   2.0000      -0.493337       -13.4244 
 142   2.0000      -0.492837       -13.4108 
 143   2.0000      -0.487321       -13.2607 
 144   2.0000      -0.484636       -13.1876 
 145   2.0000      -0.483369       -13.1531 
 146   2.0000      -0.481433       -13.1004 
 147   2.0000      -0.480109       -13.0644 
 148   2.0000      -0.478335       -13.0162 
 149   2.0000      -0.477462       -12.9924 
 150   2.0000      -0.474249       -12.9050 
 151   2.0000      -0.472290       -12.8517 
 152   2.0000      -0.458681       -12.4813 
 153   2.0000      -0.455006       -12.3813 
 154   2.0000      -0.439554       -11.9609 
 155   2.0000      -0.383978       -10.4486 
 156   2.0000      -0.382524       -10.4090 
 157   2.0000      -0.367609       -10.0031 
 158   2.0000      -0.363966        -9.9040 
 159   2.0000      -0.362714        -9.8699 
 160   2.0000      -0.361470        -9.8361 
 161   2.0000      -0.359571        -9.7844 
 162   2.0000      -0.358782        -9.7629 
 163   2.0000      -0.356231        -9.6935 
 164   2.0000      -0.352886        -9.6025 
 165   2.0000      -0.351184        -9.5562 
 166   2.0000      -0.302506        -8.2316 
 167   2.0000      -0.296372        -8.0647 
 168   2.0000      -0.292379        -7.9561 
 169   0.0000      -0.001229        -0.0334 
 170   0.0000       0.022336         0.6078 
 171   0.0000       0.058871         1.6020 
 172   0.0000       0.059786         1.6268 
 173   0.0000       0.063688         1.7330 
 174   0.0000       0.066522         1.8102 
 175   0.0000       0.069554         1.8927 
 176   0.0000       0.070424         1.9163 
 177   0.0000       0.082372         2.2414 
 178   0.0000       0.086107         2.3431 
 179   0.0000       0.088857         2.4179 
 180   0.0000       0.090926         2.4742 
 181   0.0000       0.102606         2.7920 
 182   0.0000       0.106533         2.8989 
 183   0.0000       0.111003         3.0206 
 184   0.0000       0.119030         3.2390 
 185   0.0000       0.123304         3.3553 
 186   0.0000       0.136143         3.7046 
 187   0.0000       0.137306         3.7363 
 188   0.0000       0.142452         3.8763 
 189   0.0000       0.144778         3.9396 
 190   0.0000       0.145592         3.9618 
 191   0.0000       0.151938         4.1345 
 192   0.0000       0.153848         4.1864 
 193   0.0000       0.156138         4.2487 
 194   0.0000       0.157857         4.2955 
 195   0.0000       0.160221         4.3598 
 196   0.0000       0.162346         4.4177 
 197   0.0000       0.163601         4.4518 
 198   0.0000       0.166035         4.5180 
 199   0.0000       0.174315         4.7433 
 200   0.0000       0.177520         4.8306 
 201   0.0000       0.178204         4.8492 
 202   0.0000       0.179721         4.8904 
 203   0.0000       0.183561         4.9949 
 204   0.0000       0.184815         5.0291 
 205   0.0000       0.190509         5.1840 
 206   0.0000       0.192198         5.2300 
 207   0.0000       0.199535         5.4296 
 208   0.0000       0.200164         5.4467 
 209   0.0000       0.200899         5.4667 
 210   0.0000       0.202630         5.5138 
 211   0.0000       0.206950         5.6314 
 212   0.0000       0.211467         5.7543 
 213   0.0000       0.214739         5.8433 
 214   0.0000       0.216081         5.8799 
 215   0.0000       0.218395         5.9428 
 216   0.0000       0.223301         6.0763 
 217   0.0000       0.230212         6.2644 
 218   0.0000       0.233966         6.3665 
 219   0.0000       0.236694         6.4408 
 220   0.0000       0.237589         6.4651 
 221   0.0000       0.244028         6.6403 
 222   0.0000       0.244701         6.6587 
 223   0.0000       0.250315         6.8114 
 224   0.0000       0.251225         6.8362 
 225   0.0000       0.251897         6.8545 
 226   0.0000       0.255676         6.9573 
 227   0.0000       0.257271         7.0007 
 228   0.0000       0.258640         7.0379 
 229   0.0000       0.261913         7.1270 
 230   0.0000       0.267445         7.2775 
 231   0.0000       0.272855         7.4248 
 232   0.0000       0.275508         7.4970 
 233   0.0000       0.276412         7.5215 
 234   0.0000       0.278362         7.5746 
 235   0.0000       0.279396         7.6028 
 236   0.0000       0.284596         7.7442 
 237   0.0000       0.284981         7.7547 
 238   0.0000       0.289163         7.8685 
 239   0.0000       0.290822         7.9137 
 240   0.0000       0.292238         7.9522 
 241   0.0000       0.294380         8.0105 
 242   0.0000       0.295446         8.0395 
 243   0.0000       0.296565         8.0699 
 244   0.0000       0.298583         8.1249 
 245   0.0000       0.302152         8.2220 
 246   0.0000       0.303554         8.2601 
 247   0.0000       0.306741         8.3468 
 248   0.0000       0.307191         8.3591 
 249   0.0000       0.309357         8.4180 
 250   0.0000       0.310638         8.4529 
 251   0.0000       0.311775         8.4838 
 252   0.0000       0.313216         8.5231 
 253   0.0000       0.314743         8.5646 
 254   0.0000       0.316762         8.6195 
 255   0.0000       0.319369         8.6905 
 256   0.0000       0.321355         8.7445 
 257   0.0000       0.322978         8.7887 
 258   0.0000       0.324063         8.8182 
 259   0.0000       0.328039         8.9264 
 260   0.0000       0.331049         9.0083 
[...]
   167a -> 186a  :     0.011118 
   167a -> 187a  :     0.013794 
   168a -> 172a  :     0.017449 
   168a -> 174a  :     0.029001 
   168a -> 175a  :     0.063583 
   168a -> 176a  :     0.082751 
   168a -> 178a  :     0.027752 
   168a -> 184a  :     0.022071 

STATE 59:  E=   0.229459 au      6.244 eV    50360.5 cm**-1 <S**2> =   0.000000
   158a -> 170a  :     0.014359 
   162a -> 170a  :     0.017773 
   166a -> 171a  :     0.024805 
   166a -> 181a  :     0.132564 
   166a -> 182a  :     0.035695 
   167a -> 172a  :     0.034553 
   167a -> 173a  :     0.017984 
   167a -> 176a  :     0.028959 
   167a -> 179a  :     0.016294 
   167a -> 181a  :     0.013593 
   167a -> 186a  :     0.013947 
   168a -> 172a  :     0.022147 
   168a -> 174a  :     0.170069 
   168a -> 175a  :     0.040847 
   168a -> 176a  :     0.025042 
   168a -> 182a  :     0.022621 
   168a -> 187a  :     0.028414 

STATE 60:  E=   0.227308 au      6.185 eV    49888.3 cm**-1 <S**2> =   0.000000
   158a -> 173a  :     0.015593 
   160a -> 170a  :     0.061178 
   166a -> 172a  :     0.012399 
   166a -> 180a  :     0.015145 
   166a -> 181a  :     0.020777 
   166a -> 182a  :     0.015941 
   167a -> 173a  :     0.059565 
   167a -> 174a  :     0.041960 
   167a -> 176a  :     0.120937 
   167a -> 178a  :     0.012325 
   168a -> 171a  :     0.025142 
   168a -> 174a  :     0.022695 
   168a -> 175a  :     0.137202 
   168a -> 176a  :     0.063926 
   168a -> 181a  :     0.028003 
   168a -> 184a  :     0.036859 


-------------------------
TD-DFT-EXCITATION SPECTRA
-------------------------

Center of mass = ( -0.0016, -0.0016,  0.0011)
Calculating the Dipole integrals                  ... done
Transforming integrals                            ... done
Calculating the Linear Momentum integrals         ... done
Transforming integrals                            ... done
Calculating angular momentum integrals            ... done
Transforming integrals                            ... done

-----------------------------------------------------------------------------
         ABSORPTION SPECTRUM VIA TRANSITION ELECTRIC DIPOLE MOMENTS
-----------------------------------------------------------------------------
State   Energy    Wavelength  fosc         T2        TX        TY        TZ  
        (cm-1)      (nm)                 (au**2)    (au)      (au)      (au) 
-----------------------------------------------------------------------------
   1   24670.2    405.3   0.299718269   3.99959  -0.39983  -1.95858  -0.06068
   2   26795.0    373.2   0.191962916   2.35852  -1.46891   0.10899  -0.43468
   3   28178.6    354.9   0.279948964   3.27066   1.70639  -0.32575   0.50277
   4   27946.0    357.8   0.088503208   1.04259  -0.04658   1.01999   0.00652
   5   31092.5    321.6   0.333602647   3.53223   0.71448   1.70908   0.31750
   6   34676.6    288.4   0.037279524   0.35392  -0.34041  -0.44069   0.20937
   7   37302.3    268.1   0.166426503   1.46880   0.32788   0.83032  -0.81968
   8   38792.6    257.8   0.058880372   0.49969  -0.11513  -0.60498  -0.34703
   9   38845.9    257.4   0.477426591   4.04611   1.56078  -0.48607  -1.17209
  10   37279.1    268.2   0.047196879   0.41680   0.13960   0.07165  -0.62624
  11   37585.7    266.1   0.142510312   1.24824  -0.62433  -0.91384   0.15283
  12   38925.3    256.9   0.039420812   0.33340   0.51412  -0.25780  -0.05118
  13   38818.7    257.6   0.018867434   0.16001  -0.21095   0.23160  -0.24874
  14   39333.8    254.2   0.013399645   0.11215   0.20981   0.26101  -0.00253
  15   37479.3    266.8   0.033425847   0.29361   0.42966  -0.08998  -0.31766
  16   47894.1    208.8   0.022232088   0.15282   0.32518  -0.19838   0.08788
  17   48238.8    207.3   0.015876829   0.10835  -0.03069   0.32718   0.01908
  18   47381.1    211.1   0.182111318   1.26534  -0.46783  -1.02056  -0.07025
  19   43988.9    227.3   0.094004304   0.70353   0.08321   0.82203  -0.14448
  20   47112.5    212.3   0.009429354   0.06589  -0.13520  -0.04692  -0.21310
  21   45686.0    218.9   0.023109309   0.16653   0.23488  -0.13424   0.30551
  22   47076.8    212.4   0.061368940   0.42916  -0.47051   0.03607   0.45440
  23   46142.6    216.7   0.026559686   0.18949  -0.20073  -0.37491  -0.09299
  24   46130.6    216.8   0.087398968   0.62372   0.52111  -0.47903  -0.35029
  25   47855.0    209.0   0.338684273   2.32993   0.91894   1.13964  -0.43208
  26   46713.3    214.1   0.302854479   2.13437   0.65891  -0.27643  -1.27428
  27   46652.4    214.4   0.114654323   0.80908  -0.13203  -0.69001  -0.56173
  28   47397.5    211.0   0.748358772   5.19793   1.28981   0.73402  -1.73076
  29   46745.4    213.9   0.353633019   2.49052  -0.14654  -0.25751  -1.55008
  30   47131.8    212.2   0.265965942   1.85775   0.80314  -0.56574  -0.94481
  31   47797.6    209.2   0.127430737   0.87769  -0.43104  -0.83099   0.03678
  32   49209.8    203.2   1.120935919   7.49902   2.33558  -1.10735  -0.90435
  33   47313.6    211.4   0.301970593   2.10114  -1.07014   0.73193  -0.64824
  34   47052.9    212.5   0.235279463   1.64616  -0.85897   0.71428  -0.63098
  35   47716.5    209.6   0.103597625   0.71475   0.82140  -0.14963  -0.13291
  36   48659.0    205.5   0.049317616   0.33367   0.49433  -0.21132  -0.21130
  37   48320.2    207.0   0.054689110   0.37260   0.26183  -0.38310   0.39659
  38   48156.7    207.7   0.047267138   0.32313   0.45054   0.08586   0.33582
  39   47759.1    209.4   0.092284161   0.63613   0.52206   0.17632   0.57662
  40   47721.1    209.6   0.181706291   1.25353  -1.03985   0.41223  -0.04816
  41   48105.2    207.9   0.240523529   1.64604  -0.65981  -0.90510   0.62569
  42   47391.6    211.0   0.038900487   0.27023   0.11036   0.34448  -0.37334
  43   48541.6    206.0   0.218635636   1.48280   0.53879   1.09142   0.03601
  44   48589.5    205.8   0.024215133   0.16407   0.10638  -0.12096   0.37164
  45   49498.9    202.0   0.167037550   1.11095  -0.17012  -0.84272  -0.60977
  46   48767.4    205.1   0.273307707   1.84501   0.60109   1.21807   0.00191
  47   48902.5    204.5   0.056555858   0.38073   0.41631   0.40437  -0.20955
  48   51029.9    196.0   0.084905835   0.54776  -0.66954   0.31285  -0.04004
  49   51518.6    194.1   0.091650983   0.58566  -0.27936   0.68848  -0.18336
  50   51882.3    192.7   0.037925278   0.24065   0.47741  -0.05723  -0.09722
  51   50728.6    197.1   0.160559890   1.04198  -0.88849  -0.43485  -0.25194
  52   48380.6    206.7   0.009530563   0.06485  -0.24749   0.05999   0.00118
  53   50064.3    199.7   0.040787606   0.26821  -0.18289  -0.11392   0.47094
  54   48811.8    204.9   0.059644223   0.40227   0.35358   0.51475   0.11084
  55   49200.5    203.3   0.020491105   0.13711  -0.04252   0.32961  -0.16328
  56   49503.8    202.0   0.025673243   0.17073  -0.31398   0.22698   0.14364
  57   50158.7    199.4   0.002638625   0.01732   0.07518  -0.00265   0.10798
  58   49421.4    202.3   0.006244642   0.04160   0.11016  -0.15191   0.07990
  59   50360.5    198.6   0.017757051   0.11608   0.05498  -0.24183   0.23362
  60   49888.3    200.4   0.017281911   0.11404  -0.01351   0.24143  -0.23574

-----------------------------------------------------------------------------
         ABSORPTION SPECTRUM VIA TRANSITION VELOCITY DIPOLE MOMENTS
-----------------------------------------------------------------------------
State   Energy    Wavelength   fosc        P2         PX        PY        PZ  
        (cm-1)      (nm)                 (au**2)     (au)      (au)      (au) 
-----------------------------------------------------------------------------
   1   24670.2    405.3   0.492605456   0.08306   0.05767   0.28222   0.00916
   2   26795.0    373.2   0.277052329   0.05074   0.21514  -0.01577   0.06483
   3   28178.6    354.9   0.432607422   0.08331  -0.27214   0.05226  -0.08076
   4   27946.0    357.8   0.154103076   0.02943   0.00752  -0.17139   0.00073
   5   31092.5    321.6   0.513560891   0.10913  -0.12529  -0.30035  -0.05680
   6   34676.6    288.4   0.050911133   0.01207   0.06344   0.08175  -0.03685
   7   37302.3    268.1   0.202810851   0.05171  -0.06122  -0.15564   0.15406
   8   38792.6    257.8   0.068136213   0.01806   0.02189   0.11499   0.06604
   9   38845.9    257.4   0.555666197   0.14752  -0.29822   0.09270   0.22359
  10   37279.1    268.2   0.062290706   0.01587  -0.02724  -0.01348   0.12226
  11   37585.7    266.1   0.186787765   0.04798   0.12248   0.17910  -0.03005
  12   38925.3    256.9   0.050878803   0.01354  -0.10353   0.05212   0.01005
  13   38818.7    257.6   0.024653040   0.00654   0.04315  -0.04687   0.04982
  14   39333.8    254.2   0.017305673   0.00465  -0.04256  -0.05330   0.00054
  15   37479.3    266.8   0.046738331   0.01197  -0.08689   0.01816   0.06397
  16   47894.1    208.8   0.022290532   0.00730  -0.07096   0.04344  -0.01934
  17   48238.8    207.3   0.016158645   0.00533   0.00664  -0.07255  -0.00442
  18   47381.1    211.1   0.193881425   0.06278   0.10421   0.22737   0.01506
  19   43988.9    227.3   0.120242980   0.03615  -0.01938  -0.18613   0.03365
  20   47112.5    212.3   0.010937375   0.00352   0.03120   0.01079   0.04931
  21   45686.0    218.9   0.028893411   0.00902  -0.05530   0.03155  -0.07049
  22   47076.8    212.4   0.072306530   0.02326   0.10928  -0.00773  -0.10613
  23   46142.6    216.7   0.032938331   0.01039   0.04702   0.08779   0.02168
  24   46130.6    216.8   0.109029918   0.03437  -0.12182   0.11246   0.08299
  25   47855.0    209.0   0.400673664   0.13105  -0.21777  -0.27035   0.10264
  26   46713.3    214.1   0.379089414   0.12103  -0.15710   0.06544   0.30343
  27   46652.4    214.4   0.144805067   0.04617   0.03242   0.16488   0.13392
  28   47397.5    211.0   0.916935528   0.29703  -0.30762  -0.17553   0.41423
  29   46745.4    213.9   0.448244092   0.14321   0.03518   0.06193   0.37166
  30   47131.8    212.2   0.335346368   0.10802  -0.19412   0.13745   0.22683
  31   47797.6    209.2   0.158317825   0.05172   0.10461   0.20171  -0.00937
  32   49209.8    203.2   1.321854833   0.44457  -0.56854   0.26931   0.22093
  33   47313.6    211.4   0.388941992   0.12577   0.26160  -0.17917   0.15885
  34   47052.9    212.5   0.311540097   0.10019   0.21223  -0.17602   0.15545
  35   47716.5    209.6   0.135787382   0.04428  -0.20419   0.03783   0.03400
  36   48659.0    205.5   0.063530864   0.02113  -0.12391   0.05320   0.05425
  37   48320.2    207.0   0.071657071   0.02366  -0.06650   0.09681  -0.09934
  38   48156.7    207.7   0.062933187   0.02071  -0.11541  -0.02115  -0.08335
  39   47759.1    209.4   0.127845163   0.04173  -0.13352  -0.04508  -0.14788
  40   47721.1    209.6   0.251215531   0.08193   0.26565  -0.10582   0.01278
  41   48105.2    207.9   0.328560338   0.10802   0.16867   0.23170  -0.16089
  42   47391.6    211.0   0.054192208   0.01755  -0.02818  -0.08854   0.09444
  43   48541.6    206.0   0.298841443   0.09914  -0.13898  -0.28239  -0.00893
  44   48589.5    205.8   0.032082231   0.01065  -0.02789   0.03098  -0.09442
  45   49498.9    202.0   0.222102237   0.07514   0.04412   0.21927   0.15847
  46   48767.4    205.1   0.376928932   0.12563  -0.15732  -0.31762  -0.00052
  47   48902.5    204.5   0.079515144   0.02658  -0.11013  -0.10740   0.05396
  48   51029.9    196.0   0.107614110   0.03753   0.17517  -0.08200   0.01112
  49   51518.6    194.1   0.115260808   0.04058   0.07465  -0.18064   0.04877
  50   51882.3    192.7   0.048491271   0.01719  -0.12752   0.01405   0.02715
  51   50728.6    197.1   0.212866724   0.07380   0.23669   0.11496   0.06754
  52   48380.6    206.7   0.013626696   0.00451   0.06510  -0.01637  -0.00047
  53   50064.3    199.7   0.055863590   0.01911   0.04871   0.02876  -0.12615
  54   48811.8    204.9   0.088464429   0.02951  -0.09574  -0.13947  -0.02991
  55   49200.5    203.3   0.030259824   0.01018   0.01130  -0.09013   0.04386
  56   49503.8    202.0   0.037253925   0.01260   0.08564  -0.06128  -0.03891
  57   50158.7    199.4   0.003822313   0.00131  -0.02153   0.00130  -0.02907
  58   49421.4    202.3   0.009330529   0.00315  -0.02898   0.04308  -0.02134
  59   50360.5    198.6   0.025232230   0.00868  -0.01359   0.06619  -0.06418
  60   49888.3    200.4   0.024679329   0.00841   0.00404  -0.06460   0.06500

-------------------------------------------------------------------
                             CD SPECTRUM
-------------------------------------------------------------------
State  Energy     Wavelength     R         MX        MY        MZ   
       (cm-1)       (nm)     (1e40*cgs)   (au)      (au)      (au)  
-------------------------------------------------------------------
   1   24670.2    405.3    -173.82506   0.05348   0.16575   0.37403
   2   26795.0    373.2     37.18230  -0.07851  -0.20665   0.03207
   3   28178.6    354.9    228.04870   0.24969   0.06327   0.15564
   4   27946.0    357.8     94.76362   0.05792   0.19832   0.21691
   5   31092.5    321.6    -297.92841   0.24436  -0.54761   0.40749
   6   34676.6    288.4    116.50052  -0.22877  -0.55178  -0.35310
   7   37302.3    268.1    -49.35394   0.04937   0.22901   0.37945
   8   38792.6    257.8    -29.92949   0.19563  -0.32899   0.69156
   9   38845.9    257.4     20.99357  -0.19813  -0.42294  -0.12644
  10   37279.1    268.2    -149.13635   0.80118   0.46999   0.73751
  11   37585.7    266.1    235.92766   0.44077  -0.78340   0.39074
  12   38925.3    256.9     46.97162   0.10770  -0.16894  -0.01382
  13   38818.7    257.6     -0.58251  -0.19230  -0.22675  -0.04308
  14   39333.8    254.2     -4.24014   0.10520  -0.11877   0.02580
  15   37479.3    266.8    -18.66210  -0.14117  -0.01360  -0.06247
  16   47894.1    208.8     -1.17172  -0.00868  -0.00114   0.00124
  17   48238.8    207.3     14.70391  -0.09677   0.09164  -0.09245
  18   47381.1    211.1     63.71656  -0.19915  -0.02487  -0.23634
  19   43988.9    227.3     10.87867   0.56592   0.08694   0.66090
  20   47112.5    212.3     -7.64548  -0.12585   0.31374   0.08687
  21   45686.0    218.9    -33.77023  -0.03273   0.51933   0.01889
  22   47076.8    212.4    -88.21103  -0.21961  -0.18851  -0.62419
  23   46142.6    216.7    -22.89326   1.72092  -1.09290   1.21366
  24   46130.6    216.8    301.05168  -1.27491  -2.03217  -0.94056
  25   47855.0    209.0    223.24358  -1.09765   0.76016  -1.42542
  26   46713.3    214.1    -59.21985  -0.06024  -1.58317   0.41086
  27   46652.4    214.4    -338.19819   0.46881   0.62920   0.39397
  28   47397.5    211.0    244.23738   0.73238   0.62346   0.51088
  29   46745.4    213.9    -430.43556  -0.23845   0.81881   0.47552
  30   47131.8    212.2     50.65848   0.13581  -0.19607   0.11912
  31   47797.6    209.2    -97.24007  -0.22492   0.33759  -0.61629
  32   49209.8    203.2    -18.23308   0.03400   0.28080  -0.21325
  33   47313.6    211.4    478.38614  -0.58613   0.43895  -0.10211
  34   47052.9    212.5    -131.87818   0.29394  -0.16027  -0.13826
  35   47716.5    209.6     67.48912   0.27253   0.02580   0.57818
  36   48659.0    205.5    -152.94275  -0.44806   0.39260   0.09444
  37   48320.2    207.0    -32.91774   0.29559  -0.05749  -0.42674
  38   48156.7    207.7     73.71450   0.18972   0.11703   0.18115
  39   47759.1    209.4    -87.22940  -0.16264   0.11768  -0.20961
  40   47721.1    209.6     85.14399  -0.18279  -0.05205  -0.24877
  41   48105.2    207.9    -32.56988   0.04583  -0.10031  -0.20718
  42   47391.6    211.0     -5.54986  -0.12699   0.39189   0.35559
  43   48541.6    206.0    -65.10094   0.22338  -0.23665  -0.00436
  44   48589.5    205.8     -3.00872   0.27563   0.78080   0.15805
  45   49498.9    202.0    191.09770  -0.48081  -0.33049  -0.07385
  46   48767.4    205.1    -47.81594  -0.22665   0.02923  -0.41491
  47   48902.5    204.5    -55.36037   0.42517  -0.51053   0.41986
  48   51029.9    196.0    -53.42055   0.01583  -0.26899   0.46359
  49   51518.6    194.1     44.82562  -0.22135  -0.01427  -0.23489
  50   51882.3    192.7     38.42289   0.11614  -0.20247  -0.14881
  51   50728.6    197.1    116.95064  -0.26378  -0.03540   0.00670
  52   48380.6    206.7     19.28068  -0.16109   0.01762  -0.02486
  53   50064.3    199.7     10.95267   0.22119   0.05850   0.14938
  54   48811.8    204.9     35.68750   0.25023  -0.00643  -0.08547
  55   49200.5    203.3    115.43622   0.42556   0.99086   0.38981
  56   49503.8    202.0      8.85697  -0.03502   0.19525  -0.25429
  57   50158.7    199.4      8.51895   0.13024   0.01142   0.07695
  58   49421.4    202.3     33.89343   0.19922  -0.25024   0.14931
  59   50360.5    198.6     17.11287   0.38981   0.22241   0.29387
  60   49888.3    200.4    -18.98851  -0.22408  -0.24067  -0.06278

Total run time:   356707.648 sec

           *** ORCA-CIS/TD-DFT FINISHED WITHOUT ERROR ***

Maximum memory used throughout the entire CIS-calculation: 22753.6 MB

-----------------------
CIS/TD-DFT TOTAL ENERGY
-----------------------

    E(SCF)  =  -2063.256719890 Eh
    DE(CIS) =      0.112405924 Eh (Root  1)
    ----------------------------- ---------
    E(tot)  =  -2063.144313967 Eh


-------------------------   --------------------
FINAL SINGLE POINT ENERGY     -2063.144313966513
-------------------------   --------------------


                            ***************************************
                            *     ORCA property calculations      *
                            ***************************************


  WARNING: The energy has been calculated at the MP2 level but the densities
           used in the property calculations are still SCF densities
           MP2 response densities have not been calculated 
           use %mp2 Density relaxed end
           or  %mp2 Density unrelaxed end

                                    ---------------------
                                    Active property flags
                                    ---------------------
   (+) Dipole Moment


------------------------------------------------------------------------------
                       ORCA ELECTRIC PROPERTIES CALCULATION
------------------------------------------------------------------------------

Dipole Moment Calculation                       ... on
Quadrupole Moment Calculation                   ... off
Polarizability Calculation                      ... off
GBWName                                         ... CA_2b_M06L_def2TZVP_coords.gbw
Electron density                                ... CA_2b_M06L_def2TZVP_coords.scfp
The origin for moment calculation is the CENTER OF MASS  = (-0.001556, -0.001609  0.001073)

-------------
DIPOLE MOMENT
-------------
                                X             Y             Z
Electronic contribution:     -2.09925       0.50734      -0.34770
Nuclear contribution   :      0.52582       0.54399      -0.36258
                        -----------------------------------------
Total Dipole Moment    :     -1.57343       1.05133      -0.71028
                        -----------------------------------------
Magnitude (a.u.)       :      2.02125
Magnitude (Debye)      :      5.13762



--------------------
Rotational spectrum 
--------------------
 
Rotational constants in cm-1:     0.002315     0.002172     0.001481 
Rotational constants in MHz :    69.390748    65.102508    44.409379 

 Dipole components along the rotational axes: 
x,y,z [a.u.] :    -1.575533    -1.056124    -0.698405 
x,y,z [Debye]:    -4.004686    -2.684453    -1.775205 

 

Timings for individual modules:

Sum of individual times         ...   386649.260 sec (=6444.154 min)
GTO integral calculation        ...        6.099 sec (=   0.102 min)   0.0 %
SCF iterations                  ...     2128.239 sec (=  35.471 min)   0.6 %
MP2 module                      ...    27802.832 sec (= 463.381 min)   7.2 %
CIS module                      ...   356712.090 sec (=5945.201 min)  92.3 %
                             ****ORCA TERMINATED NORMALLY****
TOTAL RUN TIME: 4 days 11 hours 24 minutes 36 seconds 477 msec
