
                                 *****************
                                 * O   R   C   A *
                                 *****************

                                            #,                                       
                                            ###                                      
                                            ####                                     
                                            #####                                    
                                            ######                                   
                                           ########,                                 
                                     ,,################,,,,,                         
                               ,,#################################,,                 
                          ,,##########################################,,             
                       ,#########################################, ''#####,          
                    ,#############################################,,   '####,        
                  ,##################################################,,,,####,       
                ,###########''''           ''''###############################       
              ,#####''   ,,,,##########,,,,          '''####'''          '####       
            ,##' ,,,,###########################,,,                        '##       
           ' ,,###''''                  '''############,,,                           
         ,,##''                                '''############,,,,        ,,,,,,###''
      ,#''                                            '''#######################'''  
     '                                                          ''''####''''         
             ,#######,   #######,   ,#######,      ##                                
            ,#'     '#,  ##    ##  ,#'     '#,    #''#        ######   ,####,        
            ##       ##  ##   ,#'  ##            #'  '#       #        #'  '#        
            ##       ##  #######   ##           ,######,      #####,   #    #        
            '#,     ,#'  ##    ##  '#,     ,#' ,#      #,         ##   #,  ,#        
             '#######'   ##     ##  '#######'  #'      '#     #####' # '####'        



                  #######################################################
                  #                        -***-                        #
                  #          Department of theory and spectroscopy      #
                  #    Directorship and core code : Frank Neese         #
                  #        Max Planck Institute fuer Kohlenforschung    #
                  #                Kaiser Wilhelm Platz 1               #
                  #                 D-45470 Muelheim/Ruhr               #
                  #                      Germany                        #
                  #                                                     #
                  #                  All rights reserved                #
                  #                        -***-                        #
                  #######################################################


                         Program Version 5.0.2 -  RELEASE  -


 With contributions from (in alphabetic order):
   Daniel Aravena         : Magnetic Suceptibility
   Michael Atanasov       : Ab Initio Ligand Field Theory (pilot matlab implementation)
   Alexander A. Auer      : GIAO ZORA, VPT2 properties, NMR spectrum
   Ute Becker             : Parallelization
   Giovanni Bistoni       : ED, misc. LED, open-shell LED, HFLD
   Martin Brehm           : Molecular dynamics
   Dmytro Bykov           : SCF Hessian
   Vijay G. Chilkuri      : MRCI spin determinant printing, contributions to CSF-ICE
   Dipayan Datta          : RHF DLPNO-CCSD density
   Achintya Kumar Dutta   : EOM-CC, STEOM-CC
   Dmitry Ganyushin       : Spin-Orbit,Spin-Spin,Magnetic field MRCI
   Miquel Garcia          : C-PCM and meta-GGA Hessian, CC/C-PCM, Gaussian charge scheme
   Yang Guo               : DLPNO-NEVPT2, F12-NEVPT2, CIM, IAO-localization
   Andreas Hansen         : Spin unrestricted coupled pair/coupled cluster methods
   Benjamin Helmich-Paris : MC-RPA, TRAH-SCF, COSX integrals
   Lee Huntington         : MR-EOM, pCC
   Robert Izsak           : Overlap fitted RIJCOSX, COSX-SCS-MP3, EOM
   Marcus Kettner         : VPT2
   Christian Kollmar      : KDIIS, OOCD, Brueckner-CCSD(T), CCSD density, CASPT2, CASPT2-K
   Simone Kossmann        : Meta GGA functionals, TD-DFT gradient, OOMP2, MP2 Hessian
   Martin Krupicka        : Initial AUTO-CI
   Lucas Lang             : DCDCAS
   Marvin Lechner         : AUTO-CI (C++ implementation), FIC-MRCC
   Dagmar Lenk            : GEPOL surface, SMD
   Dimitrios Liakos       : Extrapolation schemes; Compound Job, initial MDCI parallelization
   Dimitrios Manganas     : Further ROCIS development; embedding schemes
   Dimitrios Pantazis     : SARC Basis sets
   Anastasios Papadopoulos: AUTO-CI, single reference methods and gradients
   Taras Petrenko         : DFT Hessian,TD-DFT gradient, ASA, ECA, R-Raman, ABS, FL, XAS/XES, NRVS
   Peter Pinski           : DLPNO-MP2, DLPNO-MP2 Gradient
   Christoph Reimann      : Effective Core Potentials
   Marius Retegan         : Local ZFS, SOC
   Christoph Riplinger    : Optimizer, TS searches, QM/MM, DLPNO-CCSD(T), (RO)-DLPNO pert. Triples
   Tobias Risthaus        : Range-separated hybrids, TD-DFT gradient, RPA, STAB
   Michael Roemelt        : Original ROCIS implementation
   Masaaki Saitow         : Open-shell DLPNO-CCSD energy and density
   Barbara Sandhoefer     : DKH picture change effects
   Avijit Sen             : IP-ROCIS
   Kantharuban Sivalingam : CASSCF convergence, NEVPT2, FIC-MRCI
   Bernardo de Souza      : ESD, SOC TD-DFT
   Georgi Stoychev        : AutoAux, RI-MP2 NMR, DLPNO-MP2 response
   Willem Van den Heuvel  : Paramagnetic NMR
   Boris Wezisla          : Elementary symmetry handling
   Frank Wennmohs         : Technical directorship


 We gratefully acknowledge several colleagues who have allowed us to
 interface, adapt or use parts of their codes:
   Stefan Grimme, W. Hujo, H. Kruse, P. Pracht,  : VdW corrections, initial TS optimization,
                  C. Bannwarth, S. Ehlert          DFT functionals, gCP, sTDA/sTD-DF
   Ed Valeev, F. Pavosevic, A. Kumar             : LibInt (2-el integral package), F12 methods
   Garnet Chan, S. Sharma, J. Yang, R. Olivares  : DMRG
   Ulf Ekstrom                                   : XCFun DFT Library
   Mihaly Kallay                                 : mrcc  (arbitrary order and MRCC methods)
   Jiri Pittner, Ondrej Demel                    : Mk-CCSD
   Frank Weinhold                                : gennbo (NPA and NBO analysis)
   Christopher J. Cramer and Donald G. Truhlar   : smd solvation model
   Lars Goerigk                                  : TD-DFT with DH, B97 family of functionals
   V. Asgeirsson, H. Jonsson                     : NEB implementation
   FAccTs GmbH                                   : IRC, NEB, NEB-TS, DLPNO-Multilevel, CI-OPT
                                                   MM, QMMM, 2- and 3-layer-ONIOM, Crystal-QMMM,
                                                   LR-CPCM, SF, NACMEs, symmetry and pop. for TD-DFT,
                                                   nearIR, NL-DFT gradient (VV10), updates on ESD,
                                                   ML-optimized integration grids
   S Lehtola, MJT Oliveira, MAL Marques          : LibXC Library
   Liviu Ungur et al                             : ANISO software


 Your calculation uses the libint2 library for the computation of 2-el integrals
 For citations please refer to: http://libint.valeyev.net

 Your ORCA version has been built with support for libXC version: 5.1.0
 For citations please refer to: https://tddft.org/programs/libxc/

 This ORCA versions uses:
   CBLAS   interface :  Fast vector & matrix operations
   LAPACKE interface :  Fast linear algebra routines
   SCALAPACK package :  Parallel linear algebra routines
   Shared memory     :  Shared parallel matrices
   BLAS/LAPACK       :  OpenBLAS 0.3.15  USE64BITINT DYNAMIC_ARCH NO_AFFINITY Prescott SINGLE_THREADED
        Core in use  :  Prescott
   Copyright (c) 2011-2014, The OpenBLAS Project


Your calculation utilizes the SMD solvation module
Please cite in your paper:
A.V. Marenich, C.J. Cramer, D.G. Truhlar J. Phys. Chem. B, 113, (2009), 6378 

================================================================================

----- Orbital basis set information -----
Your calculation utilizes the basis: def2-TZVP
   F. Weigend and R. Ahlrichs, Phys. Chem. Chem. Phys. 7, 3297 (2005).

----- AuxJ basis set information -----
Your calculation utilizes the auxiliary basis: def2/J
   F. Weigend, Phys. Chem. Chem. Phys. 8, 1057 (2006).

----- AuxC basis set information -----
Your calculation utilizes the auxiliary basis: def2-TZVP/C
  H-La, Hf-Rn : A. Hellweg, C. Hattig, S. Hofener and W. Klopper, Theor. Chem. Acc. 117, 587 (2007).
        Ce-Lu : J. Chmela and M. E. Harding, Mol. Phys. (2018).

================================================================================
                                        WARNINGS
                       Please study these warnings very carefully!
================================================================================

INFO   : Checking CIS options ...
  ===> : (D) CORRECTION FOUND - SETTING MODE=3
  ===> : JK MODE FOUND - ACTIVATING RI-MP2 CODE
  ===> : MP2 AND CIS FOUND - CHECKING
WARNING: CIS(D) and MP2 runs must have the same orbital window
  ===> : adjusting orbital windows

WARNING: No MP2 level density has been requested!
         To caclulate MP2 level properties use
         %mp2 Density relaxed end
         or
         %mp2 Density unrelaxed end
         Otherwise for double-hybrid DFT only the energy is correct!

WARNING: The frozen-core approximation is turned on by default for 
         the MP2 part of double-hybrid DFT.

WARNING: CIS/ROCIS methods need fully converged wavefunctions
  ===> : Setting SCFConvForced true
         You can overwrite this default with %scf ConvForced false 


INFO   : the flag for use of the SHARK integral package has been found!

================================================================================
                                       INPUT FILE
================================================================================
NAME = Eos_2_M06L_def2TZVP_coords.inp
|  1> %maxcore 20000
|  2> %pal
|  3>  nprocs= 6
|  4> end
|  5> ! RI-SCS-PBE-QIDH   def2-TZVP def2/J def2-TZVP/C RIJCOSX CPCM TightSCF
|  6> %TDDFT  
|  7>    NROOTS   30
|  8>    dcorr 4
|  9>    doscs true 
| 10>    TDA      FALSE
| 11> END 
| 12>  
| 13>  %CPCM 
| 14>    SMD          TRUE 
| 15>    SMDsolvent   "ACETONITRILE"
| 16>  END 
| 17>  
| 18> 
| 19> * xyz -1 1
| 20> C                  -2.68112800    4.35468400   -0.29624100
| 21> C                  -2.46638500    2.91647300   -0.29316200
| 22> C                  -1.17434900    2.43225800   -0.27283500
| 23> C                  -0.01619000    3.25573100   -0.29227000
| 24> C                  -0.23995300    4.65902000   -0.28380400
| 25> C                  -1.49181400    5.17833400   -0.28451800
| 26> C                   1.25145600    2.66180900   -0.27740100
| 27> C                   1.35977700    1.26127800   -0.22155000
| 28> C                   0.18345300    0.47708800   -0.12872000
| 29> C                   0.19354300   -0.89658900   -0.01441500
| 30> C                   1.45793900   -1.61106500   -0.00849200
| 31> C                   2.67266500   -0.80277300   -0.14187200
| 32> C                   2.58430800    0.55968200   -0.23874700
| 33> H                   0.62045500    5.31656400   -0.26601500
| 34> H                  -1.64622200    6.25090200   -0.27252400
| 35> H                   3.49458900    1.13360400   -0.36137300
| 36> O                  -1.03310700    1.08102900   -0.18618800
| 37> O                   1.50541700   -2.84929500    0.13859500
| 38> O                  -3.82076100    4.86513800   -0.31508400
| 39> C                   2.47273600    3.49384400   -0.36190800
| 40> C                   2.69883400    4.23995900   -1.51950500
| 41> C                   3.44361800    3.50094300    0.65171600
| 42> C                   3.85366200    4.98950200   -1.67470000
| 43> H                   1.95893500    4.21651800   -2.31090400
| 44> C                   4.60885400    4.24115100    0.47221100
| 45> C                   4.81337300    4.99253300   -0.67304700
| 46> H                   4.00503700    5.56296000   -2.58045400
| 47> H                   5.35364300    4.22379200    1.25827700
| 48> H                   5.71936700    5.57461700   -0.78646100
| 49> C                   3.25485300    2.74620200    1.94076200
| 50> O                   4.26264600    2.16215400    2.42321100
| 51> O                   2.11324100    2.75797000    2.47071000
| 52> C                  -3.63010000    2.01597500   -0.30242700
| 53> C                  -4.68912700    2.22171200    0.58946600
| 54> C                  -3.73405500    0.95475000   -1.20658500
| 55> C                  -5.79890500    1.39914700    0.58280800
| 56> H                  -4.63139500    3.03644900    1.29752500
| 57> C                  -4.84641100    0.13003900   -1.22486100
| 58> H                  -2.93582100    0.77764400   -1.91595500
| 59> C                  -5.88562400    0.35412800   -0.33157900
| 60> H                  -6.60450700    1.56864900    1.28680700
| 61> H                  -4.90752300   -0.68352200   -1.93678100
| 62> C                  -1.05499400   -1.66637300    0.12151500
| 63> C                  -2.02167300   -1.33450000    1.07464700
| 64> C                  -1.29313800   -2.77983400   -0.69190800
| 65> C                  -3.17891600   -2.08171300    1.21766200
| 66> H                  -1.85939100   -0.48509200    1.72588700
| 67> C                  -2.44855700   -3.52574200   -0.56201100
| 68> H                  -0.55954000   -3.05617800   -1.43648900
| 69> C                  -3.39267700   -3.18414200    0.40154400
| 70> H                  -3.91028000   -1.81061100    1.96826300
| 71> H                  -2.61863000   -4.38023100   -1.20556200
| 72> C                   3.99474900   -1.44309900   -0.15135800
| 73> C                   5.08770600   -0.80947800    0.45258100
| 74> C                   4.21957300   -2.67704800   -0.77819600
| 75> C                   6.35152800   -1.37316400    0.42994400
| 76> H                   4.93850500    0.13445000    0.96641800
| 77> C                   5.47982200   -3.24094700   -0.80682600
| 78> H                   3.39494000   -3.18538400   -1.25482000
| 79> C                   6.55223000   -2.59330500   -0.19998700
| 80> H                   7.17820300   -0.86699200    0.91047700
| 81> H                   5.63668800   -4.18961400   -1.30661300
| 82> C                  -7.08497800   -0.53032900   -0.30357300
| 83> C                  -4.63860500   -3.99472000    0.51110700
| 84> C                   7.89544300   -3.23796600   -0.23299000
| 85> F                   8.85063900   -2.49701700    0.34675200
| 86> F                   8.31390400   -3.48907800   -1.49318500
| 87> F                   7.90463900   -4.43557600    0.39533800
| 88> F                  -4.39417900   -5.32032900    0.45561000
| 89> F                  -5.31171900   -3.77545300    1.64995800
| 90> F                  -5.50260900   -3.74185300   -0.49977000
| 91> F                  -7.20423100   -1.29237500   -1.40047400
| 92> F                  -7.07063800   -1.37756500    0.75233200
| 93> F                  -8.23395800    0.16792900   -0.19059600
| 94> Na                  2.92809000    1.39962500    4.10281200
| 95> *
| 96> 
| 97> 
| 98> 
| 99>                          ****END OF INPUT****
================================================================================

                       ****************************
                       * Single Point Calculation *
                       ****************************

---------------------------------
CARTESIAN COORDINATES (ANGSTROEM)
---------------------------------
  C     -2.681128    4.354684   -0.296241
  C     -2.466385    2.916473   -0.293162
  C     -1.174349    2.432258   -0.272835
  C     -0.016190    3.255731   -0.292270
  C     -0.239953    4.659020   -0.283804
  C     -1.491814    5.178334   -0.284518
  C      1.251456    2.661809   -0.277401
  C      1.359777    1.261278   -0.221550
  C      0.183453    0.477088   -0.128720
  C      0.193543   -0.896589   -0.014415
  C      1.457939   -1.611065   -0.008492
  C      2.672665   -0.802773   -0.141872
  C      2.584308    0.559682   -0.238747
  H      0.620455    5.316564   -0.266015
  H     -1.646222    6.250902   -0.272524
  H      3.494589    1.133604   -0.361373
  O     -1.033107    1.081029   -0.186188
  O      1.505417   -2.849295    0.138595
  O     -3.820761    4.865138   -0.315084
  C      2.472736    3.493844   -0.361908
  C      2.698834    4.239959   -1.519505
  C      3.443618    3.500943    0.651716
  C      3.853662    4.989502   -1.674700
  H      1.958935    4.216518   -2.310904
  C      4.608854    4.241151    0.472211
  C      4.813373    4.992533   -0.673047
  H      4.005037    5.562960   -2.580454
  H      5.353643    4.223792    1.258277
  H      5.719367    5.574617   -0.786461
  C      3.254853    2.746202    1.940762
  O      4.262646    2.162154    2.423211
  O      2.113241    2.757970    2.470710
  C     -3.630100    2.015975   -0.302427
  C     -4.689127    2.221712    0.589466
  C     -3.734055    0.954750   -1.206585
  C     -5.798905    1.399147    0.582808
  H     -4.631395    3.036449    1.297525
  C     -4.846411    0.130039   -1.224861
  H     -2.935821    0.777644   -1.915955
  C     -5.885624    0.354128   -0.331579
  H     -6.604507    1.568649    1.286807
  H     -4.907523   -0.683522   -1.936781
  C     -1.054994   -1.666373    0.121515
  C     -2.021673   -1.334500    1.074647
  C     -1.293138   -2.779834   -0.691908
  C     -3.178916   -2.081713    1.217662
  H     -1.859391   -0.485092    1.725887
  C     -2.448557   -3.525742   -0.562011
  H     -0.559540   -3.056178   -1.436489
  C     -3.392677   -3.184142    0.401544
  H     -3.910280   -1.810611    1.968263
  H     -2.618630   -4.380231   -1.205562
  C      3.994749   -1.443099   -0.151358
  C      5.087706   -0.809478    0.452581
  C      4.219573   -2.677048   -0.778196
  C      6.351528   -1.373164    0.429944
  H      4.938505    0.134450    0.966418
  C      5.479822   -3.240947   -0.806826
  H      3.394940   -3.185384   -1.254820
  C      6.552230   -2.593305   -0.199987
  H      7.178203   -0.866992    0.910477
  H      5.636688   -4.189614   -1.306613
  C     -7.084978   -0.530329   -0.303573
  C     -4.638605   -3.994720    0.511107
  C      7.895443   -3.237966   -0.232990
  F      8.850639   -2.497017    0.346752
  F      8.313904   -3.489078   -1.493185
  F      7.904639   -4.435576    0.395338
  F     -4.394179   -5.320329    0.455610
  F     -5.311719   -3.775453    1.649958
  F     -5.502609   -3.741853   -0.499770
  F     -7.204231   -1.292375   -1.400474
  F     -7.070638   -1.377565    0.752332
  F     -8.233958    0.167929   -0.190596
  Na     2.928090    1.399625    4.102812

----------------------------
CARTESIAN COORDINATES (A.U.)
----------------------------
  NO LB      ZA    FRAG     MASS         X           Y           Z
   0 C     6.0000    0    12.011   -5.066598    8.229160   -0.559814
   1 C     6.0000    0    12.011   -4.660792    5.511335   -0.553996
   2 C     6.0000    0    12.011   -2.219198    4.596302   -0.515583
   3 C     6.0000    0    12.011   -0.030595    6.152440   -0.552310
   4 C     6.0000    0    12.011   -0.453445    8.804272   -0.536312
   5 C     6.0000    0    12.011   -2.819120    9.785633   -0.537661
   6 C     6.0000    0    12.011    2.364909    5.030090   -0.524212
   7 C     6.0000    0    12.011    2.569606    2.383470   -0.418669
   8 C     6.0000    0    12.011    0.346676    0.901566   -0.243246
   9 C     6.0000    0    12.011    0.365743   -1.694308   -0.027240
  10 C     6.0000    0    12.011    2.755105   -3.044472   -0.016048
  11 C     6.0000    0    12.011    5.050605   -1.517021   -0.268099
  12 C     6.0000    0    12.011    4.883634    1.057646   -0.451166
  13 H     1.0000    0     1.008    1.172490   10.046850   -0.502695
  14 H     1.0000    0     1.008   -3.110909   11.812493   -0.514996
  15 H     1.0000    0     1.008    6.603816    2.142201   -0.682896
  16 O     8.0000    0    15.999   -1.952289    2.042849   -0.351844
  17 O     8.0000    0    15.999    2.844826   -5.384387    0.261907
  18 O     8.0000    0    15.999   -7.220192    9.193778   -0.595422
  19 C     6.0000    0    12.011    4.672794    6.602408   -0.683907
  20 C     6.0000    0    12.011    5.100057    8.012361   -2.871448
  21 C     6.0000    0    12.011    6.507495    6.615823    1.231565
  22 C     6.0000    0    12.011    7.282366    9.428792   -3.164724
  23 H     1.0000    0     1.008    3.701851    7.968064   -4.366976
  24 C     6.0000    0    12.011    8.709472    8.014614    0.892349
  25 C     6.0000    0    12.011    9.095957    9.434520   -1.271875
  26 H     1.0000    0     1.008    7.568423   10.512471   -4.876351
  27 H     1.0000    0     1.008   10.116919    7.981810    2.377799
  28 H     1.0000    0     1.008   10.808037   10.534499   -1.486196
  29 C     6.0000    0    12.011    6.150781    5.189570    3.667509
  30 O     8.0000    0    15.999    8.055234    4.085879    4.579205
  31 O     8.0000    0    15.999    3.993447    5.211808    4.668965
  32 C     6.0000    0    12.011   -6.859895    3.809641   -0.571504
  33 C     6.0000    0    12.011   -8.861166    4.198427    1.113929
  34 C     6.0000    0    12.011   -7.056341    1.804216   -2.280115
  35 C     6.0000    0    12.011  -10.958342    2.644005    1.101348
  36 H     1.0000    0     1.008   -8.752068    5.738057    2.451967
  37 C     6.0000    0    12.011   -9.158390    0.245738   -2.314652
  38 H     1.0000    0     1.008   -5.547898    1.469534   -3.620630
  39 C     6.0000    0    12.011  -11.122217    0.669205   -0.626594
  40 H     1.0000    0     1.008  -12.480709    2.964317    2.431713
  41 H     1.0000    0     1.008   -9.273874   -1.291669   -3.659986
  42 C     6.0000    0    12.011   -1.993650   -3.148989    0.229630
  43 C     6.0000    0    12.011   -3.820408   -2.521840    2.030789
  44 C     6.0000    0    12.011   -2.443677   -5.253125   -1.307517
  45 C     6.0000    0    12.011   -6.007281   -3.933867    2.301048
  46 H     1.0000    0     1.008   -3.513740   -0.916691    3.261454
  47 C     6.0000    0    12.011   -4.627102   -6.662687   -1.062047
  48 H     1.0000    0     1.008   -1.057377   -5.775339   -2.714571
  49 C     6.0000    0    12.011   -6.411230   -6.017156    0.758808
  50 H     1.0000    0     1.008   -7.389358   -3.421559    3.719478
  51 H     1.0000    0     1.008   -4.948494   -8.277437   -2.278182
  52 C     6.0000    0    12.011    7.548982   -2.727062   -0.286025
  53 C     6.0000    0    12.011    9.614371   -1.529692    0.855254
  54 C     6.0000    0    12.011    7.973837   -5.058888   -1.470577
  55 C     6.0000    0    12.011   12.002648   -2.594904    0.812476
  56 H     1.0000    0     1.008    9.332422    0.254074    1.826265
  57 C     6.0000    0    12.011   10.355363   -6.124502   -1.524680
  58 H     1.0000    0     1.008    6.415507   -6.019503   -2.371266
  59 C     6.0000    0    12.011   12.381920   -4.900636   -0.377921
  60 H     1.0000    0     1.008   13.564838   -1.638377    1.720552
  61 H     1.0000    0     1.008   10.651797   -7.917223   -2.469141
  62 C     6.0000    0    12.011  -13.388668   -1.002177   -0.573670
  63 C     6.0000    0    12.011   -8.765693   -7.548927    0.965852
  64 C     6.0000    0    12.011   14.920225   -6.118869   -0.440287
  65 F     9.0000    0    18.998   16.725284   -4.718678    0.655266
  66 F     9.0000    0    18.998   15.711002   -6.593402   -2.821711
  67 F     9.0000    0    18.998   14.937603   -8.382024    0.747081
  68 F     9.0000    0    18.998   -8.303795  -10.053965    0.860978
  69 F     9.0000    0    18.998  -10.037694   -7.134572    3.117969
  70 F     9.0000    0    18.998  -10.398424   -7.071077   -0.944428
  71 F     9.0000    0    18.998  -13.614024   -2.442235   -2.646512
  72 F     9.0000    0    18.998  -13.361569   -2.603221    1.421701
  73 F     9.0000    0    18.998  -15.559926    0.317340   -0.360174
  74 Na   11.0000    0    22.990    5.533288    2.644908    7.753191

--------------------------------
INTERNAL COORDINATES (ANGSTROEM)
--------------------------------
 C      0   0   0     0.000000000000     0.00000000     0.00000000
 C      1   0   0     1.454157803270     0.00000000     0.00000000
 C      2   1   0     1.379939990887   119.03520320     0.00000000
 C      3   2   1     1.421202930702   124.02026806   358.15483438
 C      4   3   2     1.421042424013   116.34529203     2.31651796
 C      5   4   3     1.355301997236   121.58936418   358.71120098
 C      4   3   2     1.399961003229   119.46784068   180.40564377
 C      7   4   3     1.405823550522   119.52714413   358.97188150
 C      8   7   4     1.416795510289   119.34328291   357.55958923
 C      9   8   7     1.378461439959   123.43085282   182.72138967
 C     10   9   8     1.452311358257   119.79915647   358.90588767
 C     11  10   9     1.465157137218   116.74550792   359.37965163
 C     12  11  10     1.368749557844   120.13655859     1.23532621
 H      5   4   3     1.083043160230   118.32967733   178.07139141
 H      6   5   4     1.083691746358   120.71991342   179.66368606
 H     13  12  11     1.083067448002   118.76550594   181.50550953
 O      9   8   7     1.359435741808   119.62656887     4.43603139
 O     11  10   9     1.247839043688   121.45141409   177.55108222
 O      1   2   3     1.248872178990   122.61828510   179.94923762
 C      7   4   3     1.480185296736   120.53236582   177.08342366
 C     20   7   4     1.395649925031   118.78516334   296.22116761
 C     20   7   4     1.403601035587   122.16314235   119.71371607
 C     21  20   7     1.385470283499   121.14214894   182.83923378
 H     21  20   7     1.083656951200   118.91829265     2.03695329
 C     22  20   7     1.392086514547   119.24587047   175.97827271
 C     25  22  20     1.384925564010   121.24685968     1.45153133
 H     23  21  20     1.082662817735   119.78910525   180.21169026
 H     25  22  20     1.083010501222   118.26316790   180.87656990
 H     26  25  22     1.082824845711   120.12063730   178.98116112
 C     22  20   7     1.505624718322   121.93943808   355.06768508
 O     30  22  20     1.260760022666   117.36268259   140.76703754
 O     30  22  20     1.258674432517   118.00172768   319.72461623
 C      2   1   3     1.471466985513   119.23935100   179.58335519
 C     33   2   1     1.399763917004   120.29026040   311.79066446
 C     33   2   1     1.398036777633   121.83103957   130.43035433
 C     34  33   2     1.381399550265   121.14598635   179.03738942
 H     34  33   2     1.080961104977   119.19214529   358.72295025
 C     35  33   2     1.384853102835   121.35318005   181.34846702
 H     35  33   2     1.082473949290   119.54994957     0.64766215
 C     38  35  33     1.388572025793   119.77168956     0.05187334
 H     36  34  33     1.083208245172   120.07758395   179.44158783
 H     38  35  33     1.082795577967   120.09647912   179.73911676
 C     10   9   8     1.473054313977   121.48066220   178.06318799
 C     43  10   9     1.397522302718   121.67623645   309.26837921
 C     43  10   9     1.399344468023   120.42561718   130.64859457
 C     44  43  10     1.384915852550   121.35237055   181.53252660
 H     44  43  10     1.082563132380   119.53255453     0.63739505
 C     45  43  10     1.381392428180   121.15376584   178.90655018
 H     45  43  10     1.081172001811   119.22417181   358.67984433
 C     46  44  43     1.388197412145   119.76411584   359.94992454
 H     46  44  43     1.082493166769   120.06891942   179.50738393
 H     48  45  43     1.083159344718   120.09494932   179.56056430
 C     12  11  10     1.469017860180   120.41564730   180.25851736
 C     53  12  11     1.400276005369   120.16135503   216.01337595
 C     53  12  11     1.402177536484   122.05812963    37.40518543
 C     54  53  12     1.384016036052   121.42596268   181.63765365
 H     54  53  12     1.085029709342   119.37828584     2.84204244
 C     55  53  12     1.380952316737   120.99358670   178.12671456
 H     55  53  12     1.079627487127   119.29079499   358.86402636
 C     56  54  53     1.387745804334   119.84017863   359.89896423
 H     56  54  53     1.081902774420   119.99490847   180.45898068
 H     58  55  53     1.083680333038   119.94237069   180.75138826
 C     40  38  35     1.490469234235   121.23507008   181.29213225
 C     50  46  44     1.490428571330   121.15845858   181.17412198
 C     60  56  54     1.490267816971   121.38201100   180.62952574
 F     65  60  56     1.340710858307   113.17299711   357.46287836
 F     65  60  56     1.351391239830   112.34165912   236.70199649
 F     65  60  56     1.352460851226   112.26507267   118.03614063
 F     64  50  46     1.349097182328   112.32793263   222.88187375
 F     64  50  46     1.340948199777   113.14907979   343.71217798
 F     64  50  46     1.353631020934   112.15318469   104.15838689
 F     63  40  38     1.340942649007   113.16750659   343.93451889
 F     63  40  38     1.353864780663   112.17774252   104.41189186
 F     63  40  38     1.349252784875   112.31616101   223.07513241
 Na    32  30  22     2.274387163662    88.37265790   178.26935031

---------------------------
INTERNAL COORDINATES (A.U.)
---------------------------
 C      0   0   0     0.000000000000     0.00000000     0.00000000
 C      1   0   0     2.747960003685     0.00000000     0.00000000
 C      2   1   0     2.607708664023   119.03520320     0.00000000
 C      3   2   1     2.685684319752   124.02026806   358.15483438
 C      4   3   2     2.685381006069   116.34529203     2.31651796
 C      5   4   3     2.561149603533   121.58936418   358.71120098
 C      4   3   2     2.645542894272   119.46784068   180.40564377
 C      7   4   3     2.656621503104   119.52714413   358.97188150
 C      8   7   4     2.677355502216   119.34328291   357.55958923
 C      9   8   7     2.604914607693   123.43085282   182.72138967
 C     10   9   8     2.744470728288   119.79915647   358.90588767
 C     11  10   9     2.768745732502   116.74550792   359.37965163
 C     12  11  10     2.586561810252   120.13655859     1.23532621
 H      5   4   3     2.046654964051   118.32967733   178.07139141
 H      6   5   4     2.047880614207   120.71991342   179.66368606
 H     13  12  11     2.046700861288   118.76550594   181.50550953
 O      9   8   7     2.568961248681   119.62656887     4.43603139
 O     11  10   9     2.358074051785   121.45141409   177.55108222
 O      1   2   3     2.360026394564   122.61828510   179.94923762
 C      7   4   3     2.797144838288   120.53236582   177.08342366
 C     20   7   4     2.637396137136   118.78516334   296.22116761
 C     20   7   4     2.652421558548   122.16314235   119.71371607
 C     21  20   7     2.618159402499   121.14214894   182.83923378
 H     21  20   7     2.047814860887   118.91829265     2.03695329
 C     22  20   7     2.630662267220   119.24587047   175.97827271
 C     25  22  20     2.617130031846   121.24685968     1.45153133
 H     23  21  20     2.045936220898   119.78910525   180.21169026
 H     25  22  20     2.046593247471   118.26316790   180.87656990
 H     26  25  22     2.046242409398   120.12063730   178.98116112
 C     22  20   7     2.845218378091   121.93943808   355.06768508
 O     30  22  20     2.382491163436   117.36268259   140.76703754
 O     30  22  20     2.378549969226   118.00172768   319.72461623
 C      2   1   3     2.780669617726   119.23935100   179.58335519
 C     33   2   1     2.645170455283   120.29026040   311.79066446
 C     33   2   1     2.641906634876   121.83103957   130.43035433
 C     34  33   2     2.610466831523   121.14598635   179.03738942
 H     34  33   2     2.042720449828   119.19214529   358.72295025
 C     35  33   2     2.616993100070   121.35318005   181.34846702
 H     35  33   2     2.045579311263   119.54994957     0.64766215
 C     38  35  33     2.624020845972   119.77168956     0.05187334
 H     36  34  33     2.046966929381   120.07758395   179.44158783
 H     38  35  33     2.046187101379   120.09647912   179.73911676
 C     10   9   8     2.783669233807   121.48066220   178.06318799
 C     43  10   9     2.640934418184   121.67623645   309.26837921
 C     43  10   9     2.644377811581   120.42561718   130.64859457
 C     44  43  10     2.617111679845   121.35237055   181.53252660
 H     44  43  10     2.045747842878   119.53255453     0.63739505
 C     45  43  10     2.610453372733   121.15376584   178.90655018
 H     45  43  10     2.043118987087   119.22417181   358.67984433
 C     46  44  43     2.623312928772   119.76411584   359.94992454
 H     46  44  43     2.045615627034   120.06891942   179.50738393
 H     48  45  43     2.046874520916   120.09494932   179.56056430
 C     12  11  10     2.776041441579   120.41564730   180.25851736
 C     53  12  11     2.646138162048   120.16135503   216.01337595
 C     53  12  11     2.649731535092   122.05812963    37.40518543
 C     54  53  12     2.615411273093   121.42596268   181.63765365
 H     54  53  12     2.050408997824   119.37828584     2.84204244
 C     55  53  12     2.609621682637   120.99358670   178.12671456
 H     55  53  12     2.040200277324   119.29079499   358.86402636
 C     56  54  53     2.622459513689   119.84017863   359.89896423
 H     56  54  53     2.044499947184   119.99490847   180.45898068
 H     58  55  53     2.047859046159   119.94237069   180.75138826
 C     40  38  35     2.816578663739   121.23507008   181.29213225
 C     50  46  44     2.816501821985   121.15845858   181.17412198
 C     60  56  54     2.816198040272   121.38201100   180.62952574
 F     65  60  56     2.533576346974   113.17299711   357.46287836
 F     65  60  56     2.553759343060   112.34165912   236.70199649
 F     65  60  56     2.555780615668   112.26507267   118.03614063
 F     64  50  46     2.549424202645   112.32793263   222.88187375
 F     64  50  46     2.534024857354   113.14907979   343.71217798
 F     64  50  46     2.557991915945   112.15318469   104.15838689
 F     63  40  38     2.534014367918   113.16750659   343.93451889
 F     63  40  38     2.558433657815   112.17774252   104.41189186
 F     63  40  38     2.549718248844   112.31616101   223.07513241
 Na    32  30  22     4.297968861827    88.37265790   178.26935031

---------------------
BASIS SET INFORMATION
---------------------
There are 5 groups of distinct atoms

 Group   1 Type C   : 11s6p2d1f contracted to 5s3p2d1f pattern {62111/411/11/1}
 Group   2 Type H   : 5s1p contracted to 3s1p pattern {311/1}
 Group   3 Type O   : 11s6p2d1f contracted to 5s3p2d1f pattern {62111/411/11/1}
 Group   4 Type F   : 11s6p2d1f contracted to 5s3p2d1f pattern {62111/411/11/1}
 Group   5 Type Na  : 14s8p3d contracted to 5s4p3d pattern {73211/5111/111}

Atom   0C    basis set group =>   1
Atom   1C    basis set group =>   1
Atom   2C    basis set group =>   1
Atom   3C    basis set group =>   1
Atom   4C    basis set group =>   1
Atom   5C    basis set group =>   1
Atom   6C    basis set group =>   1
Atom   7C    basis set group =>   1
Atom   8C    basis set group =>   1
Atom   9C    basis set group =>   1
Atom  10C    basis set group =>   1
Atom  11C    basis set group =>   1
Atom  12C    basis set group =>   1
Atom  13H    basis set group =>   2
Atom  14H    basis set group =>   2
Atom  15H    basis set group =>   2
Atom  16O    basis set group =>   3
Atom  17O    basis set group =>   3
Atom  18O    basis set group =>   3
Atom  19C    basis set group =>   1
Atom  20C    basis set group =>   1
Atom  21C    basis set group =>   1
Atom  22C    basis set group =>   1
Atom  23H    basis set group =>   2
Atom  24C    basis set group =>   1
Atom  25C    basis set group =>   1
Atom  26H    basis set group =>   2
Atom  27H    basis set group =>   2
Atom  28H    basis set group =>   2
Atom  29C    basis set group =>   1
Atom  30O    basis set group =>   3
Atom  31O    basis set group =>   3
Atom  32C    basis set group =>   1
Atom  33C    basis set group =>   1
Atom  34C    basis set group =>   1
Atom  35C    basis set group =>   1
Atom  36H    basis set group =>   2
Atom  37C    basis set group =>   1
Atom  38H    basis set group =>   2
Atom  39C    basis set group =>   1
Atom  40H    basis set group =>   2
Atom  41H    basis set group =>   2
Atom  42C    basis set group =>   1
Atom  43C    basis set group =>   1
Atom  44C    basis set group =>   1
Atom  45C    basis set group =>   1
Atom  46H    basis set group =>   2
Atom  47C    basis set group =>   1
Atom  48H    basis set group =>   2
Atom  49C    basis set group =>   1
Atom  50H    basis set group =>   2
Atom  51H    basis set group =>   2
Atom  52C    basis set group =>   1
Atom  53C    basis set group =>   1
Atom  54C    basis set group =>   1
Atom  55C    basis set group =>   1
Atom  56H    basis set group =>   2
Atom  57C    basis set group =>   1
Atom  58H    basis set group =>   2
Atom  59C    basis set group =>   1
Atom  60H    basis set group =>   2
Atom  61H    basis set group =>   2
Atom  62C    basis set group =>   1
Atom  63C    basis set group =>   1
Atom  64C    basis set group =>   1
Atom  65F    basis set group =>   4
Atom  66F    basis set group =>   4
Atom  67F    basis set group =>   4
Atom  68F    basis set group =>   4
Atom  69F    basis set group =>   4
Atom  70F    basis set group =>   4
Atom  71F    basis set group =>   4
Atom  72F    basis set group =>   4
Atom  73F    basis set group =>   4
Atom  74Na   basis set group =>   5
---------------------------------
AUXILIARY/J BASIS SET INFORMATION
---------------------------------
There are 5 groups of distinct atoms

 Group   1 Type C   : 12s5p4d2f1g contracted to 6s4p3d1f1g pattern {711111/2111/211/2/1}
 Group   2 Type H   : 5s2p1d contracted to 3s1p1d pattern {311/2/1}
 Group   3 Type O   : 12s5p4d2f1g contracted to 6s4p3d1f1g pattern {711111/2111/211/2/1}
 Group   4 Type F   : 12s5p4d2f1g contracted to 6s4p3d1f1g pattern {711111/2111/211/2/1}
 Group   5 Type Na  : 14s5p5d2f1g contracted to 8s4p4d1f1g pattern {71111111/2111/2111/2/1}

Atom   0C    basis set group =>   1
Atom   1C    basis set group =>   1
Atom   2C    basis set group =>   1
Atom   3C    basis set group =>   1
Atom   4C    basis set group =>   1
Atom   5C    basis set group =>   1
Atom   6C    basis set group =>   1
Atom   7C    basis set group =>   1
Atom   8C    basis set group =>   1
Atom   9C    basis set group =>   1
Atom  10C    basis set group =>   1
Atom  11C    basis set group =>   1
Atom  12C    basis set group =>   1
Atom  13H    basis set group =>   2
Atom  14H    basis set group =>   2
Atom  15H    basis set group =>   2
Atom  16O    basis set group =>   3
Atom  17O    basis set group =>   3
Atom  18O    basis set group =>   3
Atom  19C    basis set group =>   1
Atom  20C    basis set group =>   1
Atom  21C    basis set group =>   1
Atom  22C    basis set group =>   1
Atom  23H    basis set group =>   2
Atom  24C    basis set group =>   1
Atom  25C    basis set group =>   1
Atom  26H    basis set group =>   2
Atom  27H    basis set group =>   2
Atom  28H    basis set group =>   2
Atom  29C    basis set group =>   1
Atom  30O    basis set group =>   3
Atom  31O    basis set group =>   3
Atom  32C    basis set group =>   1
Atom  33C    basis set group =>   1
Atom  34C    basis set group =>   1
Atom  35C    basis set group =>   1
Atom  36H    basis set group =>   2
Atom  37C    basis set group =>   1
Atom  38H    basis set group =>   2
Atom  39C    basis set group =>   1
Atom  40H    basis set group =>   2
Atom  41H    basis set group =>   2
Atom  42C    basis set group =>   1
Atom  43C    basis set group =>   1
Atom  44C    basis set group =>   1
Atom  45C    basis set group =>   1
Atom  46H    basis set group =>   2
Atom  47C    basis set group =>   1
Atom  48H    basis set group =>   2
Atom  49C    basis set group =>   1
Atom  50H    basis set group =>   2
Atom  51H    basis set group =>   2
Atom  52C    basis set group =>   1
Atom  53C    basis set group =>   1
Atom  54C    basis set group =>   1
Atom  55C    basis set group =>   1
Atom  56H    basis set group =>   2
Atom  57C    basis set group =>   1
Atom  58H    basis set group =>   2
Atom  59C    basis set group =>   1
Atom  60H    basis set group =>   2
Atom  61H    basis set group =>   2
Atom  62C    basis set group =>   1
Atom  63C    basis set group =>   1
Atom  64C    basis set group =>   1
Atom  65F    basis set group =>   4
Atom  66F    basis set group =>   4
Atom  67F    basis set group =>   4
Atom  68F    basis set group =>   4
Atom  69F    basis set group =>   4
Atom  70F    basis set group =>   4
Atom  71F    basis set group =>   4
Atom  72F    basis set group =>   4
Atom  73F    basis set group =>   4
Atom  74Na   basis set group =>   5
---------------------------------
AUXILIARY/C BASIS SET INFORMATION
---------------------------------
There are 5 groups of distinct atoms

 Group   1 Type C   : 8s6p5d3f1g contracted to 8s6p4d3f1g pattern {11111111/111111/2111/111/1}
 Group   2 Type H   : 4s3p2d contracted to 4s2p1d pattern {1111/21/2}
 Group   3 Type O   : 8s6p5d3f1g contracted to 8s6p4d3f1g pattern {11111111/111111/2111/111/1}
 Group   4 Type F   : 8s6p5d3f1g contracted to 8s6p4d3f1g pattern {11111111/111111/2111/111/1}
 Group   5 Type Na  : 10s8p6d5f contracted to 10s8p6d5f pattern {1111111111/11111111/111111/11111}

Atom   0C    basis set group =>   1
Atom   1C    basis set group =>   1
Atom   2C    basis set group =>   1
Atom   3C    basis set group =>   1
Atom   4C    basis set group =>   1
Atom   5C    basis set group =>   1
Atom   6C    basis set group =>   1
Atom   7C    basis set group =>   1
Atom   8C    basis set group =>   1
Atom   9C    basis set group =>   1
Atom  10C    basis set group =>   1
Atom  11C    basis set group =>   1
Atom  12C    basis set group =>   1
Atom  13H    basis set group =>   2
Atom  14H    basis set group =>   2
Atom  15H    basis set group =>   2
Atom  16O    basis set group =>   3
Atom  17O    basis set group =>   3
Atom  18O    basis set group =>   3
Atom  19C    basis set group =>   1
Atom  20C    basis set group =>   1
Atom  21C    basis set group =>   1
Atom  22C    basis set group =>   1
Atom  23H    basis set group =>   2
Atom  24C    basis set group =>   1
Atom  25C    basis set group =>   1
Atom  26H    basis set group =>   2
Atom  27H    basis set group =>   2
Atom  28H    basis set group =>   2
Atom  29C    basis set group =>   1
Atom  30O    basis set group =>   3
Atom  31O    basis set group =>   3
Atom  32C    basis set group =>   1
Atom  33C    basis set group =>   1
Atom  34C    basis set group =>   1
Atom  35C    basis set group =>   1
Atom  36H    basis set group =>   2
Atom  37C    basis set group =>   1
Atom  38H    basis set group =>   2
Atom  39C    basis set group =>   1
Atom  40H    basis set group =>   2
Atom  41H    basis set group =>   2
Atom  42C    basis set group =>   1
Atom  43C    basis set group =>   1
Atom  44C    basis set group =>   1
Atom  45C    basis set group =>   1
Atom  46H    basis set group =>   2
Atom  47C    basis set group =>   1
Atom  48H    basis set group =>   2
Atom  49C    basis set group =>   1
Atom  50H    basis set group =>   2
Atom  51H    basis set group =>   2
Atom  52C    basis set group =>   1
Atom  53C    basis set group =>   1
Atom  54C    basis set group =>   1
Atom  55C    basis set group =>   1
Atom  56H    basis set group =>   2
Atom  57C    basis set group =>   1
Atom  58H    basis set group =>   2
Atom  59C    basis set group =>   1
Atom  60H    basis set group =>   2
Atom  61H    basis set group =>   2
Atom  62C    basis set group =>   1
Atom  63C    basis set group =>   1
Atom  64C    basis set group =>   1
Atom  65F    basis set group =>   4
Atom  66F    basis set group =>   4
Atom  67F    basis set group =>   4
Atom  68F    basis set group =>   4
Atom  69F    basis set group =>   4
Atom  70F    basis set group =>   4
Atom  71F    basis set group =>   4
Atom  72F    basis set group =>   4
Atom  73F    basis set group =>   4
Atom  74Na   basis set group =>   5


           ************************************************************
           *        Program running with 6 parallel MPI-processes     *
           *              working on a common directory               *
           ************************************************************
------------------------------------------------------------------------------
                           ORCA GTO INTEGRAL CALCULATION
                           -- RI-GTO INTEGRALS CHOSEN --
------------------------------------------------------------------------------
------------------------------------------------------------------------------
                   ___                                                        
                  /   \      - P O W E R E D   B Y -                         
                 /     \                                                     
                 |  |  |   _    _      __       _____    __    __             
                 |  |  |  | |  | |    /  \     |  _  \  |  |  /  |          
                  \  \/   | |  | |   /    \    | | | |  |  | /  /          
                 / \  \   | |__| |  /  /\  \   | |_| |  |  |/  /          
                |  |  |   |  __  | /  /__\  \  |    /   |      \           
                |  |  |   | |  | | |   __   |  |    \   |  |\   \          
                \     /   | |  | | |  |  |  |  | |\  \  |  | \   \       
                 \___/    |_|  |_| |__|  |__|  |_| \__\ |__|  \__/        
                                                                              
                      - O R C A' S   B I G   F R I E N D -                    
                                      &                                       
                       - I N T E G R A L  F E E D E R -                       
                                                                              
 v1 FN, 2020, v2 2021                                                         
------------------------------------------------------------------------------


Reading SHARK input file Eos_2_M06L_def2TZVP_coords.SHARKINP.tmp ... ok
----------------------
SHARK INTEGRAL PACKAGE
----------------------

Number of atoms                             ...     75
Number of basis functions                   ...   1851
Number of shells                            ...    693
Maximum angular momentum                    ...      3
Integral batch strategy                     ... SHARK/LIBINT Hybrid
RI-J (if used) integral strategy            ... SPLIT-RIJ (Revised 2003 algorithm where possible)
Printlevel                                  ...      1
Contraction scheme used                     ... SEGMENTED contraction
Coulomb Range Separation                    ... NOT USED
Exchange Range Separation                   ... NOT USED
Finite Nucleus Model                        ... NOT USED
Auxiliary Coulomb fitting basis             ... AVAILABLE
   # of basis functions in Aux-J            ...   2960
   # of shells in Aux-J                     ...    938
   Maximum angular momentum in Aux-J        ...      4
Auxiliary J/K fitting basis                 ... NOT available
Auxiliary Correlation fitting basis         ... AVAILABLE
   # of basis functions in Aux-C            ...   4564
   # of shells in Aux-C                     ...   1372
   Maximum angular momentum in Aux-C        ...      4
Auxiliary 'external' fitting basis          ... NOT available
Integral threshold                          ...     2.500000e-11
Primitive cut-off                           ...     2.500000e-12
Primitive pair pre-selection threshold      ...     2.500000e-12

Calculating pre-screening integrals         ... done (  1.0 sec) Dimension = 693
Organizing shell pair data                  ... done (  3.1 sec)
Shell pair information
Total number of shell pairs                 ...    240471
Shell pairs after pre-screening             ...    112809
Total number of primitive shell pairs       ...    769482
Primitive shell pairs kept                  ...    217962
          la=0 lb=0:  25463 shell pairs
          la=1 lb=0:  32835 shell pairs
          la=1 lb=1:  10444 shell pairs
          la=2 lb=0:  16160 shell pairs
          la=2 lb=1:  10624 shell pairs
          la=2 lb=2:   2554 shell pairs
          la=3 lb=0:   7130 shell pairs
          la=3 lb=1:   4866 shell pairs
          la=3 lb=2:   2224 shell pairs
          la=3 lb=3:    509 shell pairs

Calculating one electron integrals          ... done (  1.2 sec)
Calculating RI/J V-Matrix + Cholesky decomp.... done (  2.6 sec)
Calculating RI/C V-Matrix + Cholesky decomp.... done (  5.7 sec)
Calculating Nuclear repulsion               ... done (  0.0 sec) ENN=   7728.942416643948 Eh

SHARK setup successfully completed in  17.1 seconds

Maximum memory used throughout the entire GTOINT-calculation: 237.6 MB


           ************************************************************
           *        Program running with 6 parallel MPI-processes     *
           *              working on a common directory               *
           ************************************************************
-------------------------------------------------------------------------------
                                 ORCA SCF
-------------------------------------------------------------------------------

------------
SCF SETTINGS
------------
Hamiltonian:
 Density Functional     Method          .... DFT(GTOs)
 Exchange Functional    Exchange        .... PBE
   PBE kappa parameter   XKappa         ....  0.804000
   PBE mue parameter    XMuePBE         ....  0.219520
 Correlation Functional Correlation     .... PBE
   PBE beta parameter  CBetaPBE         ....  0.066725
 LDA part of GGA corr.  LDAOpt          .... PW91-LDA
 Gradients option       PostSCFGGA      .... off
 Hybrid DFT is turned on
   Fraction HF Exchange ScalHFX         ....  0.690000
   Scaling of DF-GGA-X  ScalDFX         ....  0.310000
   Scaling of DF-GGA-C  ScalDFC         ....  0.670000
   Scaling of DF-LDA-C  ScalLDAC        ....  0.670000
   Perturbative correction              ....  0.330000
   Density functional embedding theory  .... OFF
 RI-approximation to the Coulomb term is turned on
   Number of AuxJ basis functions       .... 2960
   RIJ-COSX (HFX calculated with COS-X)).... on


General Settings:
 Integral files         IntName         .... Eos_2_M06L_def2TZVP_coords
 Hartree-Fock type      HFTyp           .... RHF
 Total Charge           Charge          ....   -1
 Multiplicity           Mult            ....    1
 Number of Electrons    NEL             ....  398
 Basis Dimension        Dim             .... 1851
 Nuclear Repulsion      ENuc            ....   7728.9424166439 Eh

Convergence Acceleration:
 DIIS                   CNVDIIS         .... on
   Start iteration      DIISMaxIt       ....    12
   Startup error        DIISStart       ....  0.200000
   # of expansion vecs  DIISMaxEq       ....     5
   Bias factor          DIISBfac        ....   1.050
   Max. coefficient     DIISMaxC        ....  10.000
 Trust-Rad. Augm. Hess. CNVTRAH         .... auto
   Auto Start mean grad. ratio tolernc. ....  1.125000
   Auto Start start iteration           ....    20
   Auto Start num. interpolation iter.  ....    10
   Max. Number of Micro iterations      ....    16
   Max. Number of Macro iterations      .... Maxiter - #DIIS iter
   Number of Davidson start vectors     ....     2
   Converg. threshold I  (grad. norm)   ....   1.000e-05
   Converg. threshold II (energy diff.) ....   1.000e-08
   Grad. Scal. Fac. for Micro threshold ....   0.100
   Minimum threshold for Micro iter.    ....   0.010
   NR start threshold (gradient norm)   ....   0.001
   Initial trust radius                 ....   0.400
   Minimum AH scaling param. (alpha)    ....   1.000
   Maximum AH scaling param. (alpha)    .... 1000.000
   Orbital update algorithm             .... Taylor
   White noise on init. David. guess    .... on
   Maximum white noise                  ....   0.010
   Quad. conv. algorithm                .... NR
 SOSCF                  CNVSOSCF        .... on
   Start iteration      SOSCFMaxIt      ....   150
   Startup grad/error   SOSCFStart      ....  0.003300
 Level Shifting         CNVShift        .... on
   Level shift para.    LevelShift      ....    0.2500
   Turn off err/grad.   ShiftErr        ....    0.0010
 Zerner damping         CNVZerner       .... off
 Static damping         CNVDamp         .... on
   Fraction old density DampFac         ....    0.7000
   Max. Damping (<1)    DampMax         ....    0.9800
   Min. Damping (>=0)   DampMin         ....    0.0000
   Turn off err/grad.   DampErr         ....    0.1000
 Fernandez-Rico         CNVRico         .... off

SCF Procedure:
 Maximum # iterations   MaxIter         ....   125
 SCF integral mode      SCFMode         .... Direct
   Integral package                     .... SHARK and LIBINT hybrid scheme
 Reset frequency        DirectResetFreq ....    20
 Integral Threshold     Thresh          ....  2.500e-11 Eh
 Primitive CutOff       TCut            ....  2.500e-12 Eh

Convergence Tolerance:
 Convergence Check Mode ConvCheckMode   .... Total+1el-Energy
 Convergence forced     ConvForced      .... 1
 Energy Change          TolE            ....  1.000e-08 Eh
 1-El. energy change                    ....  1.000e-05 Eh
 Orbital Gradient       TolG            ....  1.000e-05
 Orbital Rotation angle TolX            ....  1.000e-05
 DIIS Error             TolErr          ....  5.000e-07


Diagonalization of the overlap matrix:
Smallest eigenvalue                        ... 3.076e-06
Time for diagonalization                   ...    4.944 sec
Threshold for overlap eigenvalues          ... 1.000e-08
Number of eigenvalues below threshold      ... 0
Time for construction of square roots      ...    2.836 sec
Total time needed                          ...    7.985 sec

Time for model grid setup =    4.025 sec

------------------------------
INITIAL GUESS: MODEL POTENTIAL
------------------------------
Loading Hartree-Fock densities                     ... done
Calculating cut-offs                               ... done
Initializing the effective Hamiltonian             ... done
Setting up the integral package (SHARK)            ... done
Starting the Coulomb interaction                   ... done (  13.2 sec)
Reading the grid                                   ... done
Mapping shells                                     ... done
Starting the XC term evaluation                    ... done (   4.2 sec)
  promolecular density results
     # of electrons  =    396.981653890
     EX              =   -360.233209573
     EC              =     -4.884626662
     EX+EC           =   -365.117836235
Transforming the Hamiltonian                       ... done (   2.8 sec)
Diagonalizing the Hamiltonian                      ... done (   3.8 sec)
Back transforming the eigenvectors                 ... done (   1.1 sec)
Now organizing SCF variables                       ... done
                      ------------------
                      INITIAL GUESS DONE (  29.3 sec)
                      ------------------
-------------------
DFT GRID GENERATION
-------------------

General Integration Accuracy     IntAcc      ... 4.388
Radial Grid Type                 RadialGrid  ... OptM3 with GC (2021)
Angular Grid (max. ang.)         AngularGrid ... 4 (Lebedev-302)
Angular grid pruning method      GridPruning ... 4 (adaptive)
Weight generation scheme         WeightScheme... Becke
Basis function cutoff            BFCut       ... 1.0000e-11
Integration weight cutoff        WCut        ... 1.0000e-14
Angular grids for H and He will be reduced by one unit
Partially contracted basis set               ... off
Rotationally invariant grid construction     ... off

Total number of grid points                  ...   394297
Total number of batches                      ...     6200
Average number of points per batch           ...       63
Average number of grid points per atom       ...     5257
Time for grid setup =   13.746 sec

--------------------
COSX GRID GENERATION
--------------------

GRIDX 1
-------
General Integration Accuracy     IntAcc      ... 3.816
Radial Grid Type                 RadialGrid  ... OptM3 with GC (2021)
Angular Grid (max. ang.)         AngularGrid ... 1 (Lebedev-50)
Angular grid pruning method      GridPruning ... 4 (adaptive)
Weight generation scheme         WeightScheme... Becke
Basis function cutoff            BFCut       ... 1.0000e-11
Integration weight cutoff        WCut        ... 1.0000e-14
Angular grids for H and He will be reduced by one unit
Partially contracted basis set               ... on
Rotationally invariant grid construction     ... off

Total number of grid points                  ...    49688
Total number of batches                      ...      806
Average number of points per batch           ...       61
Average number of grid points per atom       ...      663
UseSFitting                                  ... on

GRIDX 2
-------
General Integration Accuracy     IntAcc      ... 4.020
Radial Grid Type                 RadialGrid  ... OptM3 with GC (2021)
Angular Grid (max. ang.)         AngularGrid ... 2 (Lebedev-110)
Angular grid pruning method      GridPruning ... 4 (adaptive)
Weight generation scheme         WeightScheme... Becke
Basis function cutoff            BFCut       ... 1.0000e-11
Integration weight cutoff        WCut        ... 1.0000e-14
Angular grids for H and He will be reduced by one unit
Partially contracted basis set               ... on
Rotationally invariant grid construction     ... off

Total number of grid points                  ...   110754
Total number of batches                      ...     1768
Average number of points per batch           ...       62
Average number of grid points per atom       ...     1477
UseSFitting                                  ... on

GRIDX 3
-------
General Integration Accuracy     IntAcc      ... 4.338
Radial Grid Type                 RadialGrid  ... OptM3 with GC (2021)
Angular Grid (max. ang.)         AngularGrid ... 3 (Lebedev-194)
Angular grid pruning method      GridPruning ... 4 (adaptive)
Weight generation scheme         WeightScheme... Becke
Basis function cutoff            BFCut       ... 1.0000e-11
Integration weight cutoff        WCut        ... 1.0000e-14
Angular grids for H and He will be reduced by one unit
Partially contracted basis set               ... on
Rotationally invariant grid construction     ... off

Total number of grid points                  ...   243013
Total number of batches                      ...     3837
Average number of points per batch           ...       63
Average number of grid points per atom       ...     3240
UseSFitting                                  ... on

Time for X-Grid setup             =   44.170 sec


--------------------
CPCM SOLVATION MODEL
--------------------
CPCM parameters:
  Epsilon                                         ...      35.6880
  Refrac                                          ...       1.3442
  Rsolv                                           ...       1.3000
  Surface type                                    ... GAUSSIAN VDW
  Epsilon function type                           ...         CPCM
Solvent:                                     ... ACETONITRILE
SMD-CDS solvent descriptors:
  Soln                                       ...    1.3442
  Soln25                                     ...    1.3416
  Sola                                       ...    0.0700
  Solb                                       ...    0.3200
  Solg                                       ...   41.2500
  Solc                                       ...    0.0000
  Solh                                       ...    0.0000
Radii:
 Radius for C  used is    3.4960 Bohr (=   1.8500 Ang.)
 Radius for H  used is    2.2677 Bohr (=   1.2000 Ang.)
 Radius for O  used is    4.0969 Bohr (=   2.1680 Ang.)
 Radius for F  used is    3.2692 Bohr (=   1.7300 Ang.)
 Radius for Na used is    4.2897 Bohr (=   2.2700 Ang.)
Calculating surface                               ...        done! (  0.0s)
GEPOL surface points                              ...         3956
GEPOL Volume                                      ...    5087.8061
GEPOL Surface-area                                ...    2492.8086
Calculating surface distance matrix               ...        done! (  0.3s)
Performing Cholesky decomposition & store         ...        done! (  4.0s)
Overall time for CPCM initialization              ...                 4.4s
--------------
SCF ITERATIONS
--------------
ITER       Energy         Delta-E        Max-DP      RMS-DP      [F,P]     Damp
               ***  Starting incremental Fock matrix formation  ***
  0  -3003.6318467718   0.000000000000 0.23620805  0.00099357  0.2996877 0.7000
  1  -3004.1280973926  -0.496250620854 0.24603223  0.00095144  0.1621378 0.7000
                               ***Turning on DIIS***
  2  -3004.3983413547  -0.270243962102 0.39654679  0.00175308  0.0744979 0.0000
  3  -3004.8909958983  -0.492654543578 0.26735711  0.00089606  0.0695225 0.0000
  4  -3004.9390008647  -0.048004966363 0.04474417  0.00018916  0.0140842 0.0000
  5  -3004.9413594596  -0.002358594961 0.04030050  0.00012871  0.0071554 0.0000
                      *** Initiating the SOSCF procedure ***
                           *** Shutting down DIIS ***
                      *** Re-Reading the Fockian *** 
                      *** Removing any level shift *** 
ITER      Energy       Delta-E        Grad      Rot      Max-DP    RMS-DP
  6  -3004.94188772  -0.0005282650  0.001568  0.001568  0.015260  0.000048
               *** Restarting incremental Fock matrix formation ***
  7  -3004.94204392  -0.0001561927  0.001017  0.003247  0.022700  0.000194
  8  -3004.94211422  -0.0000703017  0.000449  0.003371  0.010884  0.000085
  9  -3004.94213254  -0.0000183234  0.000179  0.000410  0.008931  0.000073
 10  -3004.94213816  -0.0000056129  0.000051  0.000185  0.001351  0.000008
 11  -3004.94213864  -0.0000004889  0.000028  0.000117  0.000718  0.000005
 12  -3004.94213875  -0.0000001107  0.000015  0.000113  0.000930  0.000003
 13  -3004.94213878  -0.0000000255  0.000007  0.000051  0.000627  0.000002
                  ***Gradient check signals convergence***
              ***Rediagonalizing the Fockian in SOSCF/NRSCF***

               *****************************************************
               *                     SUCCESS                       *
               *           SCF CONVERGED AFTER  14 CYCLES          *
               *****************************************************

Old exchange energy                            =   -252.756267985 Eh
New exchange energy                            =   -252.756329294 Eh
Exchange energy change after final integration =     -0.000061309 Eh
Total energy after final integration           =  -3004.942200150 Eh
Final COS-X integration done in                =   562.483 sec

SMD CDS free energy correction energy :                -4.95280     Kcal/mol
Total Energy after SMD CDS correction =             -3004.950092936 Eh

----------------
TOTAL SCF ENERGY
----------------

Total Energy       :        -3004.95009294 Eh          -81768.84908 eV

Components:
Nuclear Repulsion  :         7728.94241664 Eh          210315.21538 eV
Electronic Energy  :       -10733.89250958 Eh         -292084.06445 eV
One Electron Energy:       -19573.18231104 Eh         -532613.36822 eV
Two Electron Energy:         8839.28980146 Eh          240529.30377 eV
Max COSX asymmetry :            0.00001470 Eh               0.00040 eV
CPCM Dielectric    :           -0.10762652 Eh              -2.92867 eV
SMD CDS (Gcds)     :           -0.00789279 Eh              -0.21477 eV

Virial components:
Potential Energy   :        -5999.67089051 Eh         -163259.34488 eV
Kinetic Energy     :         2994.72079757 Eh           81490.49580 eV
Virial Ratio       :            2.00341578


DFT components:
N(Alpha)           :      199.000065967796 electrons
N(Beta)            :      199.000065967796 electrons
N(Total)           :      398.000131935592 electrons
E(X)               :     -113.213522669181 Eh       
E(C)               :       -9.166135464046 Eh       
E(XC)              :     -122.379658133227 Eh       
DFET-embed. en.    :        0.000000000000 Eh       
CPCM Solvation Model Properties:
Surface-charge          :            0.95594758
Charge-correction       :           -0.00298303 Eh              -0.08117 eV
Free-energy (cav+disp)  :           -0.00789279 Eh              -0.21477 eV

---------------
SCF CONVERGENCE
---------------

  Last Energy change         ...   -6.1134e-08  Tolerance :   1.0000e-08
  Last MAX-Density change    ...    2.8866e-15  Tolerance :   1.0000e-07
  Last RMS-Density change    ...    1.2464e-17  Tolerance :   5.0000e-09
  Last Orbital Gradient      ...    1.6873e-06  Tolerance :   1.0000e-05
  Last Orbital Rotation      ...    1.1294e-05  Tolerance :   1.0000e-05

             **** THE GBW FILE WAS UPDATED (Eos_2_M06L_def2TZVP_coords.gbw) ****
             **** DENSITY Eos_2_M06L_def2TZVP_coords.scfp WAS UPDATED ****
             **** ENERGY FILE WAS UPDATED (Eos_2_M06L_def2TZVP_coords.en.tmp) ****
             **** THE GBW FILE WAS UPDATED (Eos_2_M06L_def2TZVP_coords.gbw) ****
             **** DENSITY Eos_2_M06L_def2TZVP_coords.scfp WAS UPDATED ****
----------------
ORBITAL ENERGIES
----------------

  NO   OCC          E(Eh)            E(eV) 
   0   2.0000     -39.675592     -1079.6277 
   1   2.0000     -25.709117      -699.5806 
   2   2.0000     -25.707204      -699.5286 
   3   2.0000     -25.707040      -699.5241 
   4   2.0000     -25.703796      -699.4358 
   5   2.0000     -25.703760      -699.4349 
   6   2.0000     -25.703750      -699.4346 
   7   2.0000     -25.703148      -699.4182 
   8   2.0000     -25.700572      -699.3481 
   9   2.0000     -25.700520      -699.3467 
  10   2.0000     -20.071683      -546.1783 
  11   2.0000     -19.951038      -542.8953 
  12   2.0000     -19.950573      -542.8827 
  13   2.0000     -19.939261      -542.5749 
  14   2.0000     -19.938963      -542.5668 
  15   2.0000     -11.082877      -301.5804 
  16   2.0000     -11.081464      -301.5420 
  17   2.0000     -11.081392      -301.5400 
  18   2.0000     -10.923675      -297.2483 
  19   2.0000     -10.908179      -296.8267 
  20   2.0000     -10.906770      -296.7883 
  21   2.0000     -10.886644      -296.2406 
  22   2.0000     -10.882562      -296.1296 
  23   2.0000     -10.877389      -295.9888 
  24   2.0000     -10.844710      -295.0996 
  25   2.0000     -10.841577      -295.0143 
  26   2.0000     -10.840852      -294.9946 
  27   2.0000     -10.840661      -294.9894 
  28   2.0000     -10.839047      -294.9455 
  29   2.0000     -10.838153      -294.9211 
  30   2.0000     -10.838031      -294.9178 
  31   2.0000     -10.833893      -294.8052 
  32   2.0000     -10.831715      -294.7460 
  33   2.0000     -10.831287      -294.7343 
  34   2.0000     -10.830221      -294.7053 
  35   2.0000     -10.830051      -294.7007 
  36   2.0000     -10.829750      -294.6925 
  37   2.0000     -10.829746      -294.6924 
  38   2.0000     -10.829083      -294.6743 
  39   2.0000     -10.828901      -294.6694 
  40   2.0000     -10.826939      -294.6160 
  41   2.0000     -10.826208      -294.5961 
  42   2.0000     -10.825080      -294.5654 
  43   2.0000     -10.824139      -294.5398 
  44   2.0000     -10.823678      -294.5273 
  45   2.0000     -10.822567      -294.4970 
  46   2.0000     -10.820518      -294.4413 
  47   2.0000     -10.820331      -294.4362 
  48   2.0000     -10.820101      -294.4299 
  49   2.0000     -10.819749      -294.4203 
  50   2.0000     -10.819382      -294.4104 
  51   2.0000     -10.819127      -294.4034 
  52   2.0000     -10.818383      -294.3832 
  53   2.0000     -10.811792      -294.2038 
  54   2.0000     -10.811550      -294.1972 
  55   2.0000     -10.802432      -293.9491 
  56   2.0000      -2.567980       -69.8783 
  57   2.0000      -1.580040       -42.9951 
  58   2.0000      -1.579022       -42.9674 
  59   2.0000      -1.578258       -42.9466 
  60   2.0000      -1.488289       -40.4984 
  61   2.0000      -1.487108       -40.4663 
  62   2.0000      -1.486756       -40.4567 
  63   2.0000      -1.481982       -40.3268 
  64   2.0000      -1.480896       -40.2972 
  65   2.0000      -1.480291       -40.2808 
  66   2.0000      -1.369832       -37.2750 
  67   2.0000      -1.369041       -37.2535 
  68   2.0000      -1.368106       -37.2281 
  69   2.0000      -1.340857       -36.4866 
  70   2.0000      -1.265568       -34.4378 
  71   2.0000      -1.214993       -33.0616 
  72   2.0000      -1.211114       -32.9561 
  73   2.0000      -1.161720       -31.6120 
  74   2.0000      -1.082235       -29.4491 
  75   2.0000      -1.074160       -29.2294 
  76   2.0000      -1.071492       -29.1568 
  77   2.0000      -1.070594       -29.1324 
  78   2.0000      -1.050551       -28.5869 
  79   2.0000      -1.047476       -28.5033 
  80   2.0000      -0.999800       -27.2059 
  81   2.0000      -0.992850       -27.0168 
  82   2.0000      -0.978963       -26.6389 
  83   2.0000      -0.962227       -26.1835 
  84   2.0000      -0.941973       -25.6324 
  85   2.0000      -0.937379       -25.5074 
  86   2.0000      -0.931442       -25.3458 
  87   2.0000      -0.931132       -25.3374 
  88   2.0000      -0.929920       -25.3044 
  89   2.0000      -0.924835       -25.1660 
  90   2.0000      -0.915310       -24.9069 
  91   2.0000      -0.899066       -24.4648 
  92   2.0000      -0.872588       -23.7443 
  93   2.0000      -0.864833       -23.5333 
  94   2.0000      -0.860260       -23.4089 
  95   2.0000      -0.815043       -22.1785 
  96   2.0000      -0.808109       -21.9898 
  97   2.0000      -0.794957       -21.6319 
  98   2.0000      -0.786428       -21.3998 
  99   2.0000      -0.779049       -21.1990 
 100   2.0000      -0.773226       -21.0405 
 101   2.0000      -0.772245       -21.0139 
 102   2.0000      -0.771096       -20.9826 
 103   2.0000      -0.765372       -20.8268 
 104   2.0000      -0.757783       -20.6203 
 105   2.0000      -0.743256       -20.2250 
 106   2.0000      -0.742580       -20.2066 
 107   2.0000      -0.739520       -20.1234 
 108   2.0000      -0.736555       -20.0427 
 109   2.0000      -0.733662       -19.9640 
 110   2.0000      -0.731190       -19.8967 
 111   2.0000      -0.729275       -19.8446 
 112   2.0000      -0.724545       -19.7159 
 113   2.0000      -0.706273       -19.2187 
 114   2.0000      -0.703508       -19.1434 
 115   2.0000      -0.700825       -19.0704 
 116   2.0000      -0.683213       -18.5912 
 117   2.0000      -0.675299       -18.3758 
 118   2.0000      -0.665607       -18.1121 
 119   2.0000      -0.652096       -17.7444 
 120   2.0000      -0.634867       -17.2756 
 121   2.0000      -0.631192       -17.1756 
 122   2.0000      -0.630185       -17.1482 
 123   2.0000      -0.627601       -17.0779 
 124   2.0000      -0.627338       -17.0707 
 125   2.0000      -0.626292       -17.0423 
 126   2.0000      -0.623799       -16.9744 
 127   2.0000      -0.621543       -16.9131 
 128   2.0000      -0.605942       -16.4885 
 129   2.0000      -0.603931       -16.4338 
 130   2.0000      -0.602856       -16.4045 
 131   2.0000      -0.596932       -16.2433 
 132   2.0000      -0.590540       -16.0694 
 133   2.0000      -0.589130       -16.0310 
 134   2.0000      -0.587516       -15.9871 
 135   2.0000      -0.584126       -15.8949 
 136   2.0000      -0.583053       -15.8657 
 137   2.0000      -0.582360       -15.8468 
 138   2.0000      -0.582075       -15.8391 
 139   2.0000      -0.578174       -15.7329 
 140   2.0000      -0.576915       -15.6987 
 141   2.0000      -0.574875       -15.6431 
 142   2.0000      -0.570422       -15.5220 
 143   2.0000      -0.569018       -15.4838 
 144   2.0000      -0.568306       -15.4644 
 145   2.0000      -0.565480       -15.3875 
 146   2.0000      -0.564337       -15.3564 
 147   2.0000      -0.563688       -15.3387 
 148   2.0000      -0.563243       -15.3266 
 149   2.0000      -0.559223       -15.2172 
 150   2.0000      -0.556461       -15.1421 
 151   2.0000      -0.554281       -15.0827 
 152   2.0000      -0.547017       -14.8851 
 153   2.0000      -0.544561       -14.8183 
 154   2.0000      -0.538213       -14.6455 
 155   2.0000      -0.533071       -14.5056 
 156   2.0000      -0.531219       -14.4552 
 157   2.0000      -0.530666       -14.4401 
 158   2.0000      -0.523957       -14.2576 
 159   2.0000      -0.521868       -14.2007 
 160   2.0000      -0.517418       -14.0797 
 161   2.0000      -0.514719       -14.0062 
 162   2.0000      -0.508377       -13.8336 
 163   2.0000      -0.497668       -13.5422 
 164   2.0000      -0.491232       -13.3671 
 165   2.0000      -0.490055       -13.3351 
 166   2.0000      -0.480305       -13.0698 
 167   2.0000      -0.479032       -13.0351 
 168   2.0000      -0.475216       -12.9313 
 169   2.0000      -0.470997       -12.8165 
 170   2.0000      -0.470221       -12.7954 
 171   2.0000      -0.467372       -12.7178 
 172   2.0000      -0.463770       -12.6198 
 173   2.0000      -0.456976       -12.4349 
 174   2.0000      -0.452661       -12.3175 
 175   2.0000      -0.450742       -12.2653 
 176   2.0000      -0.446210       -12.1420 
 177   2.0000      -0.445318       -12.1177 
 178   2.0000      -0.444044       -12.0831 
 179   2.0000      -0.434960       -11.8359 
 180   2.0000      -0.423312       -11.5189 
 181   2.0000      -0.413269       -11.2456 
 182   2.0000      -0.376306       -10.2398 
 183   2.0000      -0.374614       -10.1938 
 184   2.0000      -0.365867        -9.9557 
 185   2.0000      -0.362485        -9.8637 
 186   2.0000      -0.345897        -9.4123 
 187   2.0000      -0.345312        -9.3964 
 188   2.0000      -0.342395        -9.3171 
 189   2.0000      -0.340698        -9.2709 
 190   2.0000      -0.326820        -8.8932 
 191   2.0000      -0.325621        -8.8606 
 192   2.0000      -0.323165        -8.7938 
 193   2.0000      -0.319291        -8.6883 
 194   2.0000      -0.317272        -8.6334 
 195   2.0000      -0.311344        -8.4721 
 196   2.0000      -0.292568        -7.9612 
 197   2.0000      -0.271949        -7.4001 
 198   2.0000      -0.228553        -6.2193 
 199   0.0000      -0.018635        -0.5071 
 200   0.0000       0.020218         0.5502 
 201   0.0000       0.021720         0.5910 
 202   0.0000       0.032402         0.8817 
 203   0.0000       0.040676         1.1069 
 204   0.0000       0.043331         1.1791 
 205   0.0000       0.055148         1.5006 
 206   0.0000       0.056718         1.5434 
 207   0.0000       0.058832         1.6009 
 208   0.0000       0.064994         1.7686 
 209   0.0000       0.066744         1.8162 
 210   0.0000       0.067686         1.8418 
 211   0.0000       0.081004         2.2042 
 212   0.0000       0.085251         2.3198 
 213   0.0000       0.098943         2.6924 
 214   0.0000       0.104541         2.8447 
 215   0.0000       0.110150         2.9973 
 216   0.0000       0.121292         3.3005 
 217   0.0000       0.130686         3.5561 
 218   0.0000       0.134733         3.6663 
 219   0.0000       0.136861         3.7242 
 220   0.0000       0.138781         3.7764 
 221   0.0000       0.143309         3.8996 
 222   0.0000       0.146968         3.9992 
 223   0.0000       0.151921         4.1340 
 224   0.0000       0.155615         4.2345 
 225   0.0000       0.158515         4.3134 
 226   0.0000       0.162578         4.4240 
 227   0.0000       0.164428         4.4743 
 228   0.0000       0.165452         4.5022 
 229   0.0000       0.171411         4.6643 
 230   0.0000       0.174890         4.7590 
 231   0.0000       0.177180         4.8213 
 232   0.0000       0.180074         4.9001 
 233   0.0000       0.185976         5.0607 
 234   0.0000       0.189559         5.1582 
 235   0.0000       0.190675         5.1885 
 236   0.0000       0.192368         5.2346 
 237   0.0000       0.194725         5.2987 
 238   0.0000       0.196457         5.3459 
 239   0.0000       0.200999         5.4695 
 240   0.0000       0.208857         5.6833 
 241   0.0000       0.214935         5.8487 
 242   0.0000       0.220434         5.9983 
 243   0.0000       0.220955         6.0125 
 244   0.0000       0.223293         6.0761 
 245   0.0000       0.224954         6.1213 
 246   0.0000       0.227408         6.1881 
 247   0.0000       0.229385         6.2419 
 248   0.0000       0.233566         6.3557 
 249   0.0000       0.235394         6.4054 
 250   0.0000       0.235789         6.4161 
 251   0.0000       0.239034         6.5045 
 252   0.0000       0.242768         6.6060 
 253   0.0000       0.245046         6.6680 
 254   0.0000       0.246867         6.7176 
 255   0.0000       0.249471         6.7885 
 256   0.0000       0.251318         6.8387 
 257   0.0000       0.253052         6.8859 
 258   0.0000       0.255988         6.9658 
 259   0.0000       0.259021         7.0483 
 260   0.0000       0.263858         7.1799 
 261   0.0000       0.266834         7.2609 
 262   0.0000       0.267549         7.2804 
 263   0.0000       0.270891         7.3713 
 264   0.0000       0.272474         7.4144 
 265   0.0000       0.274411         7.4671 
 266   0.0000       0.275403         7.4941 
 267   0.0000       0.278445         7.5769 
 268   0.0000       0.279651         7.6097 
 269   0.0000       0.282513         7.6876 
 270   0.0000       0.285898         7.7797 
 271   0.0000       0.286625         7.7995 
 272   0.0000       0.288436         7.8487 
 273   0.0000       0.291902         7.9431 
 274   0.0000       0.292457         7.9582 
 275   0.0000       0.294740         8.0203 
 276   0.0000       0.299914         8.1611 
 277   0.0000       0.300469         8.1762 
 278   0.0000       0.301900         8.2151 
 279   0.0000       0.304732         8.2922 
 280   0.0000       0.308299         8.3893 
 281   0.0000       0.311484         8.4759 
 282   0.0000       0.312111         8.4930 
 283   0.0000       0.314261         8.5515 
 284   0.0000       0.315790         8.5931 
 285   0.0000       0.318180         8.6581 
 286   0.0000       0.320519         8.7218 
 287   0.0000       0.324920         8.8415 
 288   0.0000       0.325394         8.8544 
 289   0.0000       0.329293         8.9605 
 290   0.0000       0.332859         9.0576 
 291   0.0000       0.336211         9.1488 
 292   0.0000       0.338719         9.2170 
 293   0.0000       0.340365         9.2618 
 294   0.0000       0.341197         9.2844 
 295   0.0000       0.344793         9.3823 
 296   0.0000       0.347639         9.4597 
 297   0.0000       0.350345         9.5334 
 298   0.0000       0.351973         9.5777 
 299   0.0000       0.354391         9.6435 
 300   0.0000       0.354801         9.6546 
 301   0.0000       0.356959         9.7134 
 302   0.0000       0.358276         9.7492 
 303   0.0000       0.359161         9.7733 
 304   0.0000       0.362584         9.8664 
 305   0.0000       0.364447         9.9171 
[...]
   187a -> 199a  :     0.048192 
   188a -> 199a  :     0.028775 
   190a -> 199a  :     0.032869 
   191a -> 199a  :     0.328133 
   191a -> 204a  :     0.011480 
   192a -> 199a  :     0.037563 
   193a -> 199a  :     0.041805 
   193a -> 201a  :     0.011434 
   193a -> 204a  :     0.027398 
   193a -> 205a  :     0.032527 
   195a -> 199a  :     0.017140 
   195a -> 204a  :     0.014616 
   196a -> 199a  :     0.035592 
   196a -> 203a  :     0.013546 
   197a -> 201a  :     0.012123 
   197a -> 203a  :     0.030927 
   198a -> 203a  :     0.018035 
   198a -> 204a  :     0.010019 
   198a -> 205a  :     0.052102 

STATE 19:  E=   0.184823 au      5.029 eV    40564.1 cm**-1 <S**2> =   0.000000
   187a -> 199a  :     0.024695 
   189a -> 201a  :     0.012610 
   191a -> 199a  :     0.014195 
   191a -> 201a  :     0.018484 
   195a -> 199a  :     0.022735 
   195a -> 203a  :     0.020984 
   196a -> 201a  :     0.062769 
   196a -> 203a  :     0.088700 
   196a -> 204a  :     0.020448 
   197a -> 202a  :     0.012045 
   197a -> 203a  :     0.209992 
   197a -> 214a  :     0.011329 
   198a -> 204a  :     0.120547 
   198a -> 205a  :     0.022801 
   198a -> 214a  :     0.068508 

STATE 20:  E=   0.173302 au      4.716 eV    38035.5 cm**-1 <S**2> =   0.000000
   191a -> 199a  :     0.017355 
   197a -> 202a  :     0.065736 
   198a -> 202a  :     0.027883 
   198a -> 204a  :     0.035205 
   198a -> 205a  :     0.627950 
   198a -> 206a  :     0.035162 
   198a -> 212a  :     0.037650 
   198a -> 213a  :     0.018096 

STATE 21:  E=   0.183508 au      4.994 eV    40275.5 cm**-1 <S**2> =   0.000000
   190a -> 203a  :     0.019322 
   192a -> 199a  :     0.018007 
   192a -> 201a  :     0.026650 
   192a -> 203a  :     0.013252 
   195a -> 202a  :     0.016542 
   196a -> 201a  :     0.032751 
   197a -> 202a  :     0.119347 
   197a -> 203a  :     0.014023 
   198a -> 202a  :     0.041838 
   198a -> 206a  :     0.030824 
   198a -> 207a  :     0.035801 
   198a -> 208a  :     0.017037 
   198a -> 212a  :     0.339280 
   198a -> 213a  :     0.058460 

STATE 22:  E=   0.184838 au      5.030 eV    40567.2 cm**-1 <S**2> =   0.000000
   190a -> 201a  :     0.026769 
   190a -> 203a  :     0.044669 
   191a -> 203a  :     0.010865 
   192a -> 201a  :     0.031544 
   192a -> 202a  :     0.011988 
   194a -> 201a  :     0.024553 
   194a -> 202a  :     0.068564 
   194a -> 203a  :     0.038703 
   194a -> 204a  :     0.012984 
   198a -> 200a  :     0.028163 
   198a -> 203a  :     0.014099 
   198a -> 205a  :     0.012368 
   198a -> 206a  :     0.351884 
   198a -> 207a  :     0.078524 
   198a -> 212a  :     0.012426 

STATE 23:  E=   0.194914 au      5.304 eV    42778.7 cm**-1 <S**2> =   0.000000
   190a -> 199a  :     0.035062 
   190a -> 201a  :     0.016388 
   191a -> 199a  :     0.049180 
   191a -> 204a  :     0.020178 
   191a -> 205a  :     0.024480 
   192a -> 199a  :     0.028567 
   192a -> 201a  :     0.019868 
   192a -> 202a  :     0.019290 
   192a -> 203a  :     0.014706 
   193a -> 201a  :     0.057465 
   193a -> 204a  :     0.171559 
   193a -> 205a  :     0.015278 
   193a -> 206a  :     0.012268 
   194a -> 199a  :     0.010679 
   194a -> 202a  :     0.017676 
   195a -> 204a  :     0.019737 
   196a -> 201a  :     0.049430 
   196a -> 204a  :     0.024326 
   198a -> 205a  :     0.011144 
   198a -> 207a  :     0.147266 
   198a -> 212a  :     0.012707 

STATE 24:  E=   0.192263 au      5.232 eV    42196.8 cm**-1 <S**2> =   0.000000
   190a -> 201a  :     0.013955 
   191a -> 199a  :     0.080426 
   191a -> 205a  :     0.020904 
   192a -> 202a  :     0.018484 
   192a -> 203a  :     0.012697 
   192a -> 204a  :     0.025088 
   193a -> 199a  :     0.013143 
   193a -> 201a  :     0.034547 
   193a -> 202a  :     0.013422 
   193a -> 204a  :     0.097994 
   194a -> 199a  :     0.017721 
   194a -> 201a  :     0.029435 
   194a -> 202a  :     0.022749 
   195a -> 205a  :     0.014746 
   196a -> 204a  :     0.010112 
   196a -> 205a  :     0.010057 
   197a -> 202a  :     0.013290 
   198a -> 203a  :     0.010129 
   198a -> 206a  :     0.021766 
   198a -> 207a  :     0.174125 
   198a -> 208a  :     0.025026 
   198a -> 210a  :     0.010387 
   198a -> 212a  :     0.050037 
   198a -> 213a  :     0.010838 

STATE 25:  E=   0.188110 au      5.119 eV    41285.5 cm**-1 <S**2> =   0.000000
   190a -> 201a  :     0.024025 
   190a -> 202a  :     0.041491 
   191a -> 204a  :     0.015359 
   192a -> 199a  :     0.011937 
   192a -> 202a  :     0.029460 
   192a -> 203a  :     0.013471 
   193a -> 199a  :     0.066899 
   193a -> 201a  :     0.010701 
   194a -> 201a  :     0.029536 
   194a -> 202a  :     0.033255 
   194a -> 203a  :     0.047183 
   196a -> 201a  :     0.022050 
   197a -> 200a  :     0.012339 
   197a -> 206a  :     0.012368 
   198a -> 202a  :     0.014079 
   198a -> 208a  :     0.242531 
   198a -> 210a  :     0.112970 
   198a -> 212a  :     0.012995 
   198a -> 213a  :     0.018333 

STATE 26:  E=   0.189473 au      5.156 eV    41584.6 cm**-1 <S**2> =   0.000000
   190a -> 204a  :     0.017136 
   191a -> 199a  :     0.086861 
   191a -> 201a  :     0.032269 
   191a -> 204a  :     0.052777 
   191a -> 205a  :     0.010609 
   192a -> 199a  :     0.036424 
   192a -> 203a  :     0.010012 
   193a -> 199a  :     0.211993 
   193a -> 202a  :     0.011872 
   193a -> 204a  :     0.023233 
   193a -> 205a  :     0.036125 
   195a -> 204a  :     0.030255 
   196a -> 201a  :     0.011172 
   196a -> 205a  :     0.012565 
   198a -> 206a  :     0.016335 
   198a -> 207a  :     0.017544 
   198a -> 208a  :     0.052029 
   198a -> 210a  :     0.011660 
   198a -> 212a  :     0.025059 
   198a -> 213a  :     0.042563 

STATE 27:  E=   0.191457 au      5.210 eV    42020.1 cm**-1 <S**2> =   0.000000
   190a -> 199a  :     0.025610 
   191a -> 199a  :     0.032306 
   191a -> 204a  :     0.018032 
   193a -> 199a  :     0.065512 
   193a -> 204a  :     0.018734 
   193a -> 205a  :     0.010910 
   195a -> 199a  :     0.022134 
   195a -> 202a  :     0.020989 
   196a -> 201a  :     0.011940 
   196a -> 212a  :     0.011323 
   196a -> 213a  :     0.013997 
   197a -> 202a  :     0.010242 
   197a -> 205a  :     0.010231 
   197a -> 212a  :     0.065417 
   198a -> 202a  :     0.025958 
   198a -> 205a  :     0.011887 
   198a -> 206a  :     0.026188 
   198a -> 207a  :     0.010710 
   198a -> 213a  :     0.293686 
   198a -> 214a  :     0.019020 

STATE 28:  E=   0.196687 au      5.352 eV    43167.7 cm**-1 <S**2> =   0.000000
   183a -> 204a  :     0.011729 
   184a -> 204a  :     0.012778 
   187a -> 199a  :     0.022009 
   188a -> 201a  :     0.012029 
   190a -> 206a  :     0.011655 
   194a -> 206a  :     0.010507 
   196a -> 201a  :     0.129113 
   196a -> 202a  :     0.029311 
   197a -> 200a  :     0.011393 
   197a -> 201a  :     0.039612 
   197a -> 202a  :     0.020780 
   197a -> 214a  :     0.019322 
   198a -> 200a  :     0.015976 
   198a -> 201a  :     0.030854 
   198a -> 208a  :     0.010836 
   198a -> 209a  :     0.102175 
   198a -> 210a  :     0.016766 
   198a -> 211a  :     0.021716 
   198a -> 212a  :     0.051398 
   198a -> 213a  :     0.073507 
   198a -> 214a  :     0.015777 

STATE 29:  E=   0.206634 au      5.623 eV    45350.9 cm**-1 <S**2> =   0.000000
   196a -> 200a  :     0.017142 
   197a -> 200a  :     0.133452 
   197a -> 201a  :     0.030211 
   197a -> 204a  :     0.014767 
   197a -> 211a  :     0.016857 
   198a -> 200a  :     0.048637 
   198a -> 208a  :     0.032085 
   198a -> 209a  :     0.112656 
   198a -> 210a  :     0.175471 
   198a -> 211a  :     0.136801 
   198a -> 212a  :     0.030169 
   198a -> 216a  :     0.013440 

STATE 30:  E=   0.213184 au      5.801 eV    46788.4 cm**-1 <S**2> =   0.000000
   190a -> 210a  :     0.012972 
   192a -> 208a  :     0.013345 
   194a -> 206a  :     0.015146 
   194a -> 207a  :     0.020638 
   197a -> 200a  :     0.122648 
   198a -> 207a  :     0.016700 
   198a -> 209a  :     0.339200 
   198a -> 210a  :     0.113465 
   198a -> 214a  :     0.021218 
   198a -> 221a  :     0.010546 


-------------------------
TD-DFT-EXCITATION SPECTRA
-------------------------

Center of mass = (  0.0969, -0.0153,  0.2330)
Calculating the Dipole integrals                  ... done
Transforming integrals                            ... done
Calculating the Linear Momentum integrals         ... done
Transforming integrals                            ... done
Calculating angular momentum integrals            ... done
Transforming integrals                            ... done

-----------------------------------------------------------------------------
         ABSORPTION SPECTRUM VIA TRANSITION ELECTRIC DIPOLE MOMENTS
-----------------------------------------------------------------------------
State   Energy    Wavelength  fosc         T2        TX        TY        TZ  
        (cm-1)      (nm)                 (au**2)    (au)      (au)      (au) 
-----------------------------------------------------------------------------
   1   18859.2    530.2   0.873558306  15.24908  -2.56388   2.94041  -0.17207
   2   27005.7    370.3   0.249508285   3.04162   1.68461   0.43955  -0.10255
   3   27333.3    365.9   0.019341241   0.23295   0.43707  -0.19123  -0.07316
   4   29998.5    333.3   0.103745963   1.13854  -0.67108  -0.82906  -0.02889
   5   33148.2    301.7   0.454721928   4.51608   1.44545   1.55650  -0.06372
   6   32296.6    309.6   0.075709067   0.77173  -0.80711   0.34516  -0.03424
   7   32166.7    310.9   0.189149256   1.93586  -1.35695  -0.30749  -0.00017
   8   30564.4    327.2   0.000392029   0.00422  -0.06238   0.00655  -0.01697
   9   37304.1    268.1   0.027685052   0.24432  -0.11130  -0.47951   0.04475
  10   35743.4    279.8   0.096231782   0.88634   0.88704   0.31282   0.04045
  11   35546.4    281.3   0.020425131   0.18917   0.00056  -0.43492   0.00377
  12   36783.1    271.9   0.051047683   0.45688   0.49759  -0.45448   0.05231
  13   37132.8    269.3   0.117399905   1.04084   0.84048  -0.53035   0.23060
  14   36980.4    270.4   0.011321094   0.10078   0.20790   0.20242  -0.12879
  15   36965.8    270.5   0.026849893   0.23912   0.26577   0.33841  -0.23231
  16   37387.0    267.5   0.054270175   0.47788  -0.64874   0.08762   0.22213
  17   36884.7    271.1   0.103589987   0.92459   0.00303   0.95484  -0.11342
  18   38907.5    257.0   0.022136589   0.18731   0.01522   0.41114  -0.13432
  19   40564.1    246.5   0.198680775   1.61246   1.22023  -0.34438  -0.06996
  20   38035.5    262.9   0.013621910   0.11790   0.14335   0.30423   0.06927
  21   40275.5    248.3   0.117520239   0.96061   0.91993   0.26276  -0.21282
  22   40567.2    246.5   0.043913945   0.35637  -0.41703  -0.42688  -0.01541
  23   42778.7    233.8   0.122108256   0.93971   0.19970   0.92162  -0.22458
  24   42196.8    237.0   0.089115167   0.69526   0.20352   0.42300   0.68914
  25   41285.5    242.2   0.088854114   0.70853  -0.58180   0.32987   0.51110
  26   41584.6    240.5   0.026361995   0.20870  -0.32317  -0.24267  -0.21300
  27   42020.1    238.0   0.060501956   0.47401  -0.44531   0.52193   0.05748
  28   43167.7    231.7   0.084072945   0.64117   0.40460   0.68960  -0.04387
  29   45350.9    220.5   0.041936001   0.30442   0.03636  -0.51708  -0.18903
  30   46788.4    213.7   0.023329119   0.16415   0.22486  -0.25241   0.22333

-----------------------------------------------------------------------------
         ABSORPTION SPECTRUM VIA TRANSITION VELOCITY DIPOLE MOMENTS
-----------------------------------------------------------------------------
State   Energy    Wavelength   fosc        P2         PX        PY        PZ  
        (cm-1)      (nm)                 (au**2)     (au)      (au)      (au) 
-----------------------------------------------------------------------------
   1   18859.2    530.2   1.433092563   0.18472   0.28210  -0.32368   0.01923
   2   27005.7    370.3   0.362099622   0.06683  -0.24977  -0.06493   0.01522
   3   27333.3    365.9   0.031504028   0.00589  -0.06960   0.03008   0.01170
   4   29998.5    333.3   0.151296145   0.03102   0.11139   0.13634   0.00490
   5   33148.2    301.7   0.618588504   0.14014  -0.25437  -0.27443   0.01129
   6   32296.6    309.6   0.111193499   0.02454   0.14383  -0.06178   0.00639
   7   32166.7    310.9   0.286010050   0.06288   0.24460   0.05523  -0.00015
   8   30564.4    327.2   0.000680278   0.00014   0.01153  -0.00125   0.00278
   9   37304.1    268.1   0.032938976   0.00840   0.02115   0.08873  -0.00885
  10   35743.4    279.8   0.129363983   0.03160  -0.16728  -0.05966  -0.00788
  11   35546.4    281.3   0.028798219   0.00700   0.00103   0.08364  -0.00045
  12   36783.1    271.9   0.069004213   0.01735  -0.09687   0.08857  -0.01094
  13   37132.8    269.3   0.159571079   0.04050  -0.16605   0.10453  -0.04468
  14   36980.4    270.4   0.014942067   0.00378  -0.04044  -0.03919   0.02461
  15   36965.8    270.5   0.037626337   0.00951  -0.05222  -0.06777   0.04675
  16   37387.0    267.5   0.074482750   0.01903   0.12994  -0.01685  -0.04318
  17   36884.7    271.1   0.148517150   0.03744  -0.00064  -0.19215   0.02274
  18   38907.5    257.0   0.029178620   0.00776  -0.00291  -0.08360   0.02761
  19   40564.1    246.5   0.249615714   0.06920  -0.25270   0.07164   0.01466
  20   38035.5    262.9   0.019621012   0.00510  -0.02916  -0.06343  -0.01506
  21   40275.5    248.3   0.159865089   0.04400  -0.19699  -0.05521   0.04641
  22   40567.2    246.5   0.061962027   0.01718   0.09217   0.09313   0.00333
  23   42778.7    233.8   0.151285099   0.04423  -0.04284  -0.20036   0.04744
  24   42196.8    237.0   0.116709504   0.03366  -0.04412  -0.09146  -0.15280
  25   41285.5    242.2   0.123378726   0.03481   0.12784  -0.07175  -0.11543
  26   41584.6    240.5   0.036324388   0.01032   0.07199   0.05368   0.04753
  27   42020.1    238.0   0.082585140   0.02372   0.10049  -0.11591  -0.01355
  28   43167.7    231.7   0.112867499   0.03330  -0.09348  -0.15633   0.01106
  29   45350.9    220.5   0.050686266   0.01571  -0.00956   0.11722   0.04334
  30   46788.4    213.7   0.026533087   0.00848  -0.05332   0.05700  -0.04892

-------------------------------------------------------------------
                             CD SPECTRUM
-------------------------------------------------------------------
State  Energy     Wavelength     R         MX        MY        MZ   
       (cm-1)       (nm)     (1e40*cgs)   (au)      (au)      (au)  
-------------------------------------------------------------------
   1   18859.2    530.2    -105.16983   0.13455   0.11430   1.24481
   2   27005.7    370.3     10.97055   0.01869  -0.05059  -0.13675
   3   27333.3    365.9    -18.72497  -0.06432  -0.01141   0.18847
   4   29998.5    333.3     -0.30814  -0.07903   0.04850   0.46676
   5   33148.2    301.7    200.11101   0.33181  -0.05648  -0.51410
   6   32296.6    309.6     76.84494  -0.18254   0.09968   0.54714
   7   32166.7    310.9    -97.48583   0.13559   0.07374   0.66593
   8   30564.4    327.2     -2.09718   0.02163  -0.30237   0.06594
   9   37304.1    268.1     -8.48938  -0.02420   0.02085  -0.23918
  10   35743.4    279.8    -11.71595   0.07022  -0.15336  -0.96824
  11   35546.4    281.3    -15.89420  -0.12634   0.07437  -0.34424
  12   36783.1    271.9     22.87496   0.00647  -0.10874  -0.07872
  13   37132.8    269.3      8.97522   0.11086  -0.07367  -0.49093
  14   36980.4    270.4      0.33139  -0.12352   0.09223  -0.05989
  15   36965.8    270.5    -17.32910  -0.17524   0.20560   0.25725
  16   37387.0    267.5    -33.53861   0.16153  -0.20652   0.23296
  17   36884.7    271.1    -11.41029   0.19779   0.00706   0.27808
  18   38907.5    257.0     63.55746  -0.10096   0.15760  -0.53272
  19   40564.1    246.5    -45.08393  -0.06887  -0.00446   0.18770
  20   38035.5    262.9    -13.94205   0.10376  -0.11768  -0.12478
  21   40275.5    248.3    212.21599   0.17422   0.27477  -1.02275
  22   40567.2    246.5    -87.53911   0.36674   0.07404   0.07379
  23   42778.7    233.8      8.84818  -0.44237   0.26938   0.62854
  24   42196.8    237.0    -27.23749   0.16704  -0.09552  -0.07454
  25   41285.5    242.2    -157.32396   0.04403   0.65429  -1.02507
  26   41584.6    240.5      3.45038  -0.35509   0.77599  -0.37966
  27   42020.1    238.0     26.43860  -0.11345  -0.04423   0.49836
  28   43167.7    231.7     28.60928   0.05421   0.04994  -0.09830
  29   45350.9    220.5      7.06927   0.17075   0.05995  -0.21048
  30   46788.4    213.7    -12.13019  -0.01466   0.01790  -0.08022

Total run time:   947105.195 sec

           *** ORCA-CIS/TD-DFT FINISHED WITHOUT ERROR ***

Maximum memory used throughout the entire CIS-calculation: 14698.9 MB

-----------------------
CIS/TD-DFT TOTAL ENERGY
-----------------------

    E(SCF)  =  -3004.950092936 Eh
    DE(CIS) =      0.085928974 Eh (Root  1)
    ----------------------------- ---------
    E(tot)  =  -3004.864163962 Eh


-------------------------   --------------------
FINAL SINGLE POINT ENERGY     -3004.864163961625
-------------------------   --------------------


                            ***************************************
                            *     ORCA property calculations      *
                            ***************************************


  WARNING: The energy has been calculated at the MP2 level but the densities
           used in the property calculations are still SCF densities
           MP2 response densities have not been calculated 
           use %mp2 Density relaxed end
           or  %mp2 Density unrelaxed end

                                    ---------------------
                                    Active property flags
                                    ---------------------
   (+) Dipole Moment


------------------------------------------------------------------------------
                       ORCA ELECTRIC PROPERTIES CALCULATION
------------------------------------------------------------------------------

Dipole Moment Calculation                       ... on
Quadrupole Moment Calculation                   ... off
Polarizability Calculation                      ... off
GBWName                                         ... Eos_2_M06L_def2TZVP_coords.gbw
Electron density                                ... Eos_2_M06L_def2TZVP_coords.scfp
The origin for moment calculation is the CENTER OF MASS  = ( 0.096898, -0.015302  0.232952)

-------------
DIPOLE MOMENT
-------------
                                X             Y             Z
Electronic contribution:    -15.90325     -39.86291      13.08983
Nuclear contribution   :     20.48611      40.73123     -10.60541
                        -----------------------------------------
Total Dipole Moment    :      4.58286       0.86831       2.48442
                        -----------------------------------------
Magnitude (a.u.)       :      5.28478
Magnitude (Debye)      :     13.43285



--------------------
Rotational spectrum 
--------------------
 
Rotational constants in cm-1:     0.002147     0.000923     0.000699 
Rotational constants in MHz :    64.354030    27.675472    20.969670 

 Dipole components along the rotational axes: 
x,y,z [a.u.] :     4.626599    -0.873679     2.400036 
x,y,z [Debye]:    11.759881    -2.220716     6.100406 

 

Timings for individual modules:

Sum of individual times         ...   974817.508 sec (=16246.958 min)
GTO integral calculation        ...       21.004 sec (=   0.350 min)   0.0 %
SCF iterations                  ...     4377.001 sec (=  72.950 min)   0.4 %
MP2 module                      ...    23313.468 sec (= 388.558 min)   2.4 %
CIS module                      ...   947106.036 sec (=15785.101 min)  97.2 %
                             ****ORCA TERMINATED NORMALLY****
TOTAL RUN TIME: 11 days 6 hours 47 minutes 16 seconds 285 msec
