 Entering Gaussian System, Link 0=g09
 Input=/home/png4rjv/fotokatalizis/benchmark/OPCs/Eos_2_M06L_def2TZVP.gjf
 Output=/home/png4rjv/fotokatalizis/benchmark/OPCs/Eos_2_M06L_def2TZVP.log
 Initial command:
 /opt/nce/packages/global/g09/l1.exe "/home/png4rjv/fotokatalizis/benchmark/OPCs/Eos_2_M06L_def2TZVP/Gau-60956.inp" -scrdir="/home/png4rjv/fotokatalizis/benchmark/OPCs/Eos_2_M06L_def2TZVP/"
 Default is to use a total of  12 processors:
                               12 via shared-memory
                                1 via Linda
 Entering Link 1 = /opt/nce/packages/global/g09/l1.exe PID=     60957.
  
 Copyright (c) 1988,1990,1992,1993,1995,1998,2003,2009,2015,
            Gaussian, Inc.  All Rights Reserved.
  
 This is part of the Gaussian(R) 09 program.  It is based on
 the Gaussian(R) 03 system (copyright 2003, Gaussian, Inc.),
 the Gaussian(R) 98 system (copyright 1998, Gaussian, Inc.),
 the Gaussian(R) 94 system (copyright 1995, Gaussian, Inc.),
 the Gaussian 92(TM) system (copyright 1992, Gaussian, Inc.),
 the Gaussian 90(TM) system (copyright 1990, Gaussian, Inc.),
 the Gaussian 88(TM) system (copyright 1988, Gaussian, Inc.),
 the Gaussian 86(TM) system (copyright 1986, Carnegie Mellon
 University), and the Gaussian 82(TM) system (copyright 1983,
 Carnegie Mellon University). Gaussian is a federally registered
 trademark of Gaussian, Inc.
  
 This software contains proprietary and confidential information,
 including trade secrets, belonging to Gaussian, Inc.
  
 This software is provided under written license and may be
 used, copied, transmitted, or stored only in accord with that
 written license.
  
 The following legend is applicable only to US Government
 contracts under FAR:
  
                    RESTRICTED RIGHTS LEGEND
  
 Use, reproduction and disclosure by the US Government is
 subject to restrictions as set forth in subparagraphs (a)
 and (c) of the Commercial Computer Software - Restricted
 Rights clause in FAR 52.227-19.
  
 Gaussian, Inc.
 340 Quinnipiac St., Bldg. 40, Wallingford CT 06492
  
  
 ---------------------------------------------------------------
 Warning -- This program may not be used in any manner that
 competes with the business of Gaussian, Inc. or will provide
 assistance to any competitor of Gaussian, Inc.  The licensee
 of this program is prohibited from giving any competitor of
 Gaussian, Inc. access to this program.  By using this program,
 the user acknowledges that Gaussian, Inc. is engaged in the
 business of creating and licensing software in the field of
 computational chemistry and represents and warrants to the
 licensee that it is not a competitor of Gaussian, Inc. and that
 it will not use this program in any manner prohibited above.
 ---------------------------------------------------------------
  

 Cite this work as:
 Gaussian 09, Revision E.01,
 M. J. Frisch, G. W. Trucks, H. B. Schlegel, G. E. Scuseria, 
 M. A. Robb, J. R. Cheeseman, G. Scalmani, V. Barone, B. Mennucci, 
 G. A. Petersson, H. Nakatsuji, M. Caricato, X. Li, H. P. Hratchian, 
 A. F. Izmaylov, J. Bloino, G. Zheng, J. L. Sonnenberg, M. Hada, 
 M. Ehara, K. Toyota, R. Fukuda, J. Hasegawa, M. Ishida, T. Nakajima, 
 Y. Honda, O. Kitao, H. Nakai, T. Vreven, J. A. Montgomery, Jr., 
 J. E. Peralta, F. Ogliaro, M. Bearpark, J. J. Heyd, E. Brothers, 
 K. N. Kudin, V. N. Staroverov, T. Keith, R. Kobayashi, J. Normand, 
 K. Raghavachari, A. Rendell, J. C. Burant, S. S. Iyengar, J. Tomasi, 
 M. Cossi, N. Rega, J. M. Millam, M. Klene, J. E. Knox, J. B. Cross, 
 V. Bakken, C. Adamo, J. Jaramillo, R. Gomperts, R. E. Stratmann, 
 O. Yazyev, A. J. Austin, R. Cammi, C. Pomelli, J. W. Ochterski, 
 R. L. Martin, K. Morokuma, V. G. Zakrzewski, G. A. Voth, 
 P. Salvador, J. J. Dannenberg, S. Dapprich, A. D. Daniels, 
 O. Farkas, J. B. Foresman, J. V. Ortiz, J. Cioslowski, 
 and D. J. Fox, Gaussian, Inc., Wallingford CT, 2013.
 
 ******************************************
 Gaussian 09:  ES64L-G09RevE.01 30-Nov-2015
                 5-Feb-2022 
 ******************************************
 %chk=cp.chk
 Default route:  MaxDisk=500GB
 ----------------------------------------------------------------------
 #p m06l/def2TZVP opt freq=noraman nosymm int=ultrafine scrf=(SMD,solve
 nt=Acetonitrile)
 ----------------------------------------------------------------------
 1/14=-1,18=20,19=15,26=4,38=1/1,3;
 2/9=110,12=2,15=1,17=6,18=5,40=1/2;
 3/5=44,7=101,11=2,16=1,25=1,30=1,70=32201,71=1,72=2,74=-53,75=-5/1,2,3;
 4//1;
 5/5=2,38=5,53=2/2;
 6/7=2,8=2,9=2,10=2,28=1/1;
 7/30=1/1,2,3,16;
 1/14=-1,18=20,19=15,26=4/3(2);
 2/9=110,15=1/2;
 99//99;
 2/9=110,15=1/2;
 3/5=44,7=101,11=2,16=1,25=1,30=1,70=32205,71=1,72=2,74=-53,75=-5/1,2,3;
 4/5=5,16=3,69=1/1;
 5/5=2,38=5,53=2/2;
 7/30=1/1,2,3,16;
 1/14=-1,18=20,19=15,26=4/3(-5);
 2/9=110,15=1/2;
 6/7=2,8=2,9=2,10=2,19=2,28=1/1;
 99/9=1/99;
 Leave Link    1 at Sat Feb  5 18:16:37 2022, MaxMem=           0 cpu:         0.9
 (Enter /opt/nce/packages/global/g09/l101.exe)
 -----
 Title
 -----
 Symbolic Z-matrix:
 Charge = -2 Multiplicity = 1
 C                    -5.06893  -2.41113   1.36733 
 C                    -3.67801  -2.07801   1.10824 
 C                    -3.39237  -1.04206   0.22324 
 C                    -4.39282  -0.29776  -0.46015 
 C                    -5.74832  -0.64624  -0.21171 
 C                    -6.07251  -1.64883   0.65768 
 C                    -4.01358   0.76192  -1.30414 
 C                    -2.64254   1.02188  -1.50948 
 C                    -1.67497   0.26664  -0.79567 
 C                    -0.30763   0.46682  -0.93886 
 C                     0.17691   1.4864   -1.85466 
 C                    -0.82713   2.27245  -2.5805 
 C                    -2.16809   2.02013  -2.38929 
 H                    -6.53462  -0.07481  -0.73495 
 H                    -7.12457  -1.91793   0.85468 
 H                    -2.92101   2.59641  -2.95601 
 O                    -2.07404  -0.72821   0.04895 
 O                     1.41638   1.70868  -1.99264 
 O                    -5.40633  -3.34286   2.16538 
 C                    -5.03043   1.44518  -2.14356 
 C                    -5.37159   0.85591  -3.36884 
 C                    -5.64926   2.64608  -1.7616 
 C                    -6.31477   1.45207  -4.20571 
 H                    -4.88345  -0.08807  -3.66703 
 C                    -6.59379   3.23444  -2.60805 
 C                    -6.92992   2.64728  -3.82509 
 H                    -6.57132   0.97549  -5.16651 
 H                    -7.05732   4.17636  -2.26774 
 H                    -7.67711   3.12067  -4.48389 
 C                    -5.30546   3.29548  -0.43879 
 O                    -5.88268   4.38535  -0.14926 
 O                    -4.45988   2.68194   0.27793 
 C                    -2.61244  -2.83003   1.7909 
 C                    -2.70971  -3.08811   3.17029 
 C                    -1.49307  -3.32099   1.09789 
 C                    -1.71179  -3.78816   3.83896 
 H                    -3.59061  -2.72242   3.72012 
 C                    -0.49458  -4.02914   1.75794 
 H                    -1.40308  -3.13992   0.01488 
 C                    -0.60354  -4.26067   3.13057 
 H                    -1.79499  -3.97639   4.92212 
 H                     0.38131  -4.40534   1.2035 
 C                     0.67121  -0.33584  -0.18588 
 C                     0.54606  -0.54509   1.19707 
 C                     1.77248  -0.90371  -0.85133 
 C                     1.4781   -1.30724   1.89429 
 H                    -0.30491  -0.10124   1.73821 
 C                     2.70274  -1.6746   -0.16412 
 H                     1.88694  -0.73348  -1.93298 
 C                     2.55556  -1.87419   1.21172 
 H                     1.36676  -1.46842   2.97941 
 H                     3.55703  -2.12264  -0.69819 
 C                    -0.40981   3.34177  -3.49916 
 C                    -1.18634   4.50879  -3.62597 
 C                     0.75164   3.22921  -4.28659 
 C                    -0.83234   5.51943  -4.51138 
 H                    -2.07778   4.63624  -2.98869 
 C                     1.11028   4.23532  -5.17699 
 H                     1.37506   2.32919  -4.18153 
 C                     0.32109   5.38255  -5.28785 
 H                    -1.44417   6.43336  -4.58611 
 H                     2.01964   4.13267  -5.79181 
 C                     0.49538  -4.95745   3.85702 
 C                     3.52198  -2.74838   1.9349 
 C                     0.68363   6.44458  -6.26864 
 F                     0.30317   7.68208  -5.86234 
 F                     0.08475   6.24906  -7.4846 
 F                     2.01651   6.49551  -6.51425 
 F                     4.77343  -2.68684   1.40886 
 F                     3.62703  -2.44001   3.25041 
 F                     3.15994  -4.06738   1.88076 
 F                     1.16495  -5.83872   3.07387 
 F                     1.43443  -4.08157   4.33075 
 F                     0.04983  -5.64469   4.94082 
 
 NAtoms=     74 NQM=       74 NQMF=       0 NMMI=      0 NMMIF=      0
                NMic=       0 NMicF=      0.
                    Isotopes and Nuclear Properties:
 (Nuclear quadrupole moments (NQMom) in fm**2, nuclear magnetic moments (NMagM)
  in nuclear magnetons)

  Atom         1           2           3           4           5           6           7           8           9          10
 IAtWgt=          12          12          12          12          12          12          12          12          12          12
 AtmWgt=  12.0000000  12.0000000  12.0000000  12.0000000  12.0000000  12.0000000  12.0000000  12.0000000  12.0000000  12.0000000
 NucSpn=           0           0           0           0           0           0           0           0           0           0
 AtZEff=   0.0000000   0.0000000   0.0000000   0.0000000   0.0000000   0.0000000   0.0000000   0.0000000   0.0000000   0.0000000
 NQMom=    0.0000000   0.0000000   0.0000000   0.0000000   0.0000000   0.0000000   0.0000000   0.0000000   0.0000000   0.0000000
 NMagM=    0.0000000   0.0000000   0.0000000   0.0000000   0.0000000   0.0000000   0.0000000   0.0000000   0.0000000   0.0000000
 AtZNuc=   6.0000000   6.0000000   6.0000000   6.0000000   6.0000000   6.0000000   6.0000000   6.0000000   6.0000000   6.0000000

  Atom        11          12          13          14          15          16          17          18          19          20
 IAtWgt=          12          12          12           1           1           1          16          16          16          12
 AtmWgt=  12.0000000  12.0000000  12.0000000   1.0078250   1.0078250   1.0078250  15.9949146  15.9949146  15.9949146  12.0000000
 NucSpn=           0           0           0           1           1           1           0           0           0           0
 AtZEff=   0.0000000   0.0000000   0.0000000   0.0000000   0.0000000   0.0000000   0.0000000   0.0000000   0.0000000   0.0000000
 NQMom=    0.0000000   0.0000000   0.0000000   0.0000000   0.0000000   0.0000000   0.0000000   0.0000000   0.0000000   0.0000000
 NMagM=    0.0000000   0.0000000   0.0000000   2.7928460   2.7928460   2.7928460   0.0000000   0.0000000   0.0000000   0.0000000
 AtZNuc=   6.0000000   6.0000000   6.0000000   1.0000000   1.0000000   1.0000000   8.0000000   8.0000000   8.0000000   6.0000000

  Atom        21          22          23          24          25          26          27          28          29          30
 IAtWgt=          12          12          12           1          12          12           1           1           1          12
 AtmWgt=  12.0000000  12.0000000  12.0000000   1.0078250  12.0000000  12.0000000   1.0078250   1.0078250   1.0078250  12.0000000
 NucSpn=           0           0           0           1           0           0           1           1           1           0
 AtZEff=   0.0000000   0.0000000   0.0000000   0.0000000   0.0000000   0.0000000   0.0000000   0.0000000   0.0000000   0.0000000
 NQMom=    0.0000000   0.0000000   0.0000000   0.0000000   0.0000000   0.0000000   0.0000000   0.0000000   0.0000000   0.0000000
 NMagM=    0.0000000   0.0000000   0.0000000   2.7928460   0.0000000   0.0000000   2.7928460   2.7928460   2.7928460   0.0000000
 AtZNuc=   6.0000000   6.0000000   6.0000000   1.0000000   6.0000000   6.0000000   1.0000000   1.0000000   1.0000000   6.0000000

  Atom        31          32          33          34          35          36          37          38          39          40
 IAtWgt=          16          16          12          12          12          12           1          12           1          12
 AtmWgt=  15.9949146  15.9949146  12.0000000  12.0000000  12.0000000  12.0000000   1.0078250  12.0000000   1.0078250  12.0000000
 NucSpn=           0           0           0           0           0           0           1           0           1           0
 AtZEff=   0.0000000   0.0000000   0.0000000   0.0000000   0.0000000   0.0000000   0.0000000   0.0000000   0.0000000   0.0000000
 NQMom=    0.0000000   0.0000000   0.0000000   0.0000000   0.0000000   0.0000000   0.0000000   0.0000000   0.0000000   0.0000000
 NMagM=    0.0000000   0.0000000   0.0000000   0.0000000   0.0000000   0.0000000   2.7928460   0.0000000   2.7928460   0.0000000
 AtZNuc=   8.0000000   8.0000000   6.0000000   6.0000000   6.0000000   6.0000000   1.0000000   6.0000000   1.0000000   6.0000000

  Atom        41          42          43          44          45          46          47          48          49          50
 IAtWgt=           1           1          12          12          12          12           1          12           1          12
 AtmWgt=   1.0078250   1.0078250  12.0000000  12.0000000  12.0000000  12.0000000   1.0078250  12.0000000   1.0078250  12.0000000
 NucSpn=           1           1           0           0           0           0           1           0           1           0
 AtZEff=   0.0000000   0.0000000   0.0000000   0.0000000   0.0000000   0.0000000   0.0000000   0.0000000   0.0000000   0.0000000
 NQMom=    0.0000000   0.0000000   0.0000000   0.0000000   0.0000000   0.0000000   0.0000000   0.0000000   0.0000000   0.0000000
 NMagM=    2.7928460   2.7928460   0.0000000   0.0000000   0.0000000   0.0000000   2.7928460   0.0000000   2.7928460   0.0000000
 AtZNuc=   1.0000000   1.0000000   6.0000000   6.0000000   6.0000000   6.0000000   1.0000000   6.0000000   1.0000000   6.0000000

  Atom        51          52          53          54          55          56          57          58          59          60
 IAtWgt=           1           1          12          12          12          12           1          12           1          12
 AtmWgt=   1.0078250   1.0078250  12.0000000  12.0000000  12.0000000  12.0000000   1.0078250  12.0000000   1.0078250  12.0000000
 NucSpn=           1           1           0           0           0           0           1           0           1           0
 AtZEff=   0.0000000   0.0000000   0.0000000   0.0000000   0.0000000   0.0000000   0.0000000   0.0000000   0.0000000   0.0000000
 NQMom=    0.0000000   0.0000000   0.0000000   0.0000000   0.0000000   0.0000000   0.0000000   0.0000000   0.0000000   0.0000000
 NMagM=    2.7928460   2.7928460   0.0000000   0.0000000   0.0000000   0.0000000   2.7928460   0.0000000   2.7928460   0.0000000
 AtZNuc=   1.0000000   1.0000000   6.0000000   6.0000000   6.0000000   6.0000000   1.0000000   6.0000000   1.0000000   6.0000000

  Atom        61          62          63          64          65          66          67          68          69          70
 IAtWgt=           1           1          12          12          12          19          19          19          19          19
 AtmWgt=   1.0078250   1.0078250  12.0000000  12.0000000  12.0000000  18.9984033  18.9984033  18.9984033  18.9984033  18.9984033
 NucSpn=           1           1           0           0           0           1           1           1           1           1
 AtZEff=   0.0000000   0.0000000   0.0000000   0.0000000   0.0000000   0.0000000   0.0000000   0.0000000   0.0000000   0.0000000
 NQMom=    0.0000000   0.0000000   0.0000000   0.0000000   0.0000000   0.0000000   0.0000000   0.0000000   0.0000000   0.0000000
 NMagM=    2.7928460   2.7928460   0.0000000   0.0000000   0.0000000   2.6288670   2.6288670   2.6288670   2.6288670   2.6288670
 AtZNuc=   1.0000000   1.0000000   6.0000000   6.0000000   6.0000000   9.0000000   9.0000000   9.0000000   9.0000000   9.0000000

  Atom        71          72          73          74
 IAtWgt=          19          19          19          19
 AtmWgt=  18.9984033  18.9984033  18.9984033  18.9984033
 NucSpn=           1           1           1           1
 AtZEff=   0.0000000   0.0000000   0.0000000   0.0000000
 NQMom=    0.0000000   0.0000000   0.0000000   0.0000000
 NMagM=    2.6288670   2.6288670   2.6288670   2.6288670
 AtZNuc=   9.0000000   9.0000000   9.0000000   9.0000000
 Leave Link  101 at Sat Feb  5 18:16:37 2022, MaxMem=  5242880000 cpu:         4.4
 (Enter /opt/nce/packages/global/g09/l103.exe)

 GradGradGradGradGradGradGradGradGradGradGradGradGradGradGradGradGradGrad
 Berny optimization.
 Initialization pass.
                           ----------------------------
                           !    Initial Parameters    !
                           ! (Angstroms and Degrees)  !
 --------------------------                            --------------------------
 ! Name  Definition              Value          Derivative Info.                !
 --------------------------------------------------------------------------------
 ! R1    R(1,2)                  1.4535         estimate D2E/DX2                !
 ! R2    R(1,6)                  1.4463         estimate D2E/DX2                !
 ! R3    R(1,19)                 1.2723         estimate D2E/DX2                !
 ! R4    R(2,3)                  1.3921         estimate D2E/DX2                !
 ! R5    R(2,33)                 1.4721         estimate D2E/DX2                !
 ! R6    R(3,4)                  1.4219         estimate D2E/DX2                !
 ! R7    R(3,17)                 1.3663         estimate D2E/DX2                !
 ! R8    R(4,5)                  1.4215         estimate D2E/DX2                !
 ! R9    R(4,7)                  1.4068         estimate D2E/DX2                !
 ! R10   R(5,6)                  1.3661         estimate D2E/DX2                !
 ! R11   R(5,14)                 1.1039         estimate D2E/DX2                !
 ! R12   R(6,15)                 1.1036         estimate D2E/DX2                !
 ! R13   R(7,8)                  1.4105         estimate D2E/DX2                !
 ! R14   R(7,20)                 1.4851         estimate D2E/DX2                !
 ! R15   R(8,9)                  1.4199         estimate D2E/DX2                !
 ! R16   R(8,13)                 1.4127         estimate D2E/DX2                !
 ! R17   R(9,10)                 1.3893         estimate D2E/DX2                !
 ! R18   R(9,17)                 1.3647         estimate D2E/DX2                !
 ! R19   R(10,11)                1.4536         estimate D2E/DX2                !
 ! R20   R(10,43)                1.4729         estimate D2E/DX2                !
 ! R21   R(11,12)                1.4673         estimate D2E/DX2                !
 ! R22   R(11,18)                1.2668         estimate D2E/DX2                !
 ! R23   R(12,13)                1.3778         estimate D2E/DX2                !
 ! R24   R(12,53)                1.4702         estimate D2E/DX2                !
 ! R25   R(13,16)                1.1046         estimate D2E/DX2                !
 ! R26   R(20,21)                1.4018         estimate D2E/DX2                !
 ! R27   R(20,22)                1.4039         estimate D2E/DX2                !
 ! R28   R(21,23)                1.3948         estimate D2E/DX2                !
 ! R29   R(21,24)                1.1038         estimate D2E/DX2                !
 ! R30   R(22,25)                1.3981         estimate D2E/DX2                !
 ! R31   R(22,30)                1.5132         estimate D2E/DX2                !
 ! R32   R(23,26)                1.3971         estimate D2E/DX2                !
 ! R33   R(23,27)                1.1028         estimate D2E/DX2                !
 ! R34   R(25,26)                1.3925         estimate D2E/DX2                !
 ! R35   R(25,28)                1.1036         estimate D2E/DX2                !
 ! R36   R(26,29)                1.1029         estimate D2E/DX2                !
 ! R37   R(30,31)                1.2668         estimate D2E/DX2                !
 ! R38   R(30,32)                1.2669         estimate D2E/DX2                !
 ! R39   R(33,34)                1.4067         estimate D2E/DX2                !
 ! R40   R(33,35)                1.4051         estimate D2E/DX2                !
 ! R41   R(34,36)                1.3903         estimate D2E/DX2                !
 ! R42   R(34,37)                1.1009         estimate D2E/DX2                !
 ! R43   R(35,38)                1.3907         estimate D2E/DX2                !
 ! R44   R(35,39)                1.1017         estimate D2E/DX2                !
 ! R45   R(36,40)                1.3976         estimate D2E/DX2                !
 ! R46   R(36,41)                1.1025         estimate D2E/DX2                !
 ! R47   R(38,40)                1.3963         estimate D2E/DX2                !
 ! R48   R(38,42)                1.1028         estimate D2E/DX2                !
 ! R49   R(40,63)                1.4903         estimate D2E/DX2                !
 ! R50   R(43,44)                1.4043         estimate D2E/DX2                !
 ! R51   R(43,45)                1.4064         estimate D2E/DX2                !
 ! R52   R(44,46)                1.3913         estimate D2E/DX2                !
 ! R53   R(44,47)                1.1018         estimate D2E/DX2                !
 ! R54   R(45,48)                1.3899         estimate D2E/DX2                !
 ! R55   R(45,49)                1.1009         estimate D2E/DX2                !
 ! R56   R(46,50)                1.3958         estimate D2E/DX2                !
 ! R57   R(46,51)                1.1027         estimate D2E/DX2                !
 ! R58   R(48,50)                1.398          estimate D2E/DX2                !
 ! R59   R(48,52)                1.1026         estimate D2E/DX2                !
 ! R60   R(50,64)                1.4904         estimate D2E/DX2                !
 ! R61   R(53,54)                1.4075         estimate D2E/DX2                !
 ! R62   R(53,55)                1.4077         estimate D2E/DX2                !
 ! R63   R(54,56)                1.3895         estimate D2E/DX2                !
 ! R64   R(54,57)                1.1032         estimate D2E/DX2                !
 ! R65   R(55,58)                1.3906         estimate D2E/DX2                !
 ! R66   R(55,59)                1.0999         estimate D2E/DX2                !
 ! R67   R(56,60)                1.3972         estimate D2E/DX2                !
 ! R68   R(56,61)                1.1023         estimate D2E/DX2                !
 ! R69   R(58,60)                1.3969         estimate D2E/DX2                !
 ! R70   R(58,62)                1.1025         estimate D2E/DX2                !
 ! R71   R(60,65)                1.4904         estimate D2E/DX2                !
 ! R72   R(63,72)                1.3558         estimate D2E/DX2                !
 ! R73   R(63,73)                1.3687         estimate D2E/DX2                !
 ! R74   R(63,74)                1.3585         estimate D2E/DX2                !
 ! R75   R(64,69)                1.3589         estimate D2E/DX2                !
 ! R76   R(64,70)                1.3553         estimate D2E/DX2                !
 ! R77   R(64,71)                1.3688         estimate D2E/DX2                !
 ! R78   R(65,66)                1.3569         estimate D2E/DX2                !
 ! R79   R(65,67)                1.3695         estimate D2E/DX2                !
 ! R80   R(65,68)                1.3563         estimate D2E/DX2                !
 ! A1    A(2,1,6)              117.1127         estimate D2E/DX2                !
 ! A2    A(2,1,19)             122.2347         estimate D2E/DX2                !
 ! A3    A(6,1,19)             120.6446         estimate D2E/DX2                !
 ! A4    A(1,2,3)              118.6988         estimate D2E/DX2                !
 ! A5    A(1,2,33)             119.5338         estimate D2E/DX2                !
 ! A6    A(3,2,33)             121.7653         estimate D2E/DX2                !
 ! A7    A(2,3,4)              123.4139         estimate D2E/DX2                !
 ! A8    A(2,3,17)             116.7439         estimate D2E/DX2                !
 ! A9    A(4,3,17)             119.8229         estimate D2E/DX2                !
 ! A10   A(3,4,5)              117.2977         estimate D2E/DX2                !
 ! A11   A(3,4,7)              119.5344         estimate D2E/DX2                !
 ! A12   A(5,4,7)              123.1337         estimate D2E/DX2                !
 ! A13   A(4,5,6)              121.1625         estimate D2E/DX2                !
 ! A14   A(4,5,14)             118.0012         estimate D2E/DX2                !
 ! A15   A(6,5,14)             120.8333         estimate D2E/DX2                !
 ! A16   A(1,6,5)              122.3041         estimate D2E/DX2                !
 ! A17   A(1,6,15)             116.446          estimate D2E/DX2                !
 ! A18   A(5,6,15)             121.2499         estimate D2E/DX2                !
 ! A19   A(4,7,8)              119.2227         estimate D2E/DX2                !
 ! A20   A(4,7,20)             120.0717         estimate D2E/DX2                !
 ! A21   A(8,7,20)             119.8995         estimate D2E/DX2                !
 ! A22   A(7,8,9)              119.4173         estimate D2E/DX2                !
 ! A23   A(7,8,13)             123.1861         estimate D2E/DX2                !
 ! A24   A(9,8,13)             117.3921         estimate D2E/DX2                !
 ! A25   A(8,9,10)             122.8343         estimate D2E/DX2                !
 ! A26   A(8,9,17)             119.9744         estimate D2E/DX2                !
 ! A27   A(10,9,17)            117.1699         estimate D2E/DX2                !
 ! A28   A(9,10,11)            119.6076         estimate D2E/DX2                !
 ! A29   A(9,10,43)            121.5236         estimate D2E/DX2                !
 ! A30   A(11,10,43)           118.8684         estimate D2E/DX2                !
 ! A31   A(10,11,12)           117.3438         estimate D2E/DX2                !
 ! A32   A(10,11,18)           121.1879         estimate D2E/DX2                !
 ! A33   A(12,11,18)           121.4437         estimate D2E/DX2                !
 ! A34   A(11,12,13)           119.9492         estimate D2E/DX2                !
 ! A35   A(11,12,53)           120.2995         estimate D2E/DX2                !
 ! A36   A(13,12,53)           119.7464         estimate D2E/DX2                !
 ! A37   A(8,13,12)            122.8679         estimate D2E/DX2                !
 ! A38   A(8,13,16)            117.339          estimate D2E/DX2                !
 ! A39   A(12,13,16)           119.778          estimate D2E/DX2                !
 ! A40   A(3,17,9)             121.9081         estimate D2E/DX2                !
 ! A41   A(7,20,21)            117.86           estimate D2E/DX2                !
 ! A42   A(7,20,22)            122.7909         estimate D2E/DX2                !
 ! A43   A(21,20,22)           119.3486         estimate D2E/DX2                !
 ! A44   A(20,21,23)           120.6218         estimate D2E/DX2                !
 ! A45   A(20,21,24)           119.2114         estimate D2E/DX2                !
 ! A46   A(23,21,24)           120.1668         estimate D2E/DX2                !
 ! A47   A(20,22,25)           119.5397         estimate D2E/DX2                !
 ! A48   A(20,22,30)           120.3173         estimate D2E/DX2                !
 ! A49   A(25,22,30)           120.1414         estimate D2E/DX2                !
 ! A50   A(21,23,26)           119.9971         estimate D2E/DX2                !
 ! A51   A(21,23,27)           119.6941         estimate D2E/DX2                !
 ! A52   A(26,23,27)           120.3087         estimate D2E/DX2                !
 ! A53   A(22,25,26)           120.9823         estimate D2E/DX2                !
 ! A54   A(22,25,28)           117.1443         estimate D2E/DX2                !
 ! A55   A(26,25,28)           121.8733         estimate D2E/DX2                !
 ! A56   A(23,26,25)           119.5104         estimate D2E/DX2                !
 ! A57   A(23,26,29)           120.183          estimate D2E/DX2                !
 ! A58   A(25,26,29)           120.3065         estimate D2E/DX2                !
 ! A59   A(22,30,31)           117.7416         estimate D2E/DX2                !
 ! A60   A(22,30,32)           115.9984         estimate D2E/DX2                !
 ! A61   A(31,30,32)           126.2596         estimate D2E/DX2                !
 ! A62   A(2,33,34)            119.8952         estimate D2E/DX2                !
 ! A63   A(2,33,35)            121.7652         estimate D2E/DX2                !
 ! A64   A(34,33,35)           118.3344         estimate D2E/DX2                !
 ! A65   A(33,34,36)           120.9545         estimate D2E/DX2                !
 ! A66   A(33,34,37)           118.9544         estimate D2E/DX2                !
 ! A67   A(36,34,37)           120.0905         estimate D2E/DX2                !
 ! A68   A(33,35,38)           121.0511         estimate D2E/DX2                !
 ! A69   A(33,35,39)           119.5034         estimate D2E/DX2                !
 ! A70   A(38,35,39)           119.4452         estimate D2E/DX2                !
 ! A71   A(34,36,40)           119.7102         estimate D2E/DX2                !
 ! A72   A(34,36,41)           120.2838         estimate D2E/DX2                !
 ! A73   A(40,36,41)           120.0049         estimate D2E/DX2                !
 ! A74   A(35,38,40)           119.668          estimate D2E/DX2                !
 ! A75   A(35,38,42)           120.3538         estimate D2E/DX2                !
 ! A76   A(40,38,42)           119.9781         estimate D2E/DX2                !
 ! A77   A(36,40,38)           120.2713         estimate D2E/DX2                !
 ! A78   A(36,40,63)           119.7182         estimate D2E/DX2                !
 ! A79   A(38,40,63)           119.9466         estimate D2E/DX2                !
 ! A80   A(10,43,44)           121.6982         estimate D2E/DX2                !
 ! A81   A(10,43,45)           119.902          estimate D2E/DX2                !
 ! A82   A(44,43,45)           118.3969         estimate D2E/DX2                !
 ! A83   A(43,44,46)           121.0275         estimate D2E/DX2                !
 ! A84   A(43,44,47)           119.5039         estimate D2E/DX2                !
 ! A85   A(46,44,47)           119.4683         estimate D2E/DX2                !
 ! A86   A(43,45,48)           120.9348         estimate D2E/DX2                !
 ! A87   A(43,45,49)           118.9366         estimate D2E/DX2                !
 ! A88   A(48,45,49)           120.1278         estimate D2E/DX2                !
 ! A89   A(44,46,50)           119.6409         estimate D2E/DX2                !
 ! A90   A(44,46,51)           120.3708         estimate D2E/DX2                !
 ! A91   A(50,46,51)           119.9877         estimate D2E/DX2                !
 ! A92   A(45,48,50)           119.6896         estimate D2E/DX2                !
 ! A93   A(45,48,52)           120.2938         estimate D2E/DX2                !
 ! A94   A(50,48,52)           120.0155         estimate D2E/DX2                !
 ! A95   A(46,50,48)           120.3009         estimate D2E/DX2                !
 ! A96   A(46,50,64)           120.1004         estimate D2E/DX2                !
 ! A97   A(48,50,64)           119.5393         estimate D2E/DX2                !
 ! A98   A(12,53,54)           120.1826         estimate D2E/DX2                !
 ! A99   A(12,53,55)           121.7052         estimate D2E/DX2                !
 ! A100  A(54,53,55)           118.1055         estimate D2E/DX2                !
 ! A101  A(53,54,56)           121.3281         estimate D2E/DX2                !
 ! A102  A(53,54,57)           119.3112         estimate D2E/DX2                !
 ! A103  A(56,54,57)           119.3371         estimate D2E/DX2                !
 ! A104  A(53,55,58)           120.8708         estimate D2E/DX2                !
 ! A105  A(53,55,59)           118.6629         estimate D2E/DX2                !
 ! A106  A(58,55,59)           120.4659         estimate D2E/DX2                !
 ! A107  A(54,56,60)           119.5514         estimate D2E/DX2                !
 ! A108  A(54,56,61)           120.3193         estimate D2E/DX2                !
 ! A109  A(60,56,61)           120.116          estimate D2E/DX2                !
 ! A110  A(55,58,60)           119.9551         estimate D2E/DX2                !
 ! A111  A(55,58,62)           120.1625         estimate D2E/DX2                !
 ! A112  A(60,58,62)           119.8814         estimate D2E/DX2                !
 ! A113  A(56,60,58)           120.1836         estimate D2E/DX2                !
 ! A114  A(56,60,65)           119.7839         estimate D2E/DX2                !
 ! A115  A(58,60,65)           120.0017         estimate D2E/DX2                !
 ! A116  A(40,63,72)           112.7372         estimate D2E/DX2                !
 ! A117  A(40,63,73)           112.0512         estimate D2E/DX2                !
 ! A118  A(40,63,74)           112.5563         estimate D2E/DX2                !
 ! A119  A(72,63,73)           106.0832         estimate D2E/DX2                !
 ! A120  A(72,63,74)           107.0963         estimate D2E/DX2                !
 ! A121  A(73,63,74)           105.8201         estimate D2E/DX2                !
 ! A122  A(50,64,69)           112.5053         estimate D2E/DX2                !
 ! A123  A(50,64,70)           112.8183         estimate D2E/DX2                !
 ! A124  A(50,64,71)           111.9935         estimate D2E/DX2                !
 ! A125  A(69,64,70)           107.1015         estimate D2E/DX2                !
 ! A126  A(69,64,71)           105.7772         estimate D2E/DX2                !
 ! A127  A(70,64,71)           106.1496         estimate D2E/DX2                !
 ! A128  A(60,65,66)           112.6201         estimate D2E/DX2                !
 ! A129  A(60,65,67)           112.0981         estimate D2E/DX2                !
 ! A130  A(60,65,68)           112.6426         estimate D2E/DX2                !
 ! A131  A(66,65,67)           105.8695         estimate D2E/DX2                !
 ! A132  A(66,65,68)           107.1893         estimate D2E/DX2                !
 ! A133  A(67,65,68)           105.9227         estimate D2E/DX2                !
 ! D1    D(6,1,2,3)              1.1682         estimate D2E/DX2                !
 ! D2    D(6,1,2,33)          -179.3489         estimate D2E/DX2                !
 ! D3    D(19,1,2,3)          -179.8518         estimate D2E/DX2                !
 ! D4    D(19,1,2,33)           -0.3688         estimate D2E/DX2                !
 ! D5    D(2,1,6,5)             -0.6698         estimate D2E/DX2                !
 ! D6    D(2,1,6,15)           179.3824         estimate D2E/DX2                !
 ! D7    D(19,1,6,5)          -179.667          estimate D2E/DX2                !
 ! D8    D(19,1,6,15)            0.3852         estimate D2E/DX2                !
 ! D9    D(1,2,3,4)             -0.8742         estimate D2E/DX2                !
 ! D10   D(1,2,3,17)           177.5195         estimate D2E/DX2                !
 ! D11   D(33,2,3,4)           179.6548         estimate D2E/DX2                !
 ! D12   D(33,2,3,17)           -1.9514         estimate D2E/DX2                !
 ! D13   D(1,2,33,34)          -45.5            estimate D2E/DX2                !
 ! D14   D(1,2,33,35)          133.6563         estimate D2E/DX2                !
 ! D15   D(3,2,33,34)          133.9666         estimate D2E/DX2                !
 ! D16   D(3,2,33,35)          -46.8771         estimate D2E/DX2                !
 ! D17   D(2,3,4,5)              0.0136         estimate D2E/DX2                !
 ! D18   D(2,3,4,7)            177.9526         estimate D2E/DX2                !
 ! D19   D(17,3,4,5)          -178.333          estimate D2E/DX2                !
 ! D20   D(17,3,4,7)            -0.394          estimate D2E/DX2                !
 ! D21   D(2,3,17,9)           179.8431         estimate D2E/DX2                !
 ! D22   D(4,3,17,9)            -1.7024         estimate D2E/DX2                !
 ! D23   D(3,4,5,6)              0.5336         estimate D2E/DX2                !
 ! D24   D(3,4,5,14)           179.9051         estimate D2E/DX2                !
 ! D25   D(7,4,5,6)           -177.325          estimate D2E/DX2                !
 ! D26   D(7,4,5,14)             2.0465         estimate D2E/DX2                !
 ! D27   D(3,4,7,8)              3.2214         estimate D2E/DX2                !
 ! D28   D(3,4,7,20)           172.9313         estimate D2E/DX2                !
 ! D29   D(5,4,7,8)           -178.9658         estimate D2E/DX2                !
 ! D30   D(5,4,7,20)            -9.2559         estimate D2E/DX2                !
 ! D31   D(4,5,6,1)             -0.1905         estimate D2E/DX2                !
 ! D32   D(4,5,6,15)           179.7548         estimate D2E/DX2                !
 ! D33   D(14,5,6,1)          -179.5443         estimate D2E/DX2                !
 ! D34   D(14,5,6,15)            0.401          estimate D2E/DX2                !
 ! D35   D(4,7,8,9)             -4.0119         estimate D2E/DX2                !
 ! D36   D(4,7,8,13)           176.7804         estimate D2E/DX2                !
 ! D37   D(20,7,8,9)          -173.7398         estimate D2E/DX2                !
 ! D38   D(20,7,8,13)            7.0525         estimate D2E/DX2                !
 ! D39   D(4,7,20,21)          -83.0919         estimate D2E/DX2                !
 ! D40   D(4,7,20,22)           97.1782         estimate D2E/DX2                !
 ! D41   D(8,7,20,21)           86.5481         estimate D2E/DX2                !
 ! D42   D(8,7,20,22)          -93.1818         estimate D2E/DX2                !
 ! D43   D(7,8,9,10)          -179.7267         estimate D2E/DX2                !
 ! D44   D(7,8,9,17)             2.0042         estimate D2E/DX2                !
 ! D45   D(13,8,9,10)           -0.4735         estimate D2E/DX2                !
 ! D46   D(13,8,9,17)         -178.7426         estimate D2E/DX2                !
 ! D47   D(7,8,13,12)          179.7076         estimate D2E/DX2                !
 ! D48   D(7,8,13,16)           -1.7112         estimate D2E/DX2                !
 ! D49   D(9,8,13,12)            0.4849         estimate D2E/DX2                !
 ! D50   D(9,8,13,16)          179.0661         estimate D2E/DX2                !
 ! D51   D(8,9,10,11)           -0.0962         estimate D2E/DX2                !
 ! D52   D(8,9,10,43)         -179.8563         estimate D2E/DX2                !
 ! D53   D(17,9,10,11)         178.2184         estimate D2E/DX2                !
 ! D54   D(17,9,10,43)          -1.5417         estimate D2E/DX2                !
 ! D55   D(8,9,17,3)             0.8923         estimate D2E/DX2                !
 ! D56   D(10,9,17,3)         -177.473          estimate D2E/DX2                !
 ! D57   D(9,10,11,12)           0.644          estimate D2E/DX2                !
 ! D58   D(9,10,11,18)         178.8658         estimate D2E/DX2                !
 ! D59   D(43,10,11,12)       -179.5895         estimate D2E/DX2                !
 ! D60   D(43,10,11,18)         -1.3678         estimate D2E/DX2                !
 ! D61   D(9,10,43,44)         -47.9881         estimate D2E/DX2                !
 ! D62   D(9,10,43,45)         132.6418         estimate D2E/DX2                !
 ! D63   D(11,10,43,44)        132.25           estimate D2E/DX2                !
 ! D64   D(11,10,43,45)        -47.12           estimate D2E/DX2                !
 ! D65   D(10,11,12,13)         -0.6359         estimate D2E/DX2                !
 ! D66   D(10,11,12,53)        178.5569         estimate D2E/DX2                !
 ! D67   D(18,11,12,13)       -178.8528         estimate D2E/DX2                !
 ! D68   D(18,11,12,53)          0.3399         estimate D2E/DX2                !
 ! D69   D(11,12,13,8)           0.0713         estimate D2E/DX2                !
 ! D70   D(11,12,13,16)       -178.4767         estimate D2E/DX2                !
 ! D71   D(53,12,13,8)        -179.1259         estimate D2E/DX2                !
 ! D72   D(53,12,13,16)          2.326          estimate D2E/DX2                !
 ! D73   D(11,12,53,54)       -145.1729         estimate D2E/DX2                !
 ! D74   D(11,12,53,55)         35.7873         estimate D2E/DX2                !
 ! D75   D(13,12,53,54)         34.0215         estimate D2E/DX2                !
 ! D76   D(13,12,53,55)       -145.0183         estimate D2E/DX2                !
 ! D77   D(7,20,21,23)        -179.6778         estimate D2E/DX2                !
 ! D78   D(7,20,21,24)           0.2416         estimate D2E/DX2                !
 ! D79   D(22,20,21,23)          0.0617         estimate D2E/DX2                !
 ! D80   D(22,20,21,24)        179.9811         estimate D2E/DX2                !
 ! D81   D(7,20,22,25)         179.698          estimate D2E/DX2                !
 ! D82   D(7,20,22,30)          -0.7551         estimate D2E/DX2                !
 ! D83   D(21,20,22,25)         -0.028          estimate D2E/DX2                !
 ! D84   D(21,20,22,30)        179.5189         estimate D2E/DX2                !
 ! D85   D(20,21,23,26)         -0.0462         estimate D2E/DX2                !
 ! D86   D(20,21,23,27)        179.971          estimate D2E/DX2                !
 ! D87   D(24,21,23,26)       -179.9648         estimate D2E/DX2                !
 ! D88   D(24,21,23,27)          0.0523         estimate D2E/DX2                !
 ! D89   D(20,22,25,26)         -0.0211         estimate D2E/DX2                !
 ! D90   D(20,22,25,28)        179.855          estimate D2E/DX2                !
 ! D91   D(30,22,25,26)       -179.5688         estimate D2E/DX2                !
 ! D92   D(30,22,25,28)          0.3072         estimate D2E/DX2                !
 ! D93   D(20,22,30,31)        179.2864         estimate D2E/DX2                !
 ! D94   D(20,22,30,32)         -0.912          estimate D2E/DX2                !
 ! D95   D(25,22,30,31)         -1.1694         estimate D2E/DX2                !
 ! D96   D(25,22,30,32)        178.6322         estimate D2E/DX2                !
 ! D97   D(21,23,26,25)         -0.0033         estimate D2E/DX2                !
 ! D98   D(21,23,26,29)       -179.9218         estimate D2E/DX2                !
 ! D99   D(27,23,26,25)        179.9795         estimate D2E/DX2                !
 ! D100  D(27,23,26,29)          0.061          estimate D2E/DX2                !
 ! D101  D(22,25,26,23)          0.0369         estimate D2E/DX2                !
 ! D102  D(22,25,26,29)        179.9553         estimate D2E/DX2                !
 ! D103  D(28,25,26,23)       -179.8332         estimate D2E/DX2                !
 ! D104  D(28,25,26,29)          0.0852         estimate D2E/DX2                !
 ! D105  D(2,33,34,36)        -179.5526         estimate D2E/DX2                !
 ! D106  D(2,33,34,37)           0.1778         estimate D2E/DX2                !
 ! D107  D(35,33,34,36)          1.2624         estimate D2E/DX2                !
 ! D108  D(35,33,34,37)       -179.0072         estimate D2E/DX2                !
 ! D109  D(2,33,35,38)         179.965          estimate D2E/DX2                !
 ! D110  D(2,33,35,39)           0.1382         estimate D2E/DX2                !
 ! D111  D(34,33,35,38)         -0.866          estimate D2E/DX2                !
 ! D112  D(34,33,35,39)        179.3072         estimate D2E/DX2                !
 ! D113  D(33,34,36,40)         -0.9267         estimate D2E/DX2                !
 ! D114  D(33,34,36,41)        179.4477         estimate D2E/DX2                !
 ! D115  D(37,34,36,40)        179.346          estimate D2E/DX2                !
 ! D116  D(37,34,36,41)         -0.2796         estimate D2E/DX2                !
 ! D117  D(33,35,38,40)          0.1386         estimate D2E/DX2                !
 ! D118  D(33,35,38,42)       -179.7219         estimate D2E/DX2                !
 ! D119  D(39,35,38,40)        179.9655         estimate D2E/DX2                !
 ! D120  D(39,35,38,42)          0.105          estimate D2E/DX2                !
 ! D121  D(34,36,40,38)          0.1699         estimate D2E/DX2                !
 ! D122  D(34,36,40,63)        177.2629         estimate D2E/DX2                !
 ! D123  D(41,36,40,38)        179.7965         estimate D2E/DX2                !
 ! D124  D(41,36,40,63)         -3.1105         estimate D2E/DX2                !
 ! D125  D(35,38,40,36)          0.2209         estimate D2E/DX2                !
 ! D126  D(35,38,40,63)       -176.8655         estimate D2E/DX2                !
 ! D127  D(42,38,40,36)       -179.9181         estimate D2E/DX2                !
 ! D128  D(42,38,40,63)          2.9955         estimate D2E/DX2                !
 ! D129  D(36,40,63,72)        152.8178         estimate D2E/DX2                !
 ! D130  D(36,40,63,73)        -87.5892         estimate D2E/DX2                !
 ! D131  D(36,40,63,74)         31.5379         estimate D2E/DX2                !
 ! D132  D(38,40,63,72)        -30.0796         estimate D2E/DX2                !
 ! D133  D(38,40,63,73)         89.5134         estimate D2E/DX2                !
 ! D134  D(38,40,63,74)       -151.3595         estimate D2E/DX2                !
 ! D135  D(10,43,44,46)        179.9197         estimate D2E/DX2                !
 ! D136  D(10,43,44,47)          0.0912         estimate D2E/DX2                !
 ! D137  D(45,43,44,46)         -0.7011         estimate D2E/DX2                !
 ! D138  D(45,43,44,47)        179.4704         estimate D2E/DX2                !
 ! D139  D(10,43,45,48)       -179.4313         estimate D2E/DX2                !
 ! D140  D(10,43,45,49)          0.239          estimate D2E/DX2                !
 ! D141  D(44,43,45,48)          1.178          estimate D2E/DX2                !
 ! D142  D(44,43,45,49)       -179.1517         estimate D2E/DX2                !
 ! D143  D(43,44,46,50)          0.0001         estimate D2E/DX2                !
 ! D144  D(43,44,46,51)       -179.7193         estimate D2E/DX2                !
 ! D145  D(47,44,46,50)        179.8287         estimate D2E/DX2                !
 ! D146  D(47,44,46,51)          0.1093         estimate D2E/DX2                !
 ! D147  D(43,45,48,50)         -0.9476         estimate D2E/DX2                !
 ! D148  D(43,45,48,52)        179.4222         estimate D2E/DX2                !
 ! D149  D(49,45,48,50)        179.386          estimate D2E/DX2                !
 ! D150  D(49,45,48,52)         -0.2441         estimate D2E/DX2                !
 ! D151  D(44,46,50,48)          0.2493         estimate D2E/DX2                !
 ! D152  D(44,46,50,64)       -176.935          estimate D2E/DX2                !
 ! D153  D(51,46,50,48)        179.9698         estimate D2E/DX2                !
 ! D154  D(51,46,50,64)          2.7855         estimate D2E/DX2                !
 ! D155  D(45,48,50,46)          0.2205         estimate D2E/DX2                !
 ! D156  D(45,48,50,64)        177.4205         estimate D2E/DX2                !
 ! D157  D(52,48,50,46)        179.8517         estimate D2E/DX2                !
 ! D158  D(52,48,50,64)         -2.9483         estimate D2E/DX2                !
 ! D159  D(46,50,64,69)       -149.6647         estimate D2E/DX2                !
 ! D160  D(46,50,64,70)        -28.3557         estimate D2E/DX2                !
 ! D161  D(46,50,64,71)         91.339          estimate D2E/DX2                !
 ! D162  D(48,50,64,69)         33.1296         estimate D2E/DX2                !
 ! D163  D(48,50,64,70)        154.4386         estimate D2E/DX2                !
 ! D164  D(48,50,64,71)        -85.8667         estimate D2E/DX2                !
 ! D165  D(12,53,54,56)       -178.3681         estimate D2E/DX2                !
 ! D166  D(12,53,54,57)          3.4114         estimate D2E/DX2                !
 ! D167  D(55,53,54,56)          0.7058         estimate D2E/DX2                !
 ! D168  D(55,53,54,57)       -177.5148         estimate D2E/DX2                !
 ! D169  D(12,53,55,58)        178.2076         estimate D2E/DX2                !
 ! D170  D(12,53,55,59)         -2.0319         estimate D2E/DX2                !
 ! D171  D(54,53,55,58)         -0.8514         estimate D2E/DX2                !
 ! D172  D(54,53,55,59)        178.9092         estimate D2E/DX2                !
 ! D173  D(53,54,56,60)         -0.3839         estimate D2E/DX2                !
 ! D174  D(53,54,56,61)       -179.0594         estimate D2E/DX2                !
 ! D175  D(57,54,56,60)        177.8362         estimate D2E/DX2                !
 ! D176  D(57,54,56,61)         -0.8393         estimate D2E/DX2                !
 ! D177  D(53,55,58,60)          0.6792         estimate D2E/DX2                !
 ! D178  D(53,55,58,62)       -179.6828         estimate D2E/DX2                !
 ! D179  D(59,55,58,60)       -179.077          estimate D2E/DX2                !
 ! D180  D(59,55,58,62)          0.561          estimate D2E/DX2                !
 ! D181  D(54,56,60,58)          0.1892         estimate D2E/DX2                !
 ! D182  D(54,56,60,65)        178.1713         estimate D2E/DX2                !
 ! D183  D(61,56,60,58)        178.8674         estimate D2E/DX2                !
 ! D184  D(61,56,60,65)         -3.1505         estimate D2E/DX2                !
 ! D185  D(55,58,60,56)         -0.337          estimate D2E/DX2                !
 ! D186  D(55,58,60,65)       -178.3147         estimate D2E/DX2                !
 ! D187  D(62,58,60,56)       -179.9761         estimate D2E/DX2                !
 ! D188  D(62,58,60,65)          2.0462         estimate D2E/DX2                !
 ! D189  D(56,60,65,66)         32.1517         estimate D2E/DX2                !
 ! D190  D(56,60,65,67)        -87.1165         estimate D2E/DX2                !
 ! D191  D(56,60,65,68)        153.531          estimate D2E/DX2                !
 ! D192  D(58,60,65,66)       -149.8625         estimate D2E/DX2                !
 ! D193  D(58,60,65,67)         90.8694         estimate D2E/DX2                !
 ! D194  D(58,60,65,68)        -28.4832         estimate D2E/DX2                !
 --------------------------------------------------------------------------------
 Trust Radius=3.00D-01 FncErr=1.00D-07 GrdErr=1.00D-06
 Number of steps in this run=    417 maximum allowed number of steps=    444.
 GradGradGradGradGradGradGradGradGradGradGradGradGradGradGradGradGradGrad

 Leave Link  103 at Sat Feb  5 18:16:37 2022, MaxMem=  5242880000 cpu:         0.3
 (Enter /opt/nce/packages/global/g09/l202.exe)
 Symmetry turned off by external request.
 Stoichiometry    C41H19F9O5(2-)
 Framework group  C1[X(C41H19F9O5)]
 Deg. of freedom   216
 Full point group                 C1      NOp   1
                          Input orientation:                          
 ---------------------------------------------------------------------
 Center     Atomic      Atomic             Coordinates (Angstroms)
 Number     Number       Type             X           Y           Z
 ---------------------------------------------------------------------
      1          6           0       -5.068930   -2.411131    1.367332
      2          6           0       -3.678006   -2.078010    1.108242
      3          6           0       -3.392366   -1.042060    0.223243
      4          6           0       -4.392823   -0.297760   -0.460146
      5          6           0       -5.748322   -0.646242   -0.211707
      6          6           0       -6.072513   -1.648833    0.657678
      7          6           0       -4.013579    0.761924   -1.304139
      8          6           0       -2.642543    1.021878   -1.509479
      9          6           0       -1.674965    0.266644   -0.795668
     10          6           0       -0.307626    0.466821   -0.938863
     11          6           0        0.176913    1.486400   -1.854656
     12          6           0       -0.827131    2.272450   -2.580501
     13          6           0       -2.168085    2.020128   -2.389293
     14          1           0       -6.534616   -0.074811   -0.734952
     15          1           0       -7.124569   -1.917929    0.854675
     16          1           0       -2.921006    2.596413   -2.956009
     17          8           0       -2.074038   -0.728211    0.048945
     18          8           0        1.416380    1.708676   -1.992644
     19          8           0       -5.406330   -3.342856    2.165384
     20          6           0       -5.030430    1.445178   -2.143562
     21          6           0       -5.371593    0.855907   -3.368837
     22          6           0       -5.649258    2.646080   -1.761600
     23          6           0       -6.314773    1.452067   -4.205707
     24          1           0       -4.883447   -0.088073   -3.667032
     25          6           0       -6.593792    3.234441   -2.608054
     26          6           0       -6.929917    2.647277   -3.825090
     27          1           0       -6.571320    0.975488   -5.166513
     28          1           0       -7.057319    4.176364   -2.267741
     29          1           0       -7.677105    3.120668   -4.483892
     30          6           0       -5.305459    3.295480   -0.438790
     31          8           0       -5.882683    4.385350   -0.149260
     32          8           0       -4.459883    2.681938    0.277931
     33          6           0       -2.612440   -2.830026    1.790900
     34          6           0       -2.709706   -3.088111    3.170287
     35          6           0       -1.493068   -3.320994    1.097886
     36          6           0       -1.711785   -3.788158    3.838960
     37          1           0       -3.590614   -2.722415    3.720117
     38          6           0       -0.494575   -4.029139    1.757936
     39          1           0       -1.403080   -3.139920    0.014883
     40          6           0       -0.603542   -4.260671    3.130575
     41          1           0       -1.794991   -3.976385    4.922121
     42          1           0        0.381310   -4.405335    1.203500
     43          6           0        0.671209   -0.335843   -0.185881
     44          6           0        0.546063   -0.545089    1.197067
     45          6           0        1.772480   -0.903705   -0.851332
     46          6           0        1.478100   -1.307243    1.894294
     47          1           0       -0.304914   -0.101235    1.738214
     48          6           0        2.702744   -1.674598   -0.164119
     49          1           0        1.886944   -0.733483   -1.932979
     50          6           0        2.555563   -1.874194    1.211717
     51          1           0        1.366760   -1.468421    2.979408
     52          1           0        3.557030   -2.122641   -0.698188
     53          6           0       -0.409813    3.341773   -3.499160
     54          6           0       -1.186340    4.508793   -3.625974
     55          6           0        0.751644    3.229211   -4.286587
     56          6           0       -0.832342    5.519431   -4.511381
     57          1           0       -2.077776    4.636241   -2.988686
     58          6           0        1.110284    4.235317   -5.176991
     59          1           0        1.375063    2.329192   -4.181533
     60          6           0        0.321089    5.382551   -5.287849
     61          1           0       -1.444168    6.433355   -4.586107
     62          1           0        2.019641    4.132675   -5.791814
     63          6           0        0.495376   -4.957450    3.857021
     64          6           0        3.521982   -2.748383    1.934896
     65          6           0        0.683633    6.444582   -6.268640
     66          9           0        0.303168    7.682084   -5.862343
     67          9           0        0.084745    6.249065   -7.484602
     68          9           0        2.016511    6.495508   -6.514246
     69          9           0        4.773430   -2.686844    1.408856
     70          9           0        3.627034   -2.440011    3.250409
     71          9           0        3.159940   -4.067375    1.880755
     72          9           0        1.164955   -5.838715    3.073874
     73          9           0        1.434429   -4.081575    4.330748
     74          9           0        0.049834   -5.644687    4.940824
 ---------------------------------------------------------------------
 Rotational constants (GHZ):      0.0648639      0.0286281      0.0209487
 Leave Link  202 at Sat Feb  5 18:16:37 2022, MaxMem=  5242880000 cpu:         0.1
 (Enter /opt/nce/packages/global/g09/l301.exe)
 Standard basis: def2TZVP (5D, 7F)
 Ernie: Thresh=  0.10000D-02 Tol=  0.10000D-05 Strict=F.
  1819 basis functions,  2957 primitive gaussians,  2094 cartesian basis functions
   194 alpha electrons      194 beta electrons
       nuclear repulsion energy      7331.4892737309 Hartrees.
 IExCor= 4134 DFT=T Ex+Corr=M06L ExCW=0 ScaHFX=  0.000000
 ScaDFX=  1.000000  1.000000  1.000000  1.000000 ScalE2=  1.000000  1.000000
 IRadAn=      5 IRanWt=     -1 IRanGd=            0 ICorTp=0 IEmpDi=  4
 NAtoms=   74 NActive=   74 NUniq=   74 SFac= 1.00D+00 NAtFMM=   60 NAOKFM=T Big=T
 Integral buffers will be    131072 words long.
 Raffenetti 2 integral format.
 Two-electron integral symmetry is turned off.
 ------------------------------------------------------------------------------
 Polarizable Continuum Model (PCM)
 =================================
 Model                : PCM (using non-symmetric T matrix).
 Atomic radii         : SMD-Coulomb.
 Polarization charges : Total charges.
 Charge compensation  : None.
 Solution method      : On-the-fly selection.
 Cavity type          : VdW (van der Waals Surface) (Alpha=1.000).
 Cavity algorithm     : GePol (No added spheres)
                        Default sphere list used, NSphG=   74.
                        Lebedev-Laikov grids with approx.  5.0 points / Ang**2.
                        Smoothing algorithm: York/Karplus (Gamma=1.0000).
                        Polarization charges: spherical gaussians, with
                                              point-specific exponents (IZeta= 3).
                        Self-potential: point-specific (ISelfS= 7).
                        Self-field    : sphere-specific E.n sum rule (ISelfD= 2).
 1st derivatives      : Analytical E(r).r(x)/FMM algorithm (CHGder, D1EAlg=3).
                        Cavity 1st derivative terms included.
 Solvent              : Acetonitrile, Eps=  35.688000 Eps(inf)=   1.806874
 ------------------------------------------------------------------------------
 GePol: Number of generator spheres                  =      74
 GePol: Total number of spheres                      =      74
 GePol: Number of exposed spheres                    =      74 (100.00%)
 GePol: Number of points                             =    5437
 GePol: Average weight of points                     =       0.13
 GePol: Minimum weight of points                     =   0.37D-10
 GePol: Maximum weight of points                     =    0.21559
 GePol: Number of points with low weight             =     290
 GePol: Fraction of low-weight points (<1% of avg)   =       5.33%
 GePol: Cavity surface area                          =    686.308 Ang**2
 GePol: Cavity volume                                =    730.180 Ang**3
 ------------------------------------------------------------------------------
 Atomic radii for non-electrostatic terms: SMD-CDS.
 ------------------------------------------------------------------------------
 PCM non-electrostatic energy =        -0.0088708594 Hartrees.
 Nuclear repulsion after PCM non-electrostatic terms =     7331.4804028715 Hartrees.
 Leave Link  301 at Sat Feb  5 18:16:37 2022, MaxMem=  5242880000 cpu:         1.8
 (Enter /opt/nce/packages/global/g09/l302.exe)
 NPDir=0 NMtPBC=     1 NCelOv=     1 NCel=       1 NClECP=     1 NCelD=      1
         NCelK=      1 NCelE2=     1 NClLst=     1 CellRange=     0.0.
 One-electron integrals computed using PRISM.
   1 Symmetry operations used in ECPInt.
 ECPInt:  NShTT=  232221 NPrTT=  738772 LenC2=  153147 LenP2D=  312025.
 LDataN:  DoStor=T MaxTD1= 6 Len=  172
 NBasis=  1819 RedAO= T EigKep=  3.72D-06  NBF=  1819
 NBsUse=  1819 1.00D-06 EigRej= -1.00D+00 NBFU=  1819
 Precomputing XC quadrature grid using
 IXCGrd= 4 IRadAn=           5 IRanWt=          -1 IRanGd=           0 AccXCQ= 0.00D+00.
 Generated NRdTot=       0 NPtTot=           0 NUsed=           0 NTot=          32
 NSgBfM=  1882  1882  1882  1882  1882 MxSgAt=    74 MxSgA2=    74.
 Leave Link  302 at Sat Feb  5 18:16:46 2022, MaxMem=  5242880000 cpu:        98.0
 (Enter /opt/nce/packages/global/g09/l303.exe)
 DipDrv:  MaxL=1.
 Leave Link  303 at Sat Feb  5 18:16:46 2022, MaxMem=  5242880000 cpu:         7.1
 (Enter /opt/nce/packages/global/g09/l401.exe)
 ExpMin= 9.52D-02 ExpMax= 3.55D+04 ExpMxC= 1.21D+03 IAcc=3 IRadAn=         5 AccDes= 0.00D+00
 Harris functional with IExCor= 1009 and IRadAn=       5 diagonalized for initial guess.
 HarFok:  IExCor= 1009 AccDes= 0.00D+00 IRadAn=         5 IDoV= 1 UseB2=F ITyADJ=14
 ICtDFT=  3500011 ScaDFX=  1.000000  1.000000  1.000000  1.000000
 FoFCou: FMM=F IPFlag=           0 FMFlag=      100000 FMFlg1=        2001
         NFxFlg=           0 DoJE=T BraDBF=F KetDBF=T FulRan=T
         wScrn=  0.000000 ICntrl=     500 IOpCl=  0 I1Cent=   200000004 NGrid=           0
         NMat0=    1 NMatS0=      1 NMatT0=    0 NMatD0=    1 NMtDS0=    0 NMtDT0=    0
 Symmetry not used in FoFCou.
 Harris En= -2847.53585442493    
 JPrj=0 DoOrth=F DoCkMO=F.
 Leave Link  401 at Sat Feb  5 18:17:10 2022, MaxMem=  5242880000 cpu:       279.9
 (Enter /opt/nce/packages/global/g09/l502.exe)
 Closed shell SCF:
 Using DIIS extrapolation, IDIIS=  1040.
 Two-electron integral symmetry not used.
 IVT=    13210898 IEndB=    13210898 NGot=  5242880000 MDV=  5234072673
 LenX=  5234072673 LenY=  5229685743
 Requested convergence on RMS density matrix=1.00D-08 within 128 cycles.
 Requested convergence on MAX density matrix=1.00D-06.
 Requested convergence on             energy=1.00D-06.
 No special actions if energy rises.
 Fock matrices will be formed incrementally for  20 cycles.

 Cycle   1  Pass 1  IDiag  1:
 FoFJK:  IHMeth= 1 ICntrl=     500 DoSepK=F KAlg= 0 I1Cent=   0 FoldK=F
 IRaf= 600000000 NMat=   1 IRICut=       1 DoRegI=T DoRafI=F ISym2E= 0.
 FoFCou: FMM=T IPFlag=           0 FMFlag=      100000 FMFlg1=        2001
         NFxFlg=           0 DoJE=T BraDBF=F KetDBF=F FulRan=T
         wScrn=  0.000000 ICntrl=     500 IOpCl=  0 I1Cent=           0 NGrid=           0
         NMat0=    1 NMatS0=      1 NMatT0=    0 NMatD0=    1 NMtDS0=    0 NMtDT0=    0
 Symmetry not used in FoFCou.
 FMM levels:  10  Number of levels for PrismC:   9
 Inv3:  Mode=1 IEnd=    88682907.
 Iteration    1 A*A^-1 deviation from unit magnitude is 9.33D-15 for   5433.
 Iteration    1 A*A^-1 deviation from orthogonality  is 3.90D-15 for   3408    252.
 Iteration    1 A^-1*A deviation from unit magnitude is 9.77D-15 for   5437.
 Iteration    1 A^-1*A deviation from orthogonality  is 1.85D-09 for   2565   2492.
 Iteration    2 A*A^-1 deviation from unit magnitude is 3.55D-15 for   2511.
 Iteration    2 A*A^-1 deviation from orthogonality  is 3.07D-15 for   4598   2464.
 Iteration    2 A^-1*A deviation from unit magnitude is 1.11D-15 for   3090.
 Iteration    2 A^-1*A deviation from orthogonality  is 7.40D-16 for   5428   4447.
 E= -2848.52868536833    
 DIIS: error= 1.58D-02 at cycle   1 NSaved=   1.
 NSaved= 1 IEnMin= 1 EnMin= -2848.52868536833     IErMin= 1 ErrMin= 1.58D-02
 ErrMax= 1.58D-02  0.00D+00 EMaxC= 1.00D-01 BMatC= 1.49D+00 BMatP= 1.49D+00
 IDIUse=3 WtCom= 8.42D-01 WtEn= 1.58D-01
 Coeff-Com:  0.100D+01
 Coeff-En:   0.100D+01
 Coeff:      0.100D+01
 Gap=     0.049 Goal=   None    Shift=    0.000
 GapD=    0.049 DampG=0.250 DampE=0.500 DampFc=0.2500 IDamp=-1.
 Damping current iteration by 2.50D-01
 RMSDP=1.04D-02 MaxDP=2.96D+00              OVMax= 6.02D-01

 Cycle   2  Pass 1  IDiag  1:
 RMSU=  2.58D-03    CP:  1.08D+00
 E= -2848.86108523230     Delta-E=       -0.332399863973 Rises=F Damp=T
 DIIS: error= 7.44D-03 at cycle   2 NSaved=   2.
 NSaved= 2 IEnMin= 2 EnMin= -2848.86108523230     IErMin= 2 ErrMin= 7.44D-03
 ErrMax= 7.44D-03  0.00D+00 EMaxC= 1.00D-01 BMatC= 4.07D-01 BMatP= 1.49D+00
 IDIUse=3 WtCom= 9.26D-01 WtEn= 7.44D-02
 Coeff-Com: -0.563D+00 0.156D+01
 Coeff-En:   0.000D+00 0.100D+01
 Coeff:     -0.521D+00 0.152D+01
 Gap=     0.165 Goal=   None    Shift=    0.000
 RMSDP=2.33D-03 MaxDP=5.01D-01 DE=-3.32D-01 OVMax= 6.10D-01

 Cycle   3  Pass 1  IDiag  1:
 RMSU=  1.93D-03    CP:  1.00D+00  5.19D-01
 E= -2849.18721350802     Delta-E=       -0.326128275719 Rises=F Damp=F
 DIIS: error= 1.34D-02 at cycle   3 NSaved=   3.
 NSaved= 3 IEnMin= 3 EnMin= -2849.18721350802     IErMin= 2 ErrMin= 7.44D-03
 ErrMax= 1.34D-02  0.00D+00 EMaxC= 1.00D-01 BMatC= 4.29D-01 BMatP= 4.07D-01
 IDIUse=3 WtCom= 8.66D-01 WtEn= 1.34D-01
 Coeff-Com: -0.531D+00 0.106D+01 0.468D+00
 Coeff-En:   0.000D+00 0.151D+00 0.849D+00
 Coeff:     -0.460D+00 0.941D+00 0.519D+00
 Gap=     0.116 Goal=   None    Shift=    0.000
 RMSDP=1.65D-03 MaxDP=4.42D-01 DE=-3.26D-01 OVMax= 3.06D-01

 Cycle   4  Pass 1  IDiag  1:
 RMSU=  9.82D-04    CP:  1.06D+00  9.97D-01  7.84D-01
 E= -2849.47505087956     Delta-E=       -0.287837371539 Rises=F Damp=F
 DIIS: error= 1.07D-02 at cycle   4 NSaved=   4.
 NSaved= 4 IEnMin= 4 EnMin= -2849.47505087956     IErMin= 2 ErrMin= 7.44D-03
 ErrMax= 1.07D-02  0.00D+00 EMaxC= 1.00D-01 BMatC= 1.20D-01 BMatP= 4.07D-01
 IDIUse=3 WtCom= 8.93D-01 WtEn= 1.07D-01
 Coeff-Com: -0.238D+00 0.420D+00 0.364D+00 0.454D+00
 Coeff-En:   0.000D+00 0.000D+00 0.274D+00 0.726D+00
 Coeff:     -0.212D+00 0.375D+00 0.355D+00 0.483D+00
 Gap=     0.106 Goal=   None    Shift=    0.000
 RMSDP=1.07D-03 MaxDP=3.05D-01 DE=-2.88D-01 OVMax= 1.67D-01

 Cycle   5  Pass 1  IDiag  1:
 RMSU=  6.23D-04    CP:  1.04D+00  7.24D-01  8.40D-01  4.97D-01
 E= -2849.56788377275     Delta-E=       -0.092832893190 Rises=F Damp=F
 DIIS: error= 4.64D-03 at cycle   5 NSaved=   5.
 NSaved= 5 IEnMin= 5 EnMin= -2849.56788377275     IErMin= 5 ErrMin= 4.64D-03
 ErrMax= 4.64D-03  0.00D+00 EMaxC= 1.00D-01 BMatC= 3.28D-02 BMatP= 1.20D-01
 IDIUse=3 WtCom= 9.54D-01 WtEn= 4.64D-02
 Coeff-Com: -0.103D+00 0.153D+00 0.185D+00 0.362D+00 0.403D+00
 Coeff-En:   0.000D+00 0.000D+00 0.000D+00 0.249D+00 0.751D+00
 Coeff:     -0.983D-01 0.146D+00 0.176D+00 0.357D+00 0.419D+00
 Gap=     0.091 Goal=   None    Shift=    0.000
 RMSDP=4.08D-04 MaxDP=9.96D-02 DE=-9.28D-02 OVMax= 9.36D-02

 Cycle   6  Pass 1  IDiag  1:
 RMSU=  1.52D-04    CP:  1.04D+00  8.04D-01  8.16D-01  6.20D-01  5.35D-01
 E= -2849.59756166736     Delta-E=       -0.029677894603 Rises=F Damp=F
 DIIS: error= 1.28D-03 at cycle   6 NSaved=   6.
 NSaved= 6 IEnMin= 6 EnMin= -2849.59756166736     IErMin= 6 ErrMin= 1.28D-03
 ErrMax= 1.28D-03  0.00D+00 EMaxC= 1.00D-01 BMatC= 2.73D-03 BMatP= 3.28D-02
 IDIUse=3 WtCom= 9.87D-01 WtEn= 1.28D-02
 Coeff-Com: -0.375D-01 0.484D-01 0.545D-01 0.158D+00 0.261D+00 0.516D+00
 Coeff-En:   0.000D+00 0.000D+00 0.000D+00 0.000D+00 0.326D-01 0.967D+00
 Coeff:     -0.370D-01 0.478D-01 0.538D-01 0.156D+00 0.258D+00 0.522D+00
 Gap=     0.076 Goal=   None    Shift=    0.000
 RMSDP=1.02D-04 MaxDP=1.40D-02 DE=-2.97D-02 OVMax= 2.77D-02

 Cycle   7  Pass 1  IDiag  1:
 RMSU=  7.84D-05    CP:  1.04D+00  8.16D-01  8.11D-01  5.95D-01  6.16D-01
                    CP:  9.74D-01
 E= -2849.59906965675     Delta-E=       -0.001507989395 Rises=F Damp=F
 DIIS: error= 8.35D-04 at cycle   7 NSaved=   7.
 NSaved= 7 IEnMin= 7 EnMin= -2849.59906965675     IErMin= 7 ErrMin= 8.35D-04
 ErrMax= 8.35D-04  0.00D+00 EMaxC= 1.00D-01 BMatC= 9.87D-04 BMatP= 2.73D-03
 IDIUse=3 WtCom= 9.92D-01 WtEn= 8.35D-03
 Coeff-Com: -0.145D-01 0.172D-01 0.815D-02 0.495D-01 0.111D+00 0.406D+00
 Coeff-Com:  0.423D+00
 Coeff-En:   0.000D+00 0.000D+00 0.000D+00 0.000D+00 0.000D+00 0.297D+00
 Coeff-En:   0.703D+00
 Coeff:     -0.144D-01 0.170D-01 0.808D-02 0.491D-01 0.110D+00 0.405D+00
 Coeff:      0.425D+00
 Gap=     0.075 Goal=   None    Shift=    0.000
 RMSDP=5.20D-05 MaxDP=1.68D-02 DE=-1.51D-03 OVMax= 1.60D-02

 Cycle   8  Pass 1  IDiag  1:
 RMSU=  3.48D-05    CP:  1.04D+00  8.21D-01  8.07D-01  6.02D-01  6.33D-01
                    CP:  1.09D+00  6.39D-01
 E= -2849.59981503654     Delta-E=       -0.000745379786 Rises=F Damp=F
 DIIS: error= 3.64D-04 at cycle   8 NSaved=   8.
 NSaved= 8 IEnMin= 8 EnMin= -2849.59981503654     IErMin= 8 ErrMin= 3.64D-04
 ErrMax= 3.64D-04  0.00D+00 EMaxC= 1.00D-01 BMatC= 1.33D-04 BMatP= 9.87D-04
 IDIUse=3 WtCom= 9.96D-01 WtEn= 3.64D-03
 Coeff-Com: -0.501D-02 0.596D-02-0.390D-02 0.519D-02 0.273D-01 0.198D+00
 Coeff-Com:  0.308D+00 0.465D+00
 Coeff-En:   0.000D+00 0.000D+00 0.000D+00 0.000D+00 0.000D+00 0.000D+00
 Coeff-En:   0.102D+00 0.898D+00
 Coeff:     -0.499D-02 0.594D-02-0.389D-02 0.517D-02 0.272D-01 0.197D+00
 Coeff:      0.307D+00 0.466D+00
 Gap=     0.075 Goal=   None    Shift=    0.000
 RMSDP=1.78D-05 MaxDP=6.99D-03 DE=-7.45D-04 OVMax= 4.89D-03

 Cycle   9  Pass 1  IDiag  1:
 RMSU=  1.24D-05    CP:  1.04D+00  8.19D-01  8.06D-01  6.03D-01  6.29D-01
                    CP:  1.11D+00  7.76D-01  8.68D-01
 E= -2849.59991553463     Delta-E=       -0.000100498090 Rises=F Damp=F
 DIIS: error= 6.66D-05 at cycle   9 NSaved=   9.
 NSaved= 9 IEnMin= 9 EnMin= -2849.59991553463     IErMin= 9 ErrMin= 6.66D-05
 ErrMax= 6.66D-05  0.00D+00 EMaxC= 1.00D-01 BMatC= 9.19D-06 BMatP= 1.33D-04
 IDIUse=1 WtCom= 1.00D+00 WtEn= 0.00D+00
 Coeff-Com: -0.147D-02 0.193D-02-0.260D-02-0.355D-02 0.103D-02 0.579D-01
 Coeff-Com:  0.115D+00 0.261D+00 0.571D+00
 Coeff:     -0.147D-02 0.193D-02-0.260D-02-0.355D-02 0.103D-02 0.579D-01
 Coeff:      0.115D+00 0.261D+00 0.571D+00
 Gap=     0.075 Goal=   None    Shift=    0.000
 RMSDP=7.26D-06 MaxDP=1.25D-03 DE=-1.00D-04 OVMax= 8.49D-04

 Cycle  10  Pass 1  IDiag  1:
 RMSU=  4.11D-06    CP:  1.04D+00  8.20D-01  8.06D-01  6.01D-01  6.34D-01
                    CP:  1.13D+00  7.96D-01  9.59D-01  1.08D+00
 E= -2849.59992217633     Delta-E=       -0.000006641703 Rises=F Damp=F
 DIIS: error= 2.31D-05 at cycle  10 NSaved=  10.
 NSaved=10 IEnMin=10 EnMin= -2849.59992217633     IErMin=10 ErrMin= 2.31D-05
 ErrMax= 2.31D-05  0.00D+00 EMaxC= 1.00D-01 BMatC= 1.44D-06 BMatP= 9.19D-06
 IDIUse=1 WtCom= 1.00D+00 WtEn= 0.00D+00
 Coeff-Com: -0.379D-03 0.557D-03-0.635D-03-0.250D-02-0.292D-02 0.551D-02
 Coeff-Com:  0.219D-01 0.829D-01 0.328D+00 0.568D+00
 Coeff:     -0.379D-03 0.557D-03-0.635D-03-0.250D-02-0.292D-02 0.551D-02
 Coeff:      0.219D-01 0.829D-01 0.328D+00 0.568D+00
 Gap=     0.075 Goal=   None    Shift=    0.000
 RMSDP=3.40D-06 MaxDP=6.13D-04 DE=-6.64D-06 OVMax= 4.04D-04

 Cycle  11  Pass 1  IDiag  1:
 RMSU=  1.81D-06    CP:  1.04D+00  8.20D-01  8.06D-01  6.00D-01  6.36D-01
                    CP:  1.14D+00  8.11D-01  9.92D-01  1.18D+00  1.15D+00
 E= -2849.59992316577     Delta-E=       -0.000000989441 Rises=F Damp=F
 DIIS: error= 1.25D-05 at cycle  11 NSaved=  11.
 NSaved=11 IEnMin=11 EnMin= -2849.59992316577     IErMin=11 ErrMin= 1.25D-05
 ErrMax= 1.25D-05  0.00D+00 EMaxC= 1.00D-01 BMatC= 3.43D-07 BMatP= 1.44D-06
 IDIUse=1 WtCom= 1.00D+00 WtEn= 0.00D+00
 Coeff-Com: -0.661D-04 0.137D-03 0.146D-03-0.959D-03-0.225D-02-0.775D-02
 Coeff-Com: -0.717D-02 0.529D-02 0.109D+00 0.373D+00 0.530D+00
 Coeff:     -0.661D-04 0.137D-03 0.146D-03-0.959D-03-0.225D-02-0.775D-02
 Coeff:     -0.717D-02 0.529D-02 0.109D+00 0.373D+00 0.530D+00
 Gap=     0.075 Goal=   None    Shift=    0.000
 RMSDP=1.83D-06 MaxDP=2.95D-04 DE=-9.89D-07 OVMax= 1.70D-04

 Cycle  12  Pass 1  IDiag  1:
 RMSU=  8.39D-07    CP:  1.04D+00  8.20D-01  8.06D-01  5.99D-01  6.37D-01
                    CP:  1.14D+00  8.19D-01  1.01D+00  1.23D+00  1.35D+00
                    CP:  9.91D-01
 E= -2849.59992346446     Delta-E=       -0.000000298687 Rises=F Damp=F
 DIIS: error= 3.82D-06 at cycle  12 NSaved=  12.
 NSaved=12 IEnMin=12 EnMin= -2849.59992346446     IErMin=12 ErrMin= 3.82D-06
 ErrMax= 3.82D-06  0.00D+00 EMaxC= 1.00D-01 BMatC= 5.27D-08 BMatP= 3.43D-07
 IDIUse=1 WtCom= 1.00D+00 WtEn= 0.00D+00
 Coeff-Com:  0.158D-04-0.705D-05 0.170D-03-0.248D-03-0.107D-02-0.592D-02
 Coeff-Com: -0.797D-02-0.927D-02 0.214D-01 0.155D+00 0.340D+00 0.507D+00
 Coeff:      0.158D-04-0.705D-05 0.170D-03-0.248D-03-0.107D-02-0.592D-02
 Coeff:     -0.797D-02-0.927D-02 0.214D-01 0.155D+00 0.340D+00 0.507D+00
 Gap=     0.075 Goal=   None    Shift=    0.000
 RMSDP=7.09D-07 MaxDP=1.44D-04 DE=-2.99D-07 OVMax= 6.86D-05

 Cycle  13  Pass 1  IDiag  1:
 RMSU=  2.88D-07    CP:  1.04D+00  8.20D-01  8.06D-01  5.99D-01  6.37D-01
                    CP:  1.14D+00  8.21D-01  1.02D+00  1.25D+00  1.38D+00
                    CP:  1.14D+00  1.05D+00
 E= -2849.59992351083     Delta-E=       -0.000000046377 Rises=F Damp=F
 DIIS: error= 2.18D-06 at cycle  13 NSaved=  13.
 NSaved=13 IEnMin=13 EnMin= -2849.59992351083     IErMin=13 ErrMin= 2.18D-06
 ErrMax= 2.18D-06  0.00D+00 EMaxC= 1.00D-01 BMatC= 5.89D-09 BMatP= 5.27D-08
 IDIUse=1 WtCom= 1.00D+00 WtEn= 0.00D+00
 Coeff-Com:  0.796D-05-0.855D-05 0.795D-04-0.248D-04-0.367D-03-0.241D-02
 Coeff-Com: -0.348D-02-0.563D-02-0.354D-03 0.435D-01 0.132D+00 0.304D+00
 Coeff-Com:  0.533D+00
 Coeff:      0.796D-05-0.855D-05 0.795D-04-0.248D-04-0.367D-03-0.241D-02
 Coeff:     -0.348D-02-0.563D-02-0.354D-03 0.435D-01 0.132D+00 0.304D+00
 Coeff:      0.533D+00
 Gap=     0.075 Goal=   None    Shift=    0.000
 RMSDP=3.67D-07 MaxDP=7.62D-05 DE=-4.64D-08 OVMax= 2.63D-05

 Cycle  14  Pass 1  IDiag  1:
 RMSU=  1.32D-07    CP:  1.04D+00  8.20D-01  8.06D-01  5.99D-01  6.37D-01
                    CP:  1.14D+00  8.23D-01  1.02D+00  1.25D+00  1.42D+00
                    CP:  1.18D+00  1.16D+00  9.70D-01
 E= -2849.59992351616     Delta-E=       -0.000000005328 Rises=F Damp=F
 DIIS: error= 9.59D-07 at cycle  14 NSaved=  14.
 NSaved=14 IEnMin=14 EnMin= -2849.59992351616     IErMin=14 ErrMin= 9.59D-07
 ErrMax= 9.59D-07  0.00D+00 EMaxC= 1.00D-01 BMatC= 8.46D-10 BMatP= 5.89D-09
 IDIUse=1 WtCom= 1.00D+00 WtEn= 0.00D+00
 Coeff-Com:  0.157D-05-0.321D-05 0.187D-04 0.279D-04-0.469D-04-0.415D-03
 Coeff-Com: -0.660D-03-0.169D-02-0.435D-02-0.210D-02 0.171D-01 0.909D-01
 Coeff-Com:  0.311D+00 0.591D+00
 Coeff:      0.157D-05-0.321D-05 0.187D-04 0.279D-04-0.469D-04-0.415D-03
 Coeff:     -0.660D-03-0.169D-02-0.435D-02-0.210D-02 0.171D-01 0.909D-01
 Coeff:      0.311D+00 0.591D+00
 Gap=     0.075 Goal=   None    Shift=    0.000
 RMSDP=1.66D-07 MaxDP=4.11D-05 DE=-5.33D-09 OVMax= 1.21D-05

 Cycle  15  Pass 1  IDiag  1:
 RMSU=  4.45D-08    CP:  1.04D+00  8.20D-01  8.06D-01  5.99D-01  6.37D-01
                    CP:  1.14D+00  8.23D-01  1.02D+00  1.26D+00  1.44D+00
                    CP:  1.21D+00  1.21D+00  1.11D+00  1.20D+00
 E= -2849.59992351679     Delta-E=       -0.000000000631 Rises=F Damp=F
 DIIS: error= 3.25D-07 at cycle  15 NSaved=  15.
 NSaved=15 IEnMin=15 EnMin= -2849.59992351679     IErMin=15 ErrMin= 3.25D-07
 ErrMax= 3.25D-07  0.00D+00 EMaxC= 1.00D-01 BMatC= 2.09D-10 BMatP= 8.46D-10
 IDIUse=1 WtCom= 1.00D+00 WtEn= 0.00D+00
 Coeff-Com:  0.785D-06-0.180D-05-0.540D-06 0.153D-04 0.196D-04 0.101D-03
 Coeff-Com:  0.127D-03-0.169D-03-0.273D-02-0.809D-02-0.964D-02 0.107D-01
 Coeff-Com:  0.110D+00 0.381D+00 0.518D+00
 Coeff:      0.785D-06-0.180D-05-0.540D-06 0.153D-04 0.196D-04 0.101D-03
 Coeff:      0.127D-03-0.169D-03-0.273D-02-0.809D-02-0.964D-02 0.107D-01
 Coeff:      0.110D+00 0.381D+00 0.518D+00
 Gap=     0.075 Goal=   None    Shift=    0.000
 RMSDP=7.74D-08 MaxDP=1.89D-05 DE=-6.31D-10 OVMax= 3.43D-06

 Cycle  16  Pass 1  IDiag  1:
 RMSU=  2.16D-08    CP:  1.04D+00  8.20D-01  8.06D-01  5.99D-01  6.38D-01
                    CP:  1.14D+00  8.23D-01  1.02D+00  1.26D+00  1.45D+00
                    CP:  1.22D+00  1.23D+00  1.14D+00  1.38D+00  1.17D+00
 E= -2849.59992351689     Delta-E=       -0.000000000100 Rises=F Damp=F
 DIIS: error= 5.61D-08 at cycle  16 NSaved=  16.
 NSaved=16 IEnMin=16 EnMin= -2849.59992351689     IErMin=16 ErrMin= 5.61D-08
 ErrMax= 5.61D-08  0.00D+00 EMaxC= 1.00D-01 BMatC= 2.07D-11 BMatP= 2.09D-10
 IDIUse=1 WtCom= 1.00D+00 WtEn= 0.00D+00
 Coeff-Com:  0.815D-06-0.136D-05-0.189D-05 0.347D-05 0.175D-04 0.106D-03
 Coeff-Com:  0.148D-03 0.134D-03-0.846D-03-0.388D-02-0.722D-02-0.578D-02
 Coeff-Com:  0.151D-01 0.120D+00 0.279D+00 0.604D+00
 Coeff:      0.815D-06-0.136D-05-0.189D-05 0.347D-05 0.175D-04 0.106D-03
 Coeff:      0.148D-03 0.134D-03-0.846D-03-0.388D-02-0.722D-02-0.578D-02
 Coeff:      0.151D-01 0.120D+00 0.279D+00 0.604D+00
 Gap=     0.075 Goal=   None    Shift=    0.000
 RMSDP=3.42D-08 MaxDP=8.40D-06 DE=-1.00D-10 OVMax= 1.98D-06

 Cycle  17  Pass 1  IDiag  1:
 RMSU=  8.03D-09    CP:  1.04D+00  8.20D-01  8.06D-01  5.99D-01  6.38D-01
                    CP:  1.14D+00  8.23D-01  1.02D+00  1.26D+00  1.45D+00
                    CP:  1.23D+00  1.24D+00  1.16D+00  1.45D+00  1.37D+00
                    CP:  1.15D+00
 E= -2849.59992351695     Delta-E=       -0.000000000055 Rises=F Damp=F
 DIIS: error= 2.96D-08 at cycle  17 NSaved=  17.
 NSaved=17 IEnMin=17 EnMin= -2849.59992351695     IErMin=17 ErrMin= 2.96D-08
 ErrMax= 2.96D-08  0.00D+00 EMaxC= 1.00D-01 BMatC= 5.79D-12 BMatP= 2.07D-11
 IDIUse=1 WtCom= 1.00D+00 WtEn= 0.00D+00
 Coeff-Com:  0.510D-06-0.779D-06-0.130D-05-0.718D-06 0.910D-05 0.604D-04
 Coeff-Com:  0.876D-04 0.140D-03-0.773D-04-0.126D-02-0.335D-02-0.588D-02
 Coeff-Com: -0.962D-02 0.147D-01 0.102D+00 0.407D+00 0.497D+00
 Coeff:      0.510D-06-0.779D-06-0.130D-05-0.718D-06 0.910D-05 0.604D-04
 Coeff:      0.876D-04 0.140D-03-0.773D-04-0.126D-02-0.335D-02-0.588D-02
 Coeff:     -0.962D-02 0.147D-01 0.102D+00 0.407D+00 0.497D+00
 Gap=     0.075 Goal=   None    Shift=    0.000
 RMSDP=1.44D-08 MaxDP=3.58D-06 DE=-5.46D-11 OVMax= 9.88D-07

 Cycle  18  Pass 1  IDiag  1:
 RMSU=  3.66D-09    CP:  1.04D+00  8.20D-01  8.06D-01  5.99D-01  6.38D-01
                    CP:  1.14D+00  8.23D-01  1.02D+00  1.26D+00  1.46D+00
                    CP:  1.23D+00  1.24D+00  1.17D+00  1.48D+00  1.43D+00
                    CP:  1.36D+00  9.61D-01
 E= -2849.59992351703     Delta-E=       -0.000000000085 Rises=F Damp=F
 DIIS: error= 1.13D-08 at cycle  18 NSaved=  18.
 NSaved=18 IEnMin=18 EnMin= -2849.59992351703     IErMin=18 ErrMin= 1.13D-08
 ErrMax= 1.13D-08  0.00D+00 EMaxC= 1.00D-01 BMatC= 5.54D-13 BMatP= 5.79D-12
 IDIUse=1 WtCom= 1.00D+00 WtEn= 0.00D+00
 Coeff-Com:  0.256D-06-0.368D-06-0.385D-06-0.683D-06 0.269D-05 0.189D-04
 Coeff-Com:  0.272D-04 0.561D-04 0.636D-04-0.171D-03-0.896D-03-0.240D-02
 Coeff-Com: -0.749D-02-0.824D-02 0.202D-01 0.147D+00 0.287D+00 0.565D+00
 Coeff:      0.256D-06-0.368D-06-0.385D-06-0.683D-06 0.269D-05 0.189D-04
 Coeff:      0.272D-04 0.561D-04 0.636D-04-0.171D-03-0.896D-03-0.240D-02
 Coeff:     -0.749D-02-0.824D-02 0.202D-01 0.147D+00 0.287D+00 0.565D+00
 Gap=     0.075 Goal=   None    Shift=    0.000
 RMSDP=6.39D-09 MaxDP=1.55D-06 DE=-8.55D-11 OVMax= 4.49D-07

 Cycle  19  Pass 1  IDiag  1:
 RMSU=  1.52D-09    CP:  1.04D+00  8.20D-01  8.06D-01  5.99D-01  6.38D-01
                    CP:  1.14D+00  8.23D-01  1.02D+00  1.26D+00  1.46D+00
                    CP:  1.23D+00  1.24D+00  1.17D+00  1.49D+00  1.48D+00
                    CP:  1.39D+00  1.16D+00  7.29D-01
[...]
 Alpha virt. eigenvalues --    3.07306   3.07468   3.07655   3.08073   3.08359
 Alpha virt. eigenvalues --    3.08449   3.08758   3.09176   3.09549   3.09937
 Alpha virt. eigenvalues --    3.10227   3.10295   3.10794   3.11181   3.11208
 Alpha virt. eigenvalues --    3.11657   3.12337   3.12798   3.13477   3.13521
 Alpha virt. eigenvalues --    3.13716   3.14050   3.14647   3.15088   3.15160
 Alpha virt. eigenvalues --    3.15397   3.16091   3.16234   3.16493   3.17122
 Alpha virt. eigenvalues --    3.17254   3.17495   3.17813   3.18076   3.18307
 Alpha virt. eigenvalues --    3.18476   3.19079   3.19240   3.19543   3.19796
 Alpha virt. eigenvalues --    3.20075   3.20434   3.20689   3.20888   3.21109
 Alpha virt. eigenvalues --    3.21214   3.21431   3.21812   3.22056   3.22314
 Alpha virt. eigenvalues --    3.22902   3.23175   3.23230   3.23655   3.24150
 Alpha virt. eigenvalues --    3.24296   3.24510   3.24792   3.25001   3.25770
 Alpha virt. eigenvalues --    3.26133   3.26566   3.26979   3.27153   3.27438
 Alpha virt. eigenvalues --    3.27643   3.27936   3.28420   3.28799   3.29167
 Alpha virt. eigenvalues --    3.29614   3.30036   3.30280   3.30435   3.30616
 Alpha virt. eigenvalues --    3.30987   3.31573   3.31904   3.32128   3.32155
 Alpha virt. eigenvalues --    3.32627   3.32835   3.33438   3.33546   3.33864
 Alpha virt. eigenvalues --    3.34127   3.34318   3.34680   3.35271   3.35599
 Alpha virt. eigenvalues --    3.35854   3.36004   3.36377   3.36859   3.37086
 Alpha virt. eigenvalues --    3.37351   3.37634   3.37767   3.37945   3.38220
 Alpha virt. eigenvalues --    3.38824   3.39109   3.39281   3.39391   3.39652
 Alpha virt. eigenvalues --    3.39782   3.40053   3.40389   3.41036   3.41334
 Alpha virt. eigenvalues --    3.41413   3.41768   3.42057   3.42577   3.42598
 Alpha virt. eigenvalues --    3.43029   3.43048   3.43351   3.43500   3.43690
 Alpha virt. eigenvalues --    3.44275   3.44500   3.44772   3.45070   3.45292
 Alpha virt. eigenvalues --    3.45368   3.45850   3.46155   3.46259   3.46619
 Alpha virt. eigenvalues --    3.46918   3.47187   3.47799   3.48172   3.48310
 Alpha virt. eigenvalues --    3.48597   3.48900   3.49198   3.49438   3.49656
 Alpha virt. eigenvalues --    3.49933   3.50294   3.50405   3.50671   3.51018
 Alpha virt. eigenvalues --    3.51233   3.51675   3.51904   3.52124   3.52390
 Alpha virt. eigenvalues --    3.52656   3.52972   3.53305   3.53509   3.53839
 Alpha virt. eigenvalues --    3.54098   3.54250   3.54604   3.55167   3.55368
 Alpha virt. eigenvalues --    3.55775   3.56129   3.56243   3.56653   3.57059
 Alpha virt. eigenvalues --    3.57437   3.57672   3.57949   3.58410   3.58655
 Alpha virt. eigenvalues --    3.59173   3.59462   3.59496   3.60152   3.60358
 Alpha virt. eigenvalues --    3.60622   3.60872   3.60897   3.61310   3.61565
 Alpha virt. eigenvalues --    3.61847   3.62094   3.62571   3.63020   3.63334
 Alpha virt. eigenvalues --    3.63746   3.64116   3.64319   3.64744   3.65076
 Alpha virt. eigenvalues --    3.65679   3.66261   3.66497   3.67360   3.67660
 Alpha virt. eigenvalues --    3.67770   3.68372   3.68962   3.69197   3.70138
 Alpha virt. eigenvalues --    3.70710   3.70766   3.70799   3.71595   3.72037
 Alpha virt. eigenvalues --    3.72240   3.73208   3.73520   3.74139   3.74652
 Alpha virt. eigenvalues --    3.75014   3.75186   3.76168   3.76233   3.76644
 Alpha virt. eigenvalues --    3.77263   3.78159   3.78904   3.79505   3.79715
 Alpha virt. eigenvalues --    3.80574   3.80864   3.81348   3.82035   3.82185
 Alpha virt. eigenvalues --    3.82435   3.82885   3.83235   3.83458   3.83608
 Alpha virt. eigenvalues --    3.84291   3.84531   3.84934   3.85021   3.85778
 Alpha virt. eigenvalues --    3.86344   3.86789   3.87494   3.87589   3.88697
 Alpha virt. eigenvalues --    3.89004   3.89534   3.90117   3.90902   3.91892
 Alpha virt. eigenvalues --    3.92119   3.92484   3.93269   3.93605   3.94326
 Alpha virt. eigenvalues --    3.94673   3.95253   3.95895   3.95952   3.96870
 Alpha virt. eigenvalues --    3.97047   3.97588   3.97837   3.98551   3.98750
 Alpha virt. eigenvalues --    3.99141   3.99531   3.99775   4.00084   4.00694
 Alpha virt. eigenvalues --    4.01045   4.01078   4.01854   4.02179   4.02564
 Alpha virt. eigenvalues --    4.02709   4.03193   4.03500   4.03708   4.04462
 Alpha virt. eigenvalues --    4.04905   4.05184   4.05920   4.06363   4.07022
 Alpha virt. eigenvalues --    4.07283   4.07727   4.07962   4.08267   4.08698
 Alpha virt. eigenvalues --    4.09347   4.09613   4.10107   4.10422   4.10855
 Alpha virt. eigenvalues --    4.11215   4.11549   4.11984   4.12563   4.13794
 Alpha virt. eigenvalues --    4.14711   4.15317   4.15947   4.16231   4.16949
 Alpha virt. eigenvalues --    4.17437   4.18157   4.18511   4.19182   4.19407
 Alpha virt. eigenvalues --    4.20022   4.20738   4.21068   4.21744   4.22561
 Alpha virt. eigenvalues --    4.22851   4.23247   4.24096   4.24811   4.25203
 Alpha virt. eigenvalues --    4.25693   4.26315   4.26992   4.28403   4.28888
 Alpha virt. eigenvalues --    4.29277   4.29408   4.29908   4.30486   4.30773
 Alpha virt. eigenvalues --    4.31386   4.31731   4.32502   4.32592   4.33352
 Alpha virt. eigenvalues --    4.33549   4.34172   4.34850   4.35161   4.35517
 Alpha virt. eigenvalues --    4.35992   4.36209   4.36948   4.37117   4.37264
 Alpha virt. eigenvalues --    4.37503   4.38043   4.38309   4.38565   4.38763
 Alpha virt. eigenvalues --    4.39632   4.40106   4.40395   4.40559   4.40985
 Alpha virt. eigenvalues --    4.41640   4.42385   4.42923   4.43734   4.45079
 Alpha virt. eigenvalues --    4.45163   4.45710   4.45976   4.46804   4.47604
 Alpha virt. eigenvalues --    4.48548   4.48849   4.50404   4.50539   4.51366
 Alpha virt. eigenvalues --    4.51836   4.53148   4.53626   4.54063   4.55005
 Alpha virt. eigenvalues --    4.55584   4.56097   4.56509   4.57133   4.58003
 Alpha virt. eigenvalues --    4.58518   4.59632   4.59816   4.60554   4.61404
 Alpha virt. eigenvalues --    4.61991   4.62505   4.63395   4.64487   4.65214
 Alpha virt. eigenvalues --    4.65597   4.67173   4.67640   4.68544   4.69705
 Alpha virt. eigenvalues --    4.70520   4.71515   4.72837   4.74292   4.76466
 Alpha virt. eigenvalues --    4.77148   4.78306   4.79554   4.80360   4.81631
 Alpha virt. eigenvalues --    4.82629   4.83273   4.83678   4.83904   4.84708
 Alpha virt. eigenvalues --    4.85635   4.86253   4.86863   4.87938   4.88353
 Alpha virt. eigenvalues --    4.88863   4.90169   4.90946   4.91250   4.92426
 Alpha virt. eigenvalues --    4.92821   4.93517   4.94637   4.95511   4.96110
 Alpha virt. eigenvalues --    4.98758   4.99895   5.02361   5.04318   5.04758
 Alpha virt. eigenvalues --    5.06212   5.07142   5.07766   5.08886   5.10321
 Alpha virt. eigenvalues --    5.11724   5.12750   5.14967   5.15051   5.15479
 Alpha virt. eigenvalues --    5.16735   5.17531   5.18318   5.19646   5.20510
 Alpha virt. eigenvalues --    5.21746   5.22575   5.23000   5.24567   5.26202
 Alpha virt. eigenvalues --    5.28354   5.30836   5.31344   5.31824   5.32891
 Alpha virt. eigenvalues --    5.33206   5.33460   5.35942   5.36599   5.36938
 Alpha virt. eigenvalues --    5.37679   5.38358   5.38648   5.39128   5.39469
 Alpha virt. eigenvalues --    5.40425   5.40487   5.40849   5.41310   5.41572
 Alpha virt. eigenvalues --    5.42116   5.43123   5.43890   5.44460   5.45594
 Alpha virt. eigenvalues --    5.46349   5.49440   5.51392   5.52744   5.54231
 Alpha virt. eigenvalues --    5.55210   5.56096   5.56595   5.57736   5.58620
 Alpha virt. eigenvalues --    5.60685   5.61807   5.64894   5.66882   5.67909
 Alpha virt. eigenvalues --    5.68129   5.69416   5.70181   5.72064   5.72466
 Alpha virt. eigenvalues --    5.73711   5.75038   5.76388   5.77018   5.77707
 Alpha virt. eigenvalues --    5.78598   5.79031   5.80925   5.83466   5.85914
 Alpha virt. eigenvalues --    5.87490   5.87667   5.90001   5.91226   5.94774
 Alpha virt. eigenvalues --    5.96179   5.98622   6.01524   6.04183   6.07375
 Alpha virt. eigenvalues --    6.08552   6.12702   6.15380   6.25737   6.27126
 Alpha virt. eigenvalues --    6.27747   6.35423   6.37426   6.44144   6.56553
 Alpha virt. eigenvalues --    6.58924   6.59699   6.60332   6.60681   6.61744
 Alpha virt. eigenvalues --    6.63557   6.68746   6.72652   6.75999   6.82123
 Alpha virt. eigenvalues --    6.83098   6.86171   6.89619   6.94741   6.95385
 Alpha virt. eigenvalues --    6.95469   6.95515   6.98527   6.99109   6.99153
 Alpha virt. eigenvalues --    6.99316   6.99578   6.99633   6.99702   7.00078
 Alpha virt. eigenvalues --    7.00262   7.00282   7.00893   7.00905   7.00937
 Alpha virt. eigenvalues --    7.01089   7.01179   7.01189   7.01233   7.01296
 Alpha virt. eigenvalues --    7.01336   7.02091   7.02125   7.02155   7.02735
 Alpha virt. eigenvalues --    7.02949   7.03002   7.03434   7.05245   7.06669
 Alpha virt. eigenvalues --    7.09634   7.13059   7.13131   7.13296   7.13336
 Alpha virt. eigenvalues --    7.13599   7.13940   7.14203   7.15437   7.15956
 Alpha virt. eigenvalues --    7.16115   7.16155   7.16966   7.17168   7.20841
 Alpha virt. eigenvalues --    7.21253   7.21656   7.23368   7.23733   7.24228
 Alpha virt. eigenvalues --    7.28882   7.28920   7.29023   7.29091   7.31501
 Alpha virt. eigenvalues --    7.35112   7.36455   7.40897   7.42953   7.50797
 Alpha virt. eigenvalues --    7.51266   7.51325   7.52565   7.52573   7.52801
 Alpha virt. eigenvalues --    7.54854   7.58386   7.58714   7.58912   7.63057
 Alpha virt. eigenvalues --    7.63118   7.63677   7.68396   7.74515   7.74880
 Alpha virt. eigenvalues --    7.74938   7.75724   7.77340   7.77938   7.77963
 Alpha virt. eigenvalues --    8.42358   8.42461   8.42977   8.44916   8.45619
 Alpha virt. eigenvalues --    8.45974   8.46021   8.46115   8.46653   8.61380
 Alpha virt. eigenvalues --    8.61829   8.61958   8.62552   8.63146   8.63191
 Alpha virt. eigenvalues --    8.72902   8.73672   8.74012   8.84049   8.84083
 Alpha virt. eigenvalues --    8.84182   8.91672   8.92140   8.92508   8.93196
 Alpha virt. eigenvalues --    8.94587   8.94854   9.05606   9.05928   9.07947
 Alpha virt. eigenvalues --    9.11468   9.12120   9.12993   9.17923   9.18305
 Alpha virt. eigenvalues --    9.18391   9.19249   9.20970   9.21806   9.28136
 Alpha virt. eigenvalues --    9.28531   9.28922   9.34160   9.35835   9.36925
 Alpha virt. eigenvalues --   22.22208  22.35348  22.38346  22.47414  22.63325
 Alpha virt. eigenvalues --   22.74740  22.80875  22.81951  22.82963  22.83889
 Alpha virt. eigenvalues --   22.84554  22.86136  22.87287  22.88468  22.89932
 Alpha virt. eigenvalues --   22.93677  22.93946  22.94611  22.95739  22.97618
 Alpha virt. eigenvalues --   22.97934  23.00710  23.05710  23.07283  23.07716
 Alpha virt. eigenvalues --   23.08985  23.13935  23.22632  23.24697  23.28956
 Alpha virt. eigenvalues --   23.30922  23.35002  23.39065  23.46801  23.49635
 Alpha virt. eigenvalues --   23.52141  23.56976  23.67929  23.80485  23.94992
 Alpha virt. eigenvalues --   24.03998  44.22668  44.25475  44.27074  44.33405
 Alpha virt. eigenvalues --   44.91334  57.40653  57.41822  57.42134  57.47603
 Alpha virt. eigenvalues --   57.55004  57.55646  57.59527  57.64158  57.68616
          Condensed to atoms (all electrons):
 Mulliken charges:
               1
     1  C    0.646418
     2  C   -0.141466
     3  C    0.389842
     4  C    0.095672
     5  C   -0.109483
     6  C   -0.376471
     7  C    0.391530
     8  C    0.215239
     9  C    0.389910
    10  C   -0.059834
    11  C    0.559656
    12  C    0.121597
    13  C   -0.377036
    14  H    0.143494
    15  H    0.067982
    16  H    0.198586
    17  O   -0.494392
    18  O   -0.701321
    19  O   -0.713544
    20  C   -0.104096
    21  C   -0.416781
    22  C   -0.302953
    23  C   -0.039426
    24  H    0.101298
    25  C   -0.074553
    26  C   -0.127615
    27  H    0.088088
    28  H    0.081120
    29  H    0.086255
    30  C    0.677437
    31  O   -0.705337
    32  O   -0.699841
    33  C    0.193819
    34  C   -0.202317
    35  C   -0.274232
    36  C   -0.239605
    37  H    0.084868
    38  C   -0.245171
    39  H    0.101747
    40  C    0.142721
    41  H    0.089160
    42  H    0.117628
    43  C    0.109724
    44  C   -0.276752
    45  C   -0.214328
    46  C   -0.255265
    47  H    0.102854
    48  C   -0.239103
    49  H    0.088110
    50  C    0.147017
    51  H    0.117779
    52  H    0.088890
    53  C    0.068757
    54  C   -0.270697
    55  C   -0.204386
    56  C   -0.257668
    57  H    0.210854
    58  C   -0.176366
    59  H    0.094495
    60  C    0.097349
    61  H    0.094868
    62  H    0.098257
    63  C    0.853468
    64  C    0.852209
    65  C    0.821736
    66  F   -0.278680
    67  F   -0.281779
    68  F   -0.277641
    69  F   -0.282880
    70  F   -0.279470
    71  F   -0.284519
    72  F   -0.279360
    73  F   -0.283333
    74  F   -0.282734
 Sum of Mulliken charges =  -2.00000
 Mulliken charges with hydrogens summed into heavy atoms:
               1
     1  C    0.646418
     2  C   -0.141466
     3  C    0.389842
     4  C    0.095672
     5  C    0.034011
     6  C   -0.308489
     7  C    0.391530
     8  C    0.215239
     9  C    0.389910
    10  C   -0.059834
    11  C    0.559656
    12  C    0.121597
    13  C   -0.178450
    17  O   -0.494392
    18  O   -0.701321
    19  O   -0.713544
    20  C   -0.104096
    21  C   -0.315484
    22  C   -0.302953
    23  C    0.048662
    25  C    0.006567
    26  C   -0.041360
    30  C    0.677437
    31  O   -0.705337
    32  O   -0.699841
    33  C    0.193819
    34  C   -0.117449
    35  C   -0.172485
    36  C   -0.150445
    38  C   -0.127543
    40  C    0.142721
    43  C    0.109724
    44  C   -0.173898
    45  C   -0.126218
    46  C   -0.137486
    48  C   -0.150212
    50  C    0.147017
    53  C    0.068757
    54  C   -0.059843
    55  C   -0.109891
    56  C   -0.162800
    58  C   -0.078109
    60  C    0.097349
    63  C    0.853468
    64  C    0.852209
    65  C    0.821736
    66  F   -0.278680
    67  F   -0.281779
    68  F   -0.277641
    69  F   -0.282880
    70  F   -0.279470
    71  F   -0.284519
    72  F   -0.279360
    73  F   -0.283333
    74  F   -0.282734
 Electronic spatial extent (au):  <R**2>=          44792.0888
 Charge=             -2.0000 electrons
 Dipole moment (field-independent basis, Debye):
    X=             -4.5657    Y=             -6.6692    Z=            -10.8253  Tot=             13.5097
 Quadrupole moment (field-independent basis, Debye-Ang):
   XX=           -505.6161   YY=           -410.7872   ZZ=           -332.7726
   XY=             24.0759   XZ=            -37.2379   YZ=            -14.6911
 Traceless Quadrupole moment (field-independent basis, Debye-Ang):
   XX=            -89.2241   YY=              5.6048   ZZ=             83.6194
   XY=             24.0759   XZ=            -37.2379   YZ=            -14.6911
 Octapole moment (field-independent basis, Debye-Ang**2):
  XXX=           -179.6056  YYY=           -299.8714  ZZZ=            -79.1289  XYY=            128.7189
  XXY=             69.3728  XXZ=            -41.5642  XZZ=           -134.3266  YZZ=           -119.6340
  YYZ=            -94.4524  XYZ=           -105.2828
 Hexadecapole moment (field-independent basis, Debye-Ang**3):
 XXXX=         -45725.2168 YYYY=         -18077.2397 ZZZZ=          -1979.8670 XXXY=           1398.3140
 XXXZ=           -490.6389 YYYX=            955.2662 YYYZ=            -25.0445 ZZZX=           -282.7796
 ZZZY=           -181.8771 XXYY=         -10805.9354 XXZZ=          -6818.4036 YYZZ=          -3118.7733
 XXYZ=            -98.7491 YYXZ=           -281.5501 ZZXY=           -168.8355
 N-N= 7.367636858965D+03 E-N=-2.149817618146D+04  KE= 2.839433619838D+03
 Leave Link  601 at Tue Feb  8 14:50:44 2022, MaxMem=  5242880000 cpu:        17.6
 (Enter /opt/nce/packages/global/g09/l9999.exe)
 1\1\GINC-CN083\SP\RM06L TD-FC\Gen\C41H19F9O5(2-)\PNG4RJV\08-Feb-2022\0
 \\#p m06l chkbasis geom=allcheck Guess=Read int=ultrafine scrf=(SMD,so
 lvent=Acetonitrile) td=(NStates=30)\\Title\\-2,1\C,0,-5.0502733758,-2.
 4980255789,1.3573114804\C,0,-3.6696834637,-2.158973697,1.0537265583\C,
 0,-3.4105277564,-1.1120317636,0.1914024045\C,0,-4.4164498751,-0.357234
 7823,-0.4690450132\C,0,-5.7609218516,-0.6906939094,-0.1534769529\C,0,-
 6.0616005997,-1.6942741663,0.7071725986\C,0,-4.0451205884,0.6721202218
 ,-1.3457959186\C,0,-2.6813258871,0.9600351869,-1.5302128111\C,0,-1.710
 5294734,0.2384516156,-0.7930986571\C,0,-0.3567665747,0.4859980495,-0.8
 736328078\C,0,0.1368277782,1.5176170429,-1.7692189989\C,0,-0.864848403
 3,2.2406271255,-2.5567975264\C,0,-2.1938133865,1.9453932567,-2.4145419
 899\H,0,-6.554083255,-0.1120750076,-0.6105911684\H,0,-7.0928187159,-1.
 9304728948,0.9424360433\H,0,-2.9144376511,2.4779377556,-3.0220360815\O
 ,0,-2.1016949146,-0.7838434448,0.0133726257\O,0,1.3524001741,1.7928498
 324,-1.8361680022\O,0,-5.361506597,-3.432365659,2.1265988598\C,0,-5.07
 12342057,1.4080422834,-2.1174673128\C,0,-5.8589869721,0.6983425603,-3.
 0270137974\C,0,-5.2345664766,2.7980129575,-2.0044568483\C,0,-6.8118695
 526,1.3384996585,-3.8028005574\H,0,-5.7100553191,-0.3706901433,-3.1284
 565107\C,0,-6.1825582935,3.4271446268,-2.8080809773\C,0,-6.9787761679,
 2.7114941334,-3.6878543642\H,0,-7.4152572513,0.7672782847,-4.497093594
 3\H,0,-6.2886270451,4.5024738941,-2.7252844945\H,0,-7.7226735299,3.222
 3438985,-4.2872904255\C,0,-4.4302531455,3.6286062154,-1.0161086709\O,0
 ,-3.960910499,4.7023614689,-1.4620513639\O,0,-4.3375789697,3.168301461
 5,0.1431851637\C,0,-2.5853548938,-2.9372752945,1.6728554163\C,0,-2.595
 5218605,-3.1965805969,3.0488181648\C,0,-1.5356737337,-3.4675590864,0.9
 16860865\C,0,-1.5977862008,-3.9451579296,3.6420281799\H,0,-3.397044670
 3,-2.7976297639,3.6544718634\C,0,-0.5362442053,-4.2264045762,1.5023773
 858\H,0,-1.5077733373,-3.2952354761,-0.1514255438\C,0,-0.5667504197,-4
 .4702591829,2.8685226542\H,0,-1.6171643409,-4.1273530309,4.7098384758\
 H,0,0.260081564,-4.6348943755,0.8936294199\C,0,0.6115983737,-0.2629833
 805,-0.0553302522\C,0,0.4510689608,-0.4060843649,1.3254412935\C,0,1.74
 67267889,-0.8325678959,-0.6440644528\C,0,1.3843876589,-1.0830711419,2.
 093483568\H,0,-0.4109719415,0.0334569391,1.8107343195\C,0,2.6774301574
 ,-1.5169172027,0.1125496328\H,0,1.8926206153,-0.7345869624,-1.71084484
 93\C,0,2.5039492286,-1.6371163142,1.4884129587\H,0,1.2448399429,-1.169
 6029779,3.163492577\H,0,3.5465441744,-1.9561945748,-0.3621584744\C,0,-
 0.4612687585,3.3053930456,-3.4850509755\C,0,-1.279558568,4.4323880585,
 -3.6555328214\C,0,0.7154030658,3.2314243703,-4.2406278581\C,0,-0.94054
 69773,5.4341609336,-4.5447570366\H,0,-2.1836155596,4.5291037199,-3.060
 3611841\C,0,1.0554066135,4.2311411563,-5.1343547513\H,0,1.3616341048,2
 .3739710633,-4.1288066382\C,0,0.2327361926,5.3401102739,-5.2863421674\
 H,0,-1.5823667145,6.2996810899,-4.6556076164\H,0,1.9640626529,4.148383
 188,-5.7165415954\C,0,0.4997152667,-5.2666579233,3.5388035119\C,0,3.52
 54732657,-2.3816022541,2.277938831\C,0,0.568291139,6.4081150482,-6.269
 264784\F,0,0.2761530828,7.6417454106,-5.8138431505\F,0,-0.1206631874,6
 .2750520939,-7.4289731279\F,0,1.8675542968,6.418565281,-6.6091762314\F
 ,0,4.7813470215,-1.9562419085,2.0214097616\F,0,3.3488063046,-2.2777474
 64,3.6024070957\F,0,3.527698114,-3.7048794351,1.9923085358\F,0,1.33602
 28052,-5.8618035745,2.6768714679\F,0,1.2658729261,-4.5074643766,4.3566
 279537\F,0,-0.0059241028,-6.2432830908,4.322679689\\Version=ES64L-G09R
 evE.01\State=1-A\HF=-2849.6123858\RMSD=4.930e-09\PG=C01 [X(C41H19F9O5)
 ]\\@


0EVERYBODY IS IGNORANT, ONLY ON DIFFERENT SUBJECTS.
0          WILL ROGERS
 Job cpu time:       8 days 10 hours 41 minutes 26.1 seconds.
 File lengths (MBytes):  RWF=  14405 Int=      0 D2E=      0 Chk=   2999 Scr=      1
 Normal termination of Gaussian 09 at Tue Feb  8 14:50:53 2022.
