 Entering Gaussian System, Link 0=g09
 Input=/home/png4rjv/fotokatalizis/benchmark/OPCs/Eos_2_PBE-D3_def2TZVP.gjf
 Output=/home/png4rjv/fotokatalizis/benchmark/OPCs/Eos_2_PBE-D3_def2TZVP.log
 Initial command:
 /opt/nce/packages/global/g09/l1.exe "/home/png4rjv/fotokatalizis/benchmark/OPCs/Eos_2_PBE-D3_def2TZVP/Gau-33673.inp" -scrdir="/home/png4rjv/fotokatalizis/benchmark/OPCs/Eos_2_PBE-D3_def2TZVP/"
 Default is to use a total of  12 processors:
                               12 via shared-memory
                                1 via Linda
 Entering Link 1 = /opt/nce/packages/global/g09/l1.exe PID=     33674.
  
 Copyright (c) 1988,1990,1992,1993,1995,1998,2003,2009,2015,
            Gaussian, Inc.  All Rights Reserved.
  
 This is part of the Gaussian(R) 09 program.  It is based on
 the Gaussian(R) 03 system (copyright 2003, Gaussian, Inc.),
 the Gaussian(R) 98 system (copyright 1998, Gaussian, Inc.),
 the Gaussian(R) 94 system (copyright 1995, Gaussian, Inc.),
 the Gaussian 92(TM) system (copyright 1992, Gaussian, Inc.),
 the Gaussian 90(TM) system (copyright 1990, Gaussian, Inc.),
 the Gaussian 88(TM) system (copyright 1988, Gaussian, Inc.),
 the Gaussian 86(TM) system (copyright 1986, Carnegie Mellon
 University), and the Gaussian 82(TM) system (copyright 1983,
 Carnegie Mellon University). Gaussian is a federally registered
 trademark of Gaussian, Inc.
  
 This software contains proprietary and confidential information,
 including trade secrets, belonging to Gaussian, Inc.
  
 This software is provided under written license and may be
 used, copied, transmitted, or stored only in accord with that
 written license.
  
 The following legend is applicable only to US Government
 contracts under FAR:
  
                    RESTRICTED RIGHTS LEGEND
  
 Use, reproduction and disclosure by the US Government is
 subject to restrictions as set forth in subparagraphs (a)
 and (c) of the Commercial Computer Software - Restricted
 Rights clause in FAR 52.227-19.
  
 Gaussian, Inc.
 340 Quinnipiac St., Bldg. 40, Wallingford CT 06492
  
  
 ---------------------------------------------------------------
 Warning -- This program may not be used in any manner that
 competes with the business of Gaussian, Inc. or will provide
 assistance to any competitor of Gaussian, Inc.  The licensee
 of this program is prohibited from giving any competitor of
 Gaussian, Inc. access to this program.  By using this program,
 the user acknowledges that Gaussian, Inc. is engaged in the
 business of creating and licensing software in the field of
 computational chemistry and represents and warrants to the
 licensee that it is not a competitor of Gaussian, Inc. and that
 it will not use this program in any manner prohibited above.
 ---------------------------------------------------------------
  

 Cite this work as:
 Gaussian 09, Revision E.01,
 M. J. Frisch, G. W. Trucks, H. B. Schlegel, G. E. Scuseria, 
 M. A. Robb, J. R. Cheeseman, G. Scalmani, V. Barone, B. Mennucci, 
 G. A. Petersson, H. Nakatsuji, M. Caricato, X. Li, H. P. Hratchian, 
 A. F. Izmaylov, J. Bloino, G. Zheng, J. L. Sonnenberg, M. Hada, 
 M. Ehara, K. Toyota, R. Fukuda, J. Hasegawa, M. Ishida, T. Nakajima, 
 Y. Honda, O. Kitao, H. Nakai, T. Vreven, J. A. Montgomery, Jr., 
 J. E. Peralta, F. Ogliaro, M. Bearpark, J. J. Heyd, E. Brothers, 
 K. N. Kudin, V. N. Staroverov, T. Keith, R. Kobayashi, J. Normand, 
 K. Raghavachari, A. Rendell, J. C. Burant, S. S. Iyengar, J. Tomasi, 
 M. Cossi, N. Rega, J. M. Millam, M. Klene, J. E. Knox, J. B. Cross, 
 V. Bakken, C. Adamo, J. Jaramillo, R. Gomperts, R. E. Stratmann, 
 O. Yazyev, A. J. Austin, R. Cammi, C. Pomelli, J. W. Ochterski, 
 R. L. Martin, K. Morokuma, V. G. Zakrzewski, G. A. Voth, 
 P. Salvador, J. J. Dannenberg, S. Dapprich, A. D. Daniels, 
 O. Farkas, J. B. Foresman, J. V. Ortiz, J. Cioslowski, 
 and D. J. Fox, Gaussian, Inc., Wallingford CT, 2013.
 
 ******************************************
 Gaussian 09:  ES64L-G09RevE.01 30-Nov-2015
                 5-Feb-2022 
 ******************************************
 %chk=cp.chk
 Default route:  MaxDisk=500GB
 ----------------------------------------------------------------------
 #p PBEPBE/def2TZVP opt freq=noraman nosymm int=ultrafine scrf=(SMD,sol
 vent=Acetonitrile) EmpiricalDispersion=GD3BJ
 ----------------------------------------------------------------------
 1/14=-1,18=20,19=15,26=4,38=1/1,3;
 2/9=110,12=2,15=1,17=6,18=5,40=1/2;
 3/5=44,7=101,11=2,16=1,25=1,30=1,70=32201,71=1,72=2,74=1009,75=-5,124=41/1,2,3;
 4//1;
 5/5=2,38=5,53=2/2;
 6/7=2,8=2,9=2,10=2,28=1/1;
 7/30=1/1,2,3,16;
 1/14=-1,18=20,19=15,26=4/3(2);
 2/9=110,15=1/2;
 99//99;
 2/9=110,15=1/2;
 3/5=44,7=101,11=2,16=1,25=1,30=1,70=32205,71=1,72=2,74=1009,75=-5,124=41/1,2,3;
 4/5=5,16=3,69=1/1;
 5/5=2,38=5,53=2/2;
 7/30=1/1,2,3,16;
 1/14=-1,18=20,19=15,26=4/3(-5);
 2/9=110,15=1/2;
 6/7=2,8=2,9=2,10=2,19=2,28=1/1;
 99/9=1/99;
 Leave Link    1 at Sat Feb  5 21:09:07 2022, MaxMem=           0 cpu:         1.8
 (Enter /opt/nce/packages/global/g09/l101.exe)
 -----
 Title
 -----
 Symbolic Z-matrix:
 Charge = -2 Multiplicity = 1
 C                    -5.06893  -2.41113   1.36733 
 C                    -3.67801  -2.07801   1.10824 
 C                    -3.39237  -1.04206   0.22324 
 C                    -4.39282  -0.29776  -0.46015 
 C                    -5.74832  -0.64624  -0.21171 
 C                    -6.07251  -1.64883   0.65768 
 C                    -4.01358   0.76192  -1.30414 
 C                    -2.64254   1.02188  -1.50948 
 C                    -1.67497   0.26664  -0.79567 
 C                    -0.30763   0.46682  -0.93886 
 C                     0.17691   1.4864   -1.85466 
 C                    -0.82713   2.27245  -2.5805 
 C                    -2.16809   2.02013  -2.38929 
 H                    -6.53462  -0.07481  -0.73495 
 H                    -7.12457  -1.91793   0.85468 
 H                    -2.92101   2.59641  -2.95601 
 O                    -2.07404  -0.72821   0.04895 
 O                     1.41638   1.70868  -1.99264 
 O                    -5.40633  -3.34286   2.16538 
 C                    -5.03043   1.44518  -2.14356 
 C                    -5.37159   0.85591  -3.36884 
 C                    -5.64926   2.64608  -1.7616 
 C                    -6.31477   1.45207  -4.20571 
 H                    -4.88345  -0.08807  -3.66703 
 C                    -6.59379   3.23444  -2.60805 
 C                    -6.92992   2.64728  -3.82509 
 H                    -6.57132   0.97549  -5.16651 
 H                    -7.05732   4.17636  -2.26774 
 H                    -7.67711   3.12067  -4.48389 
 C                    -5.30546   3.29548  -0.43879 
 O                    -5.88268   4.38535  -0.14926 
 O                    -4.45988   2.68194   0.27793 
 C                    -2.61244  -2.83003   1.7909 
 C                    -2.70971  -3.08811   3.17029 
 C                    -1.49307  -3.32099   1.09789 
 C                    -1.71179  -3.78816   3.83896 
 H                    -3.59061  -2.72242   3.72012 
 C                    -0.49458  -4.02914   1.75794 
 H                    -1.40308  -3.13992   0.01488 
 C                    -0.60354  -4.26067   3.13057 
 H                    -1.79499  -3.97639   4.92212 
 H                     0.38131  -4.40534   1.2035 
 C                     0.67121  -0.33584  -0.18588 
 C                     0.54606  -0.54509   1.19707 
 C                     1.77248  -0.90371  -0.85133 
 C                     1.4781   -1.30724   1.89429 
 H                    -0.30491  -0.10124   1.73821 
 C                     2.70274  -1.6746   -0.16412 
 H                     1.88694  -0.73348  -1.93298 
 C                     2.55556  -1.87419   1.21172 
 H                     1.36676  -1.46842   2.97941 
 H                     3.55703  -2.12264  -0.69819 
 C                    -0.40981   3.34177  -3.49916 
 C                    -1.18634   4.50879  -3.62597 
 C                     0.75164   3.22921  -4.28659 
 C                    -0.83234   5.51943  -4.51138 
 H                    -2.07778   4.63624  -2.98869 
 C                     1.11028   4.23532  -5.17699 
 H                     1.37506   2.32919  -4.18153 
 C                     0.32109   5.38255  -5.28785 
 H                    -1.44417   6.43336  -4.58611 
 H                     2.01964   4.13267  -5.79181 
 C                     0.49538  -4.95745   3.85702 
 C                     3.52198  -2.74838   1.9349 
 C                     0.68363   6.44458  -6.26864 
 F                     0.30317   7.68208  -5.86234 
 F                     0.08475   6.24906  -7.4846 
 F                     2.01651   6.49551  -6.51425 
 F                     4.77343  -2.68684   1.40886 
 F                     3.62703  -2.44001   3.25041 
 F                     3.15994  -4.06738   1.88076 
 F                     1.16495  -5.83872   3.07387 
 F                     1.43443  -4.08157   4.33075 
 F                     0.04983  -5.64469   4.94082 
 
 NAtoms=     74 NQM=       74 NQMF=       0 NMMI=      0 NMMIF=      0
                NMic=       0 NMicF=      0.
                    Isotopes and Nuclear Properties:
 (Nuclear quadrupole moments (NQMom) in fm**2, nuclear magnetic moments (NMagM)
  in nuclear magnetons)

  Atom         1           2           3           4           5           6           7           8           9          10
 IAtWgt=          12          12          12          12          12          12          12          12          12          12
 AtmWgt=  12.0000000  12.0000000  12.0000000  12.0000000  12.0000000  12.0000000  12.0000000  12.0000000  12.0000000  12.0000000
 NucSpn=           0           0           0           0           0           0           0           0           0           0
 AtZEff=   0.0000000   0.0000000   0.0000000   0.0000000   0.0000000   0.0000000   0.0000000   0.0000000   0.0000000   0.0000000
 NQMom=    0.0000000   0.0000000   0.0000000   0.0000000   0.0000000   0.0000000   0.0000000   0.0000000   0.0000000   0.0000000
 NMagM=    0.0000000   0.0000000   0.0000000   0.0000000   0.0000000   0.0000000   0.0000000   0.0000000   0.0000000   0.0000000
 AtZNuc=   6.0000000   6.0000000   6.0000000   6.0000000   6.0000000   6.0000000   6.0000000   6.0000000   6.0000000   6.0000000

  Atom        11          12          13          14          15          16          17          18          19          20
 IAtWgt=          12          12          12           1           1           1          16          16          16          12
 AtmWgt=  12.0000000  12.0000000  12.0000000   1.0078250   1.0078250   1.0078250  15.9949146  15.9949146  15.9949146  12.0000000
 NucSpn=           0           0           0           1           1           1           0           0           0           0
 AtZEff=   0.0000000   0.0000000   0.0000000   0.0000000   0.0000000   0.0000000   0.0000000   0.0000000   0.0000000   0.0000000
 NQMom=    0.0000000   0.0000000   0.0000000   0.0000000   0.0000000   0.0000000   0.0000000   0.0000000   0.0000000   0.0000000
 NMagM=    0.0000000   0.0000000   0.0000000   2.7928460   2.7928460   2.7928460   0.0000000   0.0000000   0.0000000   0.0000000
 AtZNuc=   6.0000000   6.0000000   6.0000000   1.0000000   1.0000000   1.0000000   8.0000000   8.0000000   8.0000000   6.0000000

  Atom        21          22          23          24          25          26          27          28          29          30
 IAtWgt=          12          12          12           1          12          12           1           1           1          12
 AtmWgt=  12.0000000  12.0000000  12.0000000   1.0078250  12.0000000  12.0000000   1.0078250   1.0078250   1.0078250  12.0000000
 NucSpn=           0           0           0           1           0           0           1           1           1           0
 AtZEff=   0.0000000   0.0000000   0.0000000   0.0000000   0.0000000   0.0000000   0.0000000   0.0000000   0.0000000   0.0000000
 NQMom=    0.0000000   0.0000000   0.0000000   0.0000000   0.0000000   0.0000000   0.0000000   0.0000000   0.0000000   0.0000000
 NMagM=    0.0000000   0.0000000   0.0000000   2.7928460   0.0000000   0.0000000   2.7928460   2.7928460   2.7928460   0.0000000
 AtZNuc=   6.0000000   6.0000000   6.0000000   1.0000000   6.0000000   6.0000000   1.0000000   1.0000000   1.0000000   6.0000000

  Atom        31          32          33          34          35          36          37          38          39          40
 IAtWgt=          16          16          12          12          12          12           1          12           1          12
 AtmWgt=  15.9949146  15.9949146  12.0000000  12.0000000  12.0000000  12.0000000   1.0078250  12.0000000   1.0078250  12.0000000
 NucSpn=           0           0           0           0           0           0           1           0           1           0
 AtZEff=   0.0000000   0.0000000   0.0000000   0.0000000   0.0000000   0.0000000   0.0000000   0.0000000   0.0000000   0.0000000
 NQMom=    0.0000000   0.0000000   0.0000000   0.0000000   0.0000000   0.0000000   0.0000000   0.0000000   0.0000000   0.0000000
 NMagM=    0.0000000   0.0000000   0.0000000   0.0000000   0.0000000   0.0000000   2.7928460   0.0000000   2.7928460   0.0000000
 AtZNuc=   8.0000000   8.0000000   6.0000000   6.0000000   6.0000000   6.0000000   1.0000000   6.0000000   1.0000000   6.0000000

  Atom        41          42          43          44          45          46          47          48          49          50
 IAtWgt=           1           1          12          12          12          12           1          12           1          12
 AtmWgt=   1.0078250   1.0078250  12.0000000  12.0000000  12.0000000  12.0000000   1.0078250  12.0000000   1.0078250  12.0000000
 NucSpn=           1           1           0           0           0           0           1           0           1           0
 AtZEff=   0.0000000   0.0000000   0.0000000   0.0000000   0.0000000   0.0000000   0.0000000   0.0000000   0.0000000   0.0000000
 NQMom=    0.0000000   0.0000000   0.0000000   0.0000000   0.0000000   0.0000000   0.0000000   0.0000000   0.0000000   0.0000000
 NMagM=    2.7928460   2.7928460   0.0000000   0.0000000   0.0000000   0.0000000   2.7928460   0.0000000   2.7928460   0.0000000
 AtZNuc=   1.0000000   1.0000000   6.0000000   6.0000000   6.0000000   6.0000000   1.0000000   6.0000000   1.0000000   6.0000000

  Atom        51          52          53          54          55          56          57          58          59          60
 IAtWgt=           1           1          12          12          12          12           1          12           1          12
 AtmWgt=   1.0078250   1.0078250  12.0000000  12.0000000  12.0000000  12.0000000   1.0078250  12.0000000   1.0078250  12.0000000
 NucSpn=           1           1           0           0           0           0           1           0           1           0
 AtZEff=   0.0000000   0.0000000   0.0000000   0.0000000   0.0000000   0.0000000   0.0000000   0.0000000   0.0000000   0.0000000
 NQMom=    0.0000000   0.0000000   0.0000000   0.0000000   0.0000000   0.0000000   0.0000000   0.0000000   0.0000000   0.0000000
 NMagM=    2.7928460   2.7928460   0.0000000   0.0000000   0.0000000   0.0000000   2.7928460   0.0000000   2.7928460   0.0000000
 AtZNuc=   1.0000000   1.0000000   6.0000000   6.0000000   6.0000000   6.0000000   1.0000000   6.0000000   1.0000000   6.0000000

  Atom        61          62          63          64          65          66          67          68          69          70
 IAtWgt=           1           1          12          12          12          19          19          19          19          19
 AtmWgt=   1.0078250   1.0078250  12.0000000  12.0000000  12.0000000  18.9984033  18.9984033  18.9984033  18.9984033  18.9984033
 NucSpn=           1           1           0           0           0           1           1           1           1           1
 AtZEff=   0.0000000   0.0000000   0.0000000   0.0000000   0.0000000   0.0000000   0.0000000   0.0000000   0.0000000   0.0000000
 NQMom=    0.0000000   0.0000000   0.0000000   0.0000000   0.0000000   0.0000000   0.0000000   0.0000000   0.0000000   0.0000000
 NMagM=    2.7928460   2.7928460   0.0000000   0.0000000   0.0000000   2.6288670   2.6288670   2.6288670   2.6288670   2.6288670
 AtZNuc=   1.0000000   1.0000000   6.0000000   6.0000000   6.0000000   9.0000000   9.0000000   9.0000000   9.0000000   9.0000000

  Atom        71          72          73          74
 IAtWgt=          19          19          19          19
 AtmWgt=  18.9984033  18.9984033  18.9984033  18.9984033
 NucSpn=           1           1           1           1
 AtZEff=   0.0000000   0.0000000   0.0000000   0.0000000
 NQMom=    0.0000000   0.0000000   0.0000000   0.0000000
 NMagM=    2.6288670   2.6288670   2.6288670   2.6288670
 AtZNuc=   9.0000000   9.0000000   9.0000000   9.0000000
 Leave Link  101 at Sat Feb  5 21:09:07 2022, MaxMem=  5242880000 cpu:         4.4
 (Enter /opt/nce/packages/global/g09/l103.exe)

 GradGradGradGradGradGradGradGradGradGradGradGradGradGradGradGradGradGrad
 Berny optimization.
 Initialization pass.
                           ----------------------------
                           !    Initial Parameters    !
                           ! (Angstroms and Degrees)  !
 --------------------------                            --------------------------
 ! Name  Definition              Value          Derivative Info.                !
 --------------------------------------------------------------------------------
 ! R1    R(1,2)                  1.4535         estimate D2E/DX2                !
 ! R2    R(1,6)                  1.4463         estimate D2E/DX2                !
 ! R3    R(1,19)                 1.2723         estimate D2E/DX2                !
 ! R4    R(2,3)                  1.3921         estimate D2E/DX2                !
 ! R5    R(2,33)                 1.4721         estimate D2E/DX2                !
 ! R6    R(3,4)                  1.4219         estimate D2E/DX2                !
 ! R7    R(3,17)                 1.3663         estimate D2E/DX2                !
 ! R8    R(4,5)                  1.4215         estimate D2E/DX2                !
 ! R9    R(4,7)                  1.4068         estimate D2E/DX2                !
 ! R10   R(5,6)                  1.3661         estimate D2E/DX2                !
 ! R11   R(5,14)                 1.1039         estimate D2E/DX2                !
 ! R12   R(6,15)                 1.1036         estimate D2E/DX2                !
 ! R13   R(7,8)                  1.4105         estimate D2E/DX2                !
 ! R14   R(7,20)                 1.4851         estimate D2E/DX2                !
 ! R15   R(8,9)                  1.4199         estimate D2E/DX2                !
 ! R16   R(8,13)                 1.4127         estimate D2E/DX2                !
 ! R17   R(9,10)                 1.3893         estimate D2E/DX2                !
 ! R18   R(9,17)                 1.3647         estimate D2E/DX2                !
 ! R19   R(10,11)                1.4536         estimate D2E/DX2                !
 ! R20   R(10,43)                1.4729         estimate D2E/DX2                !
 ! R21   R(11,12)                1.4673         estimate D2E/DX2                !
 ! R22   R(11,18)                1.2668         estimate D2E/DX2                !
 ! R23   R(12,13)                1.3778         estimate D2E/DX2                !
 ! R24   R(12,53)                1.4702         estimate D2E/DX2                !
 ! R25   R(13,16)                1.1046         estimate D2E/DX2                !
 ! R26   R(20,21)                1.4018         estimate D2E/DX2                !
 ! R27   R(20,22)                1.4039         estimate D2E/DX2                !
 ! R28   R(21,23)                1.3948         estimate D2E/DX2                !
 ! R29   R(21,24)                1.1038         estimate D2E/DX2                !
 ! R30   R(22,25)                1.3981         estimate D2E/DX2                !
 ! R31   R(22,30)                1.5132         estimate D2E/DX2                !
 ! R32   R(23,26)                1.3971         estimate D2E/DX2                !
 ! R33   R(23,27)                1.1028         estimate D2E/DX2                !
 ! R34   R(25,26)                1.3925         estimate D2E/DX2                !
 ! R35   R(25,28)                1.1036         estimate D2E/DX2                !
 ! R36   R(26,29)                1.1029         estimate D2E/DX2                !
 ! R37   R(30,31)                1.2668         estimate D2E/DX2                !
 ! R38   R(30,32)                1.2669         estimate D2E/DX2                !
 ! R39   R(33,34)                1.4067         estimate D2E/DX2                !
 ! R40   R(33,35)                1.4051         estimate D2E/DX2                !
 ! R41   R(34,36)                1.3903         estimate D2E/DX2                !
 ! R42   R(34,37)                1.1009         estimate D2E/DX2                !
 ! R43   R(35,38)                1.3907         estimate D2E/DX2                !
 ! R44   R(35,39)                1.1017         estimate D2E/DX2                !
 ! R45   R(36,40)                1.3976         estimate D2E/DX2                !
 ! R46   R(36,41)                1.1025         estimate D2E/DX2                !
 ! R47   R(38,40)                1.3963         estimate D2E/DX2                !
 ! R48   R(38,42)                1.1028         estimate D2E/DX2                !
 ! R49   R(40,63)                1.4903         estimate D2E/DX2                !
 ! R50   R(43,44)                1.4043         estimate D2E/DX2                !
 ! R51   R(43,45)                1.4064         estimate D2E/DX2                !
 ! R52   R(44,46)                1.3913         estimate D2E/DX2                !
 ! R53   R(44,47)                1.1018         estimate D2E/DX2                !
 ! R54   R(45,48)                1.3899         estimate D2E/DX2                !
 ! R55   R(45,49)                1.1009         estimate D2E/DX2                !
 ! R56   R(46,50)                1.3958         estimate D2E/DX2                !
 ! R57   R(46,51)                1.1027         estimate D2E/DX2                !
 ! R58   R(48,50)                1.398          estimate D2E/DX2                !
 ! R59   R(48,52)                1.1026         estimate D2E/DX2                !
 ! R60   R(50,64)                1.4904         estimate D2E/DX2                !
 ! R61   R(53,54)                1.4075         estimate D2E/DX2                !
 ! R62   R(53,55)                1.4077         estimate D2E/DX2                !
 ! R63   R(54,56)                1.3895         estimate D2E/DX2                !
 ! R64   R(54,57)                1.1032         estimate D2E/DX2                !
 ! R65   R(55,58)                1.3906         estimate D2E/DX2                !
 ! R66   R(55,59)                1.0999         estimate D2E/DX2                !
 ! R67   R(56,60)                1.3972         estimate D2E/DX2                !
 ! R68   R(56,61)                1.1023         estimate D2E/DX2                !
 ! R69   R(58,60)                1.3969         estimate D2E/DX2                !
 ! R70   R(58,62)                1.1025         estimate D2E/DX2                !
 ! R71   R(60,65)                1.4904         estimate D2E/DX2                !
 ! R72   R(63,72)                1.3558         estimate D2E/DX2                !
 ! R73   R(63,73)                1.3687         estimate D2E/DX2                !
 ! R74   R(63,74)                1.3585         estimate D2E/DX2                !
 ! R75   R(64,69)                1.3589         estimate D2E/DX2                !
 ! R76   R(64,70)                1.3553         estimate D2E/DX2                !
 ! R77   R(64,71)                1.3688         estimate D2E/DX2                !
 ! R78   R(65,66)                1.3569         estimate D2E/DX2                !
 ! R79   R(65,67)                1.3695         estimate D2E/DX2                !
 ! R80   R(65,68)                1.3563         estimate D2E/DX2                !
 ! A1    A(2,1,6)              117.1127         estimate D2E/DX2                !
 ! A2    A(2,1,19)             122.2347         estimate D2E/DX2                !
 ! A3    A(6,1,19)             120.6446         estimate D2E/DX2                !
 ! A4    A(1,2,3)              118.6988         estimate D2E/DX2                !
 ! A5    A(1,2,33)             119.5338         estimate D2E/DX2                !
 ! A6    A(3,2,33)             121.7653         estimate D2E/DX2                !
 ! A7    A(2,3,4)              123.4139         estimate D2E/DX2                !
 ! A8    A(2,3,17)             116.7439         estimate D2E/DX2                !
 ! A9    A(4,3,17)             119.8229         estimate D2E/DX2                !
 ! A10   A(3,4,5)              117.2977         estimate D2E/DX2                !
 ! A11   A(3,4,7)              119.5344         estimate D2E/DX2                !
 ! A12   A(5,4,7)              123.1337         estimate D2E/DX2                !
 ! A13   A(4,5,6)              121.1625         estimate D2E/DX2                !
 ! A14   A(4,5,14)             118.0012         estimate D2E/DX2                !
 ! A15   A(6,5,14)             120.8333         estimate D2E/DX2                !
 ! A16   A(1,6,5)              122.3041         estimate D2E/DX2                !
 ! A17   A(1,6,15)             116.446          estimate D2E/DX2                !
 ! A18   A(5,6,15)             121.2499         estimate D2E/DX2                !
 ! A19   A(4,7,8)              119.2227         estimate D2E/DX2                !
 ! A20   A(4,7,20)             120.0717         estimate D2E/DX2                !
 ! A21   A(8,7,20)             119.8995         estimate D2E/DX2                !
 ! A22   A(7,8,9)              119.4173         estimate D2E/DX2                !
 ! A23   A(7,8,13)             123.1861         estimate D2E/DX2                !
 ! A24   A(9,8,13)             117.3921         estimate D2E/DX2                !
 ! A25   A(8,9,10)             122.8343         estimate D2E/DX2                !
 ! A26   A(8,9,17)             119.9744         estimate D2E/DX2                !
 ! A27   A(10,9,17)            117.1699         estimate D2E/DX2                !
 ! A28   A(9,10,11)            119.6076         estimate D2E/DX2                !
 ! A29   A(9,10,43)            121.5236         estimate D2E/DX2                !
 ! A30   A(11,10,43)           118.8684         estimate D2E/DX2                !
 ! A31   A(10,11,12)           117.3438         estimate D2E/DX2                !
 ! A32   A(10,11,18)           121.1879         estimate D2E/DX2                !
 ! A33   A(12,11,18)           121.4437         estimate D2E/DX2                !
 ! A34   A(11,12,13)           119.9492         estimate D2E/DX2                !
 ! A35   A(11,12,53)           120.2995         estimate D2E/DX2                !
 ! A36   A(13,12,53)           119.7464         estimate D2E/DX2                !
 ! A37   A(8,13,12)            122.8679         estimate D2E/DX2                !
 ! A38   A(8,13,16)            117.339          estimate D2E/DX2                !
 ! A39   A(12,13,16)           119.778          estimate D2E/DX2                !
 ! A40   A(3,17,9)             121.9081         estimate D2E/DX2                !
 ! A41   A(7,20,21)            117.86           estimate D2E/DX2                !
 ! A42   A(7,20,22)            122.7909         estimate D2E/DX2                !
 ! A43   A(21,20,22)           119.3486         estimate D2E/DX2                !
 ! A44   A(20,21,23)           120.6218         estimate D2E/DX2                !
 ! A45   A(20,21,24)           119.2114         estimate D2E/DX2                !
 ! A46   A(23,21,24)           120.1668         estimate D2E/DX2                !
 ! A47   A(20,22,25)           119.5397         estimate D2E/DX2                !
 ! A48   A(20,22,30)           120.3173         estimate D2E/DX2                !
 ! A49   A(25,22,30)           120.1414         estimate D2E/DX2                !
 ! A50   A(21,23,26)           119.9971         estimate D2E/DX2                !
 ! A51   A(21,23,27)           119.6941         estimate D2E/DX2                !
 ! A52   A(26,23,27)           120.3087         estimate D2E/DX2                !
 ! A53   A(22,25,26)           120.9823         estimate D2E/DX2                !
 ! A54   A(22,25,28)           117.1443         estimate D2E/DX2                !
 ! A55   A(26,25,28)           121.8733         estimate D2E/DX2                !
 ! A56   A(23,26,25)           119.5104         estimate D2E/DX2                !
 ! A57   A(23,26,29)           120.183          estimate D2E/DX2                !
 ! A58   A(25,26,29)           120.3065         estimate D2E/DX2                !
 ! A59   A(22,30,31)           117.7416         estimate D2E/DX2                !
 ! A60   A(22,30,32)           115.9984         estimate D2E/DX2                !
 ! A61   A(31,30,32)           126.2596         estimate D2E/DX2                !
 ! A62   A(2,33,34)            119.8952         estimate D2E/DX2                !
 ! A63   A(2,33,35)            121.7652         estimate D2E/DX2                !
 ! A64   A(34,33,35)           118.3344         estimate D2E/DX2                !
 ! A65   A(33,34,36)           120.9545         estimate D2E/DX2                !
 ! A66   A(33,34,37)           118.9544         estimate D2E/DX2                !
 ! A67   A(36,34,37)           120.0905         estimate D2E/DX2                !
 ! A68   A(33,35,38)           121.0511         estimate D2E/DX2                !
 ! A69   A(33,35,39)           119.5034         estimate D2E/DX2                !
 ! A70   A(38,35,39)           119.4452         estimate D2E/DX2                !
 ! A71   A(34,36,40)           119.7102         estimate D2E/DX2                !
 ! A72   A(34,36,41)           120.2838         estimate D2E/DX2                !
 ! A73   A(40,36,41)           120.0049         estimate D2E/DX2                !
 ! A74   A(35,38,40)           119.668          estimate D2E/DX2                !
 ! A75   A(35,38,42)           120.3538         estimate D2E/DX2                !
 ! A76   A(40,38,42)           119.9781         estimate D2E/DX2                !
 ! A77   A(36,40,38)           120.2713         estimate D2E/DX2                !
 ! A78   A(36,40,63)           119.7182         estimate D2E/DX2                !
 ! A79   A(38,40,63)           119.9466         estimate D2E/DX2                !
 ! A80   A(10,43,44)           121.6982         estimate D2E/DX2                !
 ! A81   A(10,43,45)           119.902          estimate D2E/DX2                !
 ! A82   A(44,43,45)           118.3969         estimate D2E/DX2                !
 ! A83   A(43,44,46)           121.0275         estimate D2E/DX2                !
 ! A84   A(43,44,47)           119.5039         estimate D2E/DX2                !
 ! A85   A(46,44,47)           119.4683         estimate D2E/DX2                !
 ! A86   A(43,45,48)           120.9348         estimate D2E/DX2                !
 ! A87   A(43,45,49)           118.9366         estimate D2E/DX2                !
 ! A88   A(48,45,49)           120.1278         estimate D2E/DX2                !
 ! A89   A(44,46,50)           119.6409         estimate D2E/DX2                !
 ! A90   A(44,46,51)           120.3708         estimate D2E/DX2                !
 ! A91   A(50,46,51)           119.9877         estimate D2E/DX2                !
 ! A92   A(45,48,50)           119.6896         estimate D2E/DX2                !
 ! A93   A(45,48,52)           120.2938         estimate D2E/DX2                !
 ! A94   A(50,48,52)           120.0155         estimate D2E/DX2                !
 ! A95   A(46,50,48)           120.3009         estimate D2E/DX2                !
 ! A96   A(46,50,64)           120.1004         estimate D2E/DX2                !
 ! A97   A(48,50,64)           119.5393         estimate D2E/DX2                !
 ! A98   A(12,53,54)           120.1826         estimate D2E/DX2                !
 ! A99   A(12,53,55)           121.7052         estimate D2E/DX2                !
 ! A100  A(54,53,55)           118.1055         estimate D2E/DX2                !
 ! A101  A(53,54,56)           121.3281         estimate D2E/DX2                !
 ! A102  A(53,54,57)           119.3112         estimate D2E/DX2                !
 ! A103  A(56,54,57)           119.3371         estimate D2E/DX2                !
 ! A104  A(53,55,58)           120.8708         estimate D2E/DX2                !
 ! A105  A(53,55,59)           118.6629         estimate D2E/DX2                !
 ! A106  A(58,55,59)           120.4659         estimate D2E/DX2                !
 ! A107  A(54,56,60)           119.5514         estimate D2E/DX2                !
 ! A108  A(54,56,61)           120.3193         estimate D2E/DX2                !
 ! A109  A(60,56,61)           120.116          estimate D2E/DX2                !
 ! A110  A(55,58,60)           119.9551         estimate D2E/DX2                !
 ! A111  A(55,58,62)           120.1625         estimate D2E/DX2                !
 ! A112  A(60,58,62)           119.8814         estimate D2E/DX2                !
 ! A113  A(56,60,58)           120.1836         estimate D2E/DX2                !
 ! A114  A(56,60,65)           119.7839         estimate D2E/DX2                !
 ! A115  A(58,60,65)           120.0017         estimate D2E/DX2                !
 ! A116  A(40,63,72)           112.7372         estimate D2E/DX2                !
 ! A117  A(40,63,73)           112.0512         estimate D2E/DX2                !
 ! A118  A(40,63,74)           112.5563         estimate D2E/DX2                !
 ! A119  A(72,63,73)           106.0832         estimate D2E/DX2                !
 ! A120  A(72,63,74)           107.0963         estimate D2E/DX2                !
 ! A121  A(73,63,74)           105.8201         estimate D2E/DX2                !
 ! A122  A(50,64,69)           112.5053         estimate D2E/DX2                !
 ! A123  A(50,64,70)           112.8183         estimate D2E/DX2                !
 ! A124  A(50,64,71)           111.9935         estimate D2E/DX2                !
 ! A125  A(69,64,70)           107.1015         estimate D2E/DX2                !
 ! A126  A(69,64,71)           105.7772         estimate D2E/DX2                !
 ! A127  A(70,64,71)           106.1496         estimate D2E/DX2                !
 ! A128  A(60,65,66)           112.6201         estimate D2E/DX2                !
 ! A129  A(60,65,67)           112.0981         estimate D2E/DX2                !
 ! A130  A(60,65,68)           112.6426         estimate D2E/DX2                !
 ! A131  A(66,65,67)           105.8695         estimate D2E/DX2                !
 ! A132  A(66,65,68)           107.1893         estimate D2E/DX2                !
 ! A133  A(67,65,68)           105.9227         estimate D2E/DX2                !
 ! D1    D(6,1,2,3)              1.1682         estimate D2E/DX2                !
 ! D2    D(6,1,2,33)          -179.3489         estimate D2E/DX2                !
 ! D3    D(19,1,2,3)          -179.8518         estimate D2E/DX2                !
 ! D4    D(19,1,2,33)           -0.3688         estimate D2E/DX2                !
 ! D5    D(2,1,6,5)             -0.6698         estimate D2E/DX2                !
 ! D6    D(2,1,6,15)           179.3824         estimate D2E/DX2                !
 ! D7    D(19,1,6,5)          -179.667          estimate D2E/DX2                !
 ! D8    D(19,1,6,15)            0.3852         estimate D2E/DX2                !
 ! D9    D(1,2,3,4)             -0.8742         estimate D2E/DX2                !
 ! D10   D(1,2,3,17)           177.5195         estimate D2E/DX2                !
 ! D11   D(33,2,3,4)           179.6548         estimate D2E/DX2                !
 ! D12   D(33,2,3,17)           -1.9514         estimate D2E/DX2                !
 ! D13   D(1,2,33,34)          -45.5            estimate D2E/DX2                !
 ! D14   D(1,2,33,35)          133.6563         estimate D2E/DX2                !
 ! D15   D(3,2,33,34)          133.9666         estimate D2E/DX2                !
 ! D16   D(3,2,33,35)          -46.8771         estimate D2E/DX2                !
 ! D17   D(2,3,4,5)              0.0136         estimate D2E/DX2                !
 ! D18   D(2,3,4,7)            177.9526         estimate D2E/DX2                !
 ! D19   D(17,3,4,5)          -178.333          estimate D2E/DX2                !
 ! D20   D(17,3,4,7)            -0.394          estimate D2E/DX2                !
 ! D21   D(2,3,17,9)           179.8431         estimate D2E/DX2                !
 ! D22   D(4,3,17,9)            -1.7024         estimate D2E/DX2                !
 ! D23   D(3,4,5,6)              0.5336         estimate D2E/DX2                !
 ! D24   D(3,4,5,14)           179.9051         estimate D2E/DX2                !
 ! D25   D(7,4,5,6)           -177.325          estimate D2E/DX2                !
 ! D26   D(7,4,5,14)             2.0465         estimate D2E/DX2                !
 ! D27   D(3,4,7,8)              3.2214         estimate D2E/DX2                !
 ! D28   D(3,4,7,20)           172.9313         estimate D2E/DX2                !
 ! D29   D(5,4,7,8)           -178.9658         estimate D2E/DX2                !
 ! D30   D(5,4,7,20)            -9.2559         estimate D2E/DX2                !
 ! D31   D(4,5,6,1)             -0.1905         estimate D2E/DX2                !
 ! D32   D(4,5,6,15)           179.7548         estimate D2E/DX2                !
 ! D33   D(14,5,6,1)          -179.5443         estimate D2E/DX2                !
 ! D34   D(14,5,6,15)            0.401          estimate D2E/DX2                !
 ! D35   D(4,7,8,9)             -4.0119         estimate D2E/DX2                !
 ! D36   D(4,7,8,13)           176.7804         estimate D2E/DX2                !
 ! D37   D(20,7,8,9)          -173.7398         estimate D2E/DX2                !
 ! D38   D(20,7,8,13)            7.0525         estimate D2E/DX2                !
 ! D39   D(4,7,20,21)          -83.0919         estimate D2E/DX2                !
 ! D40   D(4,7,20,22)           97.1782         estimate D2E/DX2                !
 ! D41   D(8,7,20,21)           86.5481         estimate D2E/DX2                !
 ! D42   D(8,7,20,22)          -93.1818         estimate D2E/DX2                !
 ! D43   D(7,8,9,10)          -179.7267         estimate D2E/DX2                !
 ! D44   D(7,8,9,17)             2.0042         estimate D2E/DX2                !
 ! D45   D(13,8,9,10)           -0.4735         estimate D2E/DX2                !
 ! D46   D(13,8,9,17)         -178.7426         estimate D2E/DX2                !
 ! D47   D(7,8,13,12)          179.7076         estimate D2E/DX2                !
 ! D48   D(7,8,13,16)           -1.7112         estimate D2E/DX2                !
 ! D49   D(9,8,13,12)            0.4849         estimate D2E/DX2                !
 ! D50   D(9,8,13,16)          179.0661         estimate D2E/DX2                !
 ! D51   D(8,9,10,11)           -0.0962         estimate D2E/DX2                !
 ! D52   D(8,9,10,43)         -179.8563         estimate D2E/DX2                !
 ! D53   D(17,9,10,11)         178.2184         estimate D2E/DX2                !
 ! D54   D(17,9,10,43)          -1.5417         estimate D2E/DX2                !
 ! D55   D(8,9,17,3)             0.8923         estimate D2E/DX2                !
 ! D56   D(10,9,17,3)         -177.473          estimate D2E/DX2                !
 ! D57   D(9,10,11,12)           0.644          estimate D2E/DX2                !
 ! D58   D(9,10,11,18)         178.8658         estimate D2E/DX2                !
 ! D59   D(43,10,11,12)       -179.5895         estimate D2E/DX2                !
 ! D60   D(43,10,11,18)         -1.3678         estimate D2E/DX2                !
 ! D61   D(9,10,43,44)         -47.9881         estimate D2E/DX2                !
 ! D62   D(9,10,43,45)         132.6418         estimate D2E/DX2                !
 ! D63   D(11,10,43,44)        132.25           estimate D2E/DX2                !
 ! D64   D(11,10,43,45)        -47.12           estimate D2E/DX2                !
 ! D65   D(10,11,12,13)         -0.6359         estimate D2E/DX2                !
 ! D66   D(10,11,12,53)        178.5569         estimate D2E/DX2                !
 ! D67   D(18,11,12,13)       -178.8528         estimate D2E/DX2                !
 ! D68   D(18,11,12,53)          0.3399         estimate D2E/DX2                !
 ! D69   D(11,12,13,8)           0.0713         estimate D2E/DX2                !
 ! D70   D(11,12,13,16)       -178.4767         estimate D2E/DX2                !
 ! D71   D(53,12,13,8)        -179.1259         estimate D2E/DX2                !
 ! D72   D(53,12,13,16)          2.326          estimate D2E/DX2                !
 ! D73   D(11,12,53,54)       -145.1729         estimate D2E/DX2                !
 ! D74   D(11,12,53,55)         35.7873         estimate D2E/DX2                !
 ! D75   D(13,12,53,54)         34.0215         estimate D2E/DX2                !
 ! D76   D(13,12,53,55)       -145.0183         estimate D2E/DX2                !
 ! D77   D(7,20,21,23)        -179.6778         estimate D2E/DX2                !
 ! D78   D(7,20,21,24)           0.2416         estimate D2E/DX2                !
 ! D79   D(22,20,21,23)          0.0617         estimate D2E/DX2                !
 ! D80   D(22,20,21,24)        179.9811         estimate D2E/DX2                !
 ! D81   D(7,20,22,25)         179.698          estimate D2E/DX2                !
 ! D82   D(7,20,22,30)          -0.7551         estimate D2E/DX2                !
 ! D83   D(21,20,22,25)         -0.028          estimate D2E/DX2                !
 ! D84   D(21,20,22,30)        179.5189         estimate D2E/DX2                !
 ! D85   D(20,21,23,26)         -0.0462         estimate D2E/DX2                !
 ! D86   D(20,21,23,27)        179.971          estimate D2E/DX2                !
 ! D87   D(24,21,23,26)       -179.9648         estimate D2E/DX2                !
 ! D88   D(24,21,23,27)          0.0523         estimate D2E/DX2                !
 ! D89   D(20,22,25,26)         -0.0211         estimate D2E/DX2                !
 ! D90   D(20,22,25,28)        179.855          estimate D2E/DX2                !
 ! D91   D(30,22,25,26)       -179.5688         estimate D2E/DX2                !
 ! D92   D(30,22,25,28)          0.3072         estimate D2E/DX2                !
 ! D93   D(20,22,30,31)        179.2864         estimate D2E/DX2                !
 ! D94   D(20,22,30,32)         -0.912          estimate D2E/DX2                !
 ! D95   D(25,22,30,31)         -1.1694         estimate D2E/DX2                !
 ! D96   D(25,22,30,32)        178.6322         estimate D2E/DX2                !
 ! D97   D(21,23,26,25)         -0.0033         estimate D2E/DX2                !
 ! D98   D(21,23,26,29)       -179.9218         estimate D2E/DX2                !
 ! D99   D(27,23,26,25)        179.9795         estimate D2E/DX2                !
 ! D100  D(27,23,26,29)          0.061          estimate D2E/DX2                !
 ! D101  D(22,25,26,23)          0.0369         estimate D2E/DX2                !
 ! D102  D(22,25,26,29)        179.9553         estimate D2E/DX2                !
 ! D103  D(28,25,26,23)       -179.8332         estimate D2E/DX2                !
 ! D104  D(28,25,26,29)          0.0852         estimate D2E/DX2                !
 ! D105  D(2,33,34,36)        -179.5526         estimate D2E/DX2                !
 ! D106  D(2,33,34,37)           0.1778         estimate D2E/DX2                !
 ! D107  D(35,33,34,36)          1.2624         estimate D2E/DX2                !
 ! D108  D(35,33,34,37)       -179.0072         estimate D2E/DX2                !
 ! D109  D(2,33,35,38)         179.965          estimate D2E/DX2                !
 ! D110  D(2,33,35,39)           0.1382         estimate D2E/DX2                !
 ! D111  D(34,33,35,38)         -0.866          estimate D2E/DX2                !
 ! D112  D(34,33,35,39)        179.3072         estimate D2E/DX2                !
 ! D113  D(33,34,36,40)         -0.9267         estimate D2E/DX2                !
 ! D114  D(33,34,36,41)        179.4477         estimate D2E/DX2                !
 ! D115  D(37,34,36,40)        179.346          estimate D2E/DX2                !
 ! D116  D(37,34,36,41)         -0.2796         estimate D2E/DX2                !
 ! D117  D(33,35,38,40)          0.1386         estimate D2E/DX2                !
 ! D118  D(33,35,38,42)       -179.7219         estimate D2E/DX2                !
 ! D119  D(39,35,38,40)        179.9655         estimate D2E/DX2                !
 ! D120  D(39,35,38,42)          0.105          estimate D2E/DX2                !
 ! D121  D(34,36,40,38)          0.1699         estimate D2E/DX2                !
 ! D122  D(34,36,40,63)        177.2629         estimate D2E/DX2                !
 ! D123  D(41,36,40,38)        179.7965         estimate D2E/DX2                !
 ! D124  D(41,36,40,63)         -3.1105         estimate D2E/DX2                !
 ! D125  D(35,38,40,36)          0.2209         estimate D2E/DX2                !
 ! D126  D(35,38,40,63)       -176.8655         estimate D2E/DX2                !
 ! D127  D(42,38,40,36)       -179.9181         estimate D2E/DX2                !
 ! D128  D(42,38,40,63)          2.9955         estimate D2E/DX2                !
 ! D129  D(36,40,63,72)        152.8178         estimate D2E/DX2                !
 ! D130  D(36,40,63,73)        -87.5892         estimate D2E/DX2                !
 ! D131  D(36,40,63,74)         31.5379         estimate D2E/DX2                !
 ! D132  D(38,40,63,72)        -30.0796         estimate D2E/DX2                !
 ! D133  D(38,40,63,73)         89.5134         estimate D2E/DX2                !
 ! D134  D(38,40,63,74)       -151.3595         estimate D2E/DX2                !
 ! D135  D(10,43,44,46)        179.9197         estimate D2E/DX2                !
 ! D136  D(10,43,44,47)          0.0912         estimate D2E/DX2                !
 ! D137  D(45,43,44,46)         -0.7011         estimate D2E/DX2                !
 ! D138  D(45,43,44,47)        179.4704         estimate D2E/DX2                !
 ! D139  D(10,43,45,48)       -179.4313         estimate D2E/DX2                !
 ! D140  D(10,43,45,49)          0.239          estimate D2E/DX2                !
 ! D141  D(44,43,45,48)          1.178          estimate D2E/DX2                !
 ! D142  D(44,43,45,49)       -179.1517         estimate D2E/DX2                !
 ! D143  D(43,44,46,50)          0.0001         estimate D2E/DX2                !
 ! D144  D(43,44,46,51)       -179.7193         estimate D2E/DX2                !
 ! D145  D(47,44,46,50)        179.8287         estimate D2E/DX2                !
 ! D146  D(47,44,46,51)          0.1093         estimate D2E/DX2                !
 ! D147  D(43,45,48,50)         -0.9476         estimate D2E/DX2                !
 ! D148  D(43,45,48,52)        179.4222         estimate D2E/DX2                !
 ! D149  D(49,45,48,50)        179.386          estimate D2E/DX2                !
 ! D150  D(49,45,48,52)         -0.2441         estimate D2E/DX2                !
 ! D151  D(44,46,50,48)          0.2493         estimate D2E/DX2                !
 ! D152  D(44,46,50,64)       -176.935          estimate D2E/DX2                !
 ! D153  D(51,46,50,48)        179.9698         estimate D2E/DX2                !
 ! D154  D(51,46,50,64)          2.7855         estimate D2E/DX2                !
 ! D155  D(45,48,50,46)          0.2205         estimate D2E/DX2                !
 ! D156  D(45,48,50,64)        177.4205         estimate D2E/DX2                !
 ! D157  D(52,48,50,46)        179.8517         estimate D2E/DX2                !
 ! D158  D(52,48,50,64)         -2.9483         estimate D2E/DX2                !
 ! D159  D(46,50,64,69)       -149.6647         estimate D2E/DX2                !
 ! D160  D(46,50,64,70)        -28.3557         estimate D2E/DX2                !
 ! D161  D(46,50,64,71)         91.339          estimate D2E/DX2                !
 ! D162  D(48,50,64,69)         33.1296         estimate D2E/DX2                !
 ! D163  D(48,50,64,70)        154.4386         estimate D2E/DX2                !
 ! D164  D(48,50,64,71)        -85.8667         estimate D2E/DX2                !
 ! D165  D(12,53,54,56)       -178.3681         estimate D2E/DX2                !
 ! D166  D(12,53,54,57)          3.4114         estimate D2E/DX2                !
 ! D167  D(55,53,54,56)          0.7058         estimate D2E/DX2                !
 ! D168  D(55,53,54,57)       -177.5148         estimate D2E/DX2                !
 ! D169  D(12,53,55,58)        178.2076         estimate D2E/DX2                !
 ! D170  D(12,53,55,59)         -2.0319         estimate D2E/DX2                !
 ! D171  D(54,53,55,58)         -0.8514         estimate D2E/DX2                !
 ! D172  D(54,53,55,59)        178.9092         estimate D2E/DX2                !
 ! D173  D(53,54,56,60)         -0.3839         estimate D2E/DX2                !
 ! D174  D(53,54,56,61)       -179.0594         estimate D2E/DX2                !
 ! D175  D(57,54,56,60)        177.8362         estimate D2E/DX2                !
 ! D176  D(57,54,56,61)         -0.8393         estimate D2E/DX2                !
 ! D177  D(53,55,58,60)          0.6792         estimate D2E/DX2                !
 ! D178  D(53,55,58,62)       -179.6828         estimate D2E/DX2                !
 ! D179  D(59,55,58,60)       -179.077          estimate D2E/DX2                !
 ! D180  D(59,55,58,62)          0.561          estimate D2E/DX2                !
 ! D181  D(54,56,60,58)          0.1892         estimate D2E/DX2                !
 ! D182  D(54,56,60,65)        178.1713         estimate D2E/DX2                !
 ! D183  D(61,56,60,58)        178.8674         estimate D2E/DX2                !
 ! D184  D(61,56,60,65)         -3.1505         estimate D2E/DX2                !
 ! D185  D(55,58,60,56)         -0.337          estimate D2E/DX2                !
 ! D186  D(55,58,60,65)       -178.3147         estimate D2E/DX2                !
 ! D187  D(62,58,60,56)       -179.9761         estimate D2E/DX2                !
 ! D188  D(62,58,60,65)          2.0462         estimate D2E/DX2                !
 ! D189  D(56,60,65,66)         32.1517         estimate D2E/DX2                !
 ! D190  D(56,60,65,67)        -87.1165         estimate D2E/DX2                !
 ! D191  D(56,60,65,68)        153.531          estimate D2E/DX2                !
 ! D192  D(58,60,65,66)       -149.8625         estimate D2E/DX2                !
 ! D193  D(58,60,65,67)         90.8694         estimate D2E/DX2                !
 ! D194  D(58,60,65,68)        -28.4832         estimate D2E/DX2                !
 --------------------------------------------------------------------------------
 Trust Radius=3.00D-01 FncErr=1.00D-07 GrdErr=1.00D-06
 Number of steps in this run=    417 maximum allowed number of steps=    444.
 GradGradGradGradGradGradGradGradGradGradGradGradGradGradGradGradGradGrad

 Leave Link  103 at Sat Feb  5 21:09:07 2022, MaxMem=  5242880000 cpu:         0.3
 (Enter /opt/nce/packages/global/g09/l202.exe)
 Symmetry turned off by external request.
 Stoichiometry    C41H19F9O5(2-)
 Framework group  C1[X(C41H19F9O5)]
 Deg. of freedom   216
 Full point group                 C1      NOp   1
                          Input orientation:                          
 ---------------------------------------------------------------------
 Center     Atomic      Atomic             Coordinates (Angstroms)
 Number     Number       Type             X           Y           Z
 ---------------------------------------------------------------------
      1          6           0       -5.068930   -2.411131    1.367332
      2          6           0       -3.678006   -2.078010    1.108242
      3          6           0       -3.392366   -1.042060    0.223243
      4          6           0       -4.392823   -0.297760   -0.460146
      5          6           0       -5.748322   -0.646242   -0.211707
      6          6           0       -6.072513   -1.648833    0.657678
      7          6           0       -4.013579    0.761924   -1.304139
      8          6           0       -2.642543    1.021878   -1.509479
      9          6           0       -1.674965    0.266644   -0.795668
     10          6           0       -0.307626    0.466821   -0.938863
     11          6           0        0.176913    1.486400   -1.854656
     12          6           0       -0.827131    2.272450   -2.580501
     13          6           0       -2.168085    2.020128   -2.389293
     14          1           0       -6.534616   -0.074811   -0.734952
     15          1           0       -7.124569   -1.917929    0.854675
     16          1           0       -2.921006    2.596413   -2.956009
     17          8           0       -2.074038   -0.728211    0.048945
     18          8           0        1.416380    1.708676   -1.992644
     19          8           0       -5.406330   -3.342856    2.165384
     20          6           0       -5.030430    1.445178   -2.143562
     21          6           0       -5.371593    0.855907   -3.368837
     22          6           0       -5.649258    2.646080   -1.761600
     23          6           0       -6.314773    1.452067   -4.205707
     24          1           0       -4.883447   -0.088073   -3.667032
     25          6           0       -6.593792    3.234441   -2.608054
     26          6           0       -6.929917    2.647277   -3.825090
     27          1           0       -6.571320    0.975488   -5.166513
     28          1           0       -7.057319    4.176364   -2.267741
     29          1           0       -7.677105    3.120668   -4.483892
     30          6           0       -5.305459    3.295480   -0.438790
     31          8           0       -5.882683    4.385350   -0.149260
     32          8           0       -4.459883    2.681938    0.277931
     33          6           0       -2.612440   -2.830026    1.790900
     34          6           0       -2.709706   -3.088111    3.170287
     35          6           0       -1.493068   -3.320994    1.097886
     36          6           0       -1.711785   -3.788158    3.838960
     37          1           0       -3.590614   -2.722415    3.720117
     38          6           0       -0.494575   -4.029139    1.757936
     39          1           0       -1.403080   -3.139920    0.014883
     40          6           0       -0.603542   -4.260671    3.130575
     41          1           0       -1.794991   -3.976385    4.922121
     42          1           0        0.381310   -4.405335    1.203500
     43          6           0        0.671209   -0.335843   -0.185881
     44          6           0        0.546063   -0.545089    1.197067
     45          6           0        1.772480   -0.903705   -0.851332
     46          6           0        1.478100   -1.307243    1.894294
     47          1           0       -0.304914   -0.101235    1.738214
     48          6           0        2.702744   -1.674598   -0.164119
     49          1           0        1.886944   -0.733483   -1.932979
     50          6           0        2.555563   -1.874194    1.211717
     51          1           0        1.366760   -1.468421    2.979408
     52          1           0        3.557030   -2.122641   -0.698188
     53          6           0       -0.409813    3.341773   -3.499160
     54          6           0       -1.186340    4.508793   -3.625974
     55          6           0        0.751644    3.229211   -4.286587
     56          6           0       -0.832342    5.519431   -4.511381
     57          1           0       -2.077776    4.636241   -2.988686
     58          6           0        1.110284    4.235317   -5.176991
     59          1           0        1.375063    2.329192   -4.181533
     60          6           0        0.321089    5.382551   -5.287849
     61          1           0       -1.444168    6.433355   -4.586107
     62          1           0        2.019641    4.132675   -5.791814
     63          6           0        0.495376   -4.957450    3.857021
     64          6           0        3.521982   -2.748383    1.934896
     65          6           0        0.683633    6.444582   -6.268640
     66          9           0        0.303168    7.682084   -5.862343
     67          9           0        0.084745    6.249065   -7.484602
     68          9           0        2.016511    6.495508   -6.514246
     69          9           0        4.773430   -2.686844    1.408856
     70          9           0        3.627034   -2.440011    3.250409
     71          9           0        3.159940   -4.067375    1.880755
     72          9           0        1.164955   -5.838715    3.073874
     73          9           0        1.434429   -4.081575    4.330748
     74          9           0        0.049834   -5.644687    4.940824
 ---------------------------------------------------------------------
 Rotational constants (GHZ):      0.0648639      0.0286281      0.0209487
 Leave Link  202 at Sat Feb  5 21:09:07 2022, MaxMem=  5242880000 cpu:         0.1
 (Enter /opt/nce/packages/global/g09/l301.exe)
 Standard basis: def2TZVP (5D, 7F)
 Ernie: Thresh=  0.10000D-02 Tol=  0.10000D-05 Strict=F.
  1819 basis functions,  2957 primitive gaussians,  2094 cartesian basis functions
   194 alpha electrons      194 beta electrons
       nuclear repulsion energy      7331.4892737309 Hartrees.
 IExCor= 1009 DFT=T Ex=PBE Corr=PBE ExCW=0 ScaHFX=  0.000000
 ScaDFX=  1.000000  1.000000  1.000000  1.000000 ScalE2=  1.000000  1.000000
 IRadAn=      5 IRanWt=     -1 IRanGd=            0 ICorTp=0 IEmpDi=141
 NAtoms=   74 NActive=   74 NUniq=   74 SFac= 1.00D+00 NAtFMM=   60 NAOKFM=T Big=T
 Integral buffers will be    131072 words long.
 Raffenetti 2 integral format.
 Two-electron integral symmetry is turned off.
 R6Disp:  Grimme-D3(BJ) Dispersion energy=       -0.1236681824 Hartrees.
 Nuclear repulsion after empirical dispersion term =     7331.3656055484 Hartrees.
 ------------------------------------------------------------------------------
 Polarizable Continuum Model (PCM)
 =================================
 Model                : PCM (using non-symmetric T matrix).
 Atomic radii         : SMD-Coulomb.
 Polarization charges : Total charges.
 Charge compensation  : None.
 Solution method      : On-the-fly selection.
 Cavity type          : VdW (van der Waals Surface) (Alpha=1.000).
 Cavity algorithm     : GePol (No added spheres)
                        Default sphere list used, NSphG=   74.
                        Lebedev-Laikov grids with approx.  5.0 points / Ang**2.
                        Smoothing algorithm: York/Karplus (Gamma=1.0000).
                        Polarization charges: spherical gaussians, with
                                              point-specific exponents (IZeta= 3).
                        Self-potential: point-specific (ISelfS= 7).
                        Self-field    : sphere-specific E.n sum rule (ISelfD= 2).
 1st derivatives      : Analytical E(r).r(x)/FMM algorithm (CHGder, D1EAlg=3).
                        Cavity 1st derivative terms included.
 Solvent              : Acetonitrile, Eps=  35.688000 Eps(inf)=   1.806874
 ------------------------------------------------------------------------------
 GePol: Number of generator spheres                  =      74
 GePol: Total number of spheres                      =      74
 GePol: Number of exposed spheres                    =      74 (100.00%)
 GePol: Number of points                             =    5437
 GePol: Average weight of points                     =       0.13
 GePol: Minimum weight of points                     =   0.37D-10
 GePol: Maximum weight of points                     =    0.21559
 GePol: Number of points with low weight             =     290
 GePol: Fraction of low-weight points (<1% of avg)   =       5.33%
 GePol: Cavity surface area                          =    686.308 Ang**2
 GePol: Cavity volume                                =    730.180 Ang**3
 ------------------------------------------------------------------------------
 Atomic radii for non-electrostatic terms: SMD-CDS.
 ------------------------------------------------------------------------------
 PCM non-electrostatic energy =        -0.0088708594 Hartrees.
 Nuclear repulsion after PCM non-electrostatic terms =     7331.3567346891 Hartrees.
 Leave Link  301 at Sat Feb  5 21:09:08 2022, MaxMem=  5242880000 cpu:         2.8
 (Enter /opt/nce/packages/global/g09/l302.exe)
 NPDir=0 NMtPBC=     1 NCelOv=     1 NCel=       1 NClECP=     1 NCelD=      1
         NCelK=      1 NCelE2=     1 NClLst=     1 CellRange=     0.0.
 One-electron integrals computed using PRISM.
   1 Symmetry operations used in ECPInt.
 ECPInt:  NShTT=  232221 NPrTT=  738772 LenC2=  153147 LenP2D=  312025.
 LDataN:  DoStor=T MaxTD1= 6 Len=  172
 NBasis=  1819 RedAO= T EigKep=  3.72D-06  NBF=  1819
 NBsUse=  1819 1.00D-06 EigRej= -1.00D+00 NBFU=  1819
 Precomputing XC quadrature grid using
 IXCGrd= 4 IRadAn=           5 IRanWt=          -1 IRanGd=           0 AccXCQ= 0.00D+00.
 Generated NRdTot=       0 NPtTot=           0 NUsed=           0 NTot=          32
 NSgBfM=  1882  1882  1882  1882  1882 MxSgAt=    74 MxSgA2=    74.
 Leave Link  302 at Sat Feb  5 21:09:16 2022, MaxMem=  5242880000 cpu:        95.6
 (Enter /opt/nce/packages/global/g09/l303.exe)
 DipDrv:  MaxL=1.
 Leave Link  303 at Sat Feb  5 21:09:16 2022, MaxMem=  5242880000 cpu:         7.0
 (Enter /opt/nce/packages/global/g09/l401.exe)
 ExpMin= 9.52D-02 ExpMax= 3.55D+04 ExpMxC= 1.21D+03 IAcc=3 IRadAn=         5 AccDes= 0.00D+00
 Harris functional with IExCor= 1009 and IRadAn=       5 diagonalized for initial guess.
 HarFok:  IExCor= 1009 AccDes= 0.00D+00 IRadAn=         5 IDoV= 1 UseB2=F ITyADJ=14
 ICtDFT=  3500011 ScaDFX=  1.000000  1.000000  1.000000  1.000000
 FoFCou: FMM=F IPFlag=           0 FMFlag=      100000 FMFlg1=        2001
         NFxFlg=           0 DoJE=T BraDBF=F KetDBF=T FulRan=T
         wScrn=  0.000000 ICntrl=     500 IOpCl=  0 I1Cent=   200000004 NGrid=           0
         NMat0=    1 NMatS0=      1 NMatT0=    0 NMatD0=    1 NMtDS0=    0 NMtDT0=    0
 Symmetry not used in FoFCou.
 Harris En= -2847.65952260736    
 JPrj=0 DoOrth=F DoCkMO=F.
 Leave Link  401 at Sat Feb  5 21:09:39 2022, MaxMem=  5242880000 cpu:       269.7
 (Enter /opt/nce/packages/global/g09/l502.exe)
 Closed shell SCF:
 Using DIIS extrapolation, IDIIS=  1040.
 Two-electron integral symmetry not used.
 IVT=    13210898 IEndB=    13210898 NGot=  5242880000 MDV=  5234072673
 LenX=  5234072673 LenY=  5229685743
 Requested convergence on RMS density matrix=1.00D-08 within 128 cycles.
 Requested convergence on MAX density matrix=1.00D-06.
 Requested convergence on             energy=1.00D-06.
 No special actions if energy rises.
 Fock matrices will be formed incrementally for  20 cycles.

 Cycle   1  Pass 1  IDiag  1:
 FoFJK:  IHMeth= 1 ICntrl=     500 DoSepK=F KAlg= 0 I1Cent=   0 FoldK=F
 IRaf= 600000000 NMat=   1 IRICut=       1 DoRegI=T DoRafI=F ISym2E= 0.
 FoFCou: FMM=T IPFlag=           0 FMFlag=      100000 FMFlg1=        2001
         NFxFlg=           0 DoJE=T BraDBF=F KetDBF=F FulRan=T
         wScrn=  0.000000 ICntrl=     500 IOpCl=  0 I1Cent=           0 NGrid=           0
         NMat0=    1 NMatS0=      1 NMatT0=    0 NMatD0=    1 NMtDS0=    0 NMtDT0=    0
 Symmetry not used in FoFCou.
 FMM levels:  10  Number of levels for PrismC:   9
 Inv3:  Mode=1 IEnd=    88682907.
 Iteration    1 A*A^-1 deviation from unit magnitude is 9.33D-15 for   5433.
 Iteration    1 A*A^-1 deviation from orthogonality  is 3.90D-15 for   3408    252.
 Iteration    1 A^-1*A deviation from unit magnitude is 9.77D-15 for   5437.
 Iteration    1 A^-1*A deviation from orthogonality  is 1.85D-09 for   2565   2492.
 Iteration    2 A*A^-1 deviation from unit magnitude is 3.55D-15 for   2511.
 Iteration    2 A*A^-1 deviation from orthogonality  is 3.07D-15 for   4598   2464.
 Iteration    2 A^-1*A deviation from unit magnitude is 1.11D-15 for   3090.
 Iteration    2 A^-1*A deviation from orthogonality  is 7.40D-16 for   5428   4447.
 E= -2845.95638834282    
 DIIS: error= 1.69D-02 at cycle   1 NSaved=   1.
 NSaved= 1 IEnMin= 1 EnMin= -2845.95638834282     IErMin= 1 ErrMin= 1.69D-02
 ErrMax= 1.69D-02  0.00D+00 EMaxC= 1.00D-01 BMatC= 1.15D+00 BMatP= 1.15D+00
 IDIUse=3 WtCom= 8.31D-01 WtEn= 1.69D-01
 Coeff-Com:  0.100D+01
 Coeff-En:   0.100D+01
 Coeff:      0.100D+01
 Gap=     0.039 Goal=   None    Shift=    0.000
 GapD=    0.039 DampG=0.250 DampE=0.500 DampFc=0.2500 IDamp=-1.
 Damping current iteration by 2.50D-01
 RMSDP=2.18D-02 MaxDP=3.60D+00              OVMax= 8.91D-01

 Cycle   2  Pass 1  IDiag  1:
 RMSU=  5.38D-03    CP:  1.20D+00
 E= -2846.13941957777     Delta-E=       -0.183031234950 Rises=F Damp=T
 DIIS: error= 5.73D-03 at cycle   2 NSaved=   2.
 NSaved= 2 IEnMin= 2 EnMin= -2846.13941957777     IErMin= 2 ErrMin= 5.73D-03
 ErrMax= 5.73D-03  0.00D+00 EMaxC= 1.00D-01 BMatC= 2.15D-01 BMatP= 1.15D+00
 IDIUse=3 WtCom= 9.43D-01 WtEn= 5.73D-02
 Coeff-Com: -0.162D+00 0.116D+01
 Coeff-En:   0.318D+00 0.682D+00
 Coeff:     -0.134D+00 0.113D+01
 Gap=     0.132 Goal=   None    Shift=    0.000
 RMSDP=4.40D-03 MaxDP=7.73D-01 DE=-1.83D-01 OVMax= 7.48D-01

 Cycle   3  Pass 1  IDiag  1:
 RMSU=  1.64D-03    CP:  1.05D+00  2.51D-01
 E= -2846.11202952256     Delta-E=        0.027390055213 Rises=F Damp=F
 DIIS: error= 1.31D-02 at cycle   3 NSaved=   3.
 NSaved= 3 IEnMin= 2 EnMin= -2846.13941957777     IErMin= 2 ErrMin= 5.73D-03
 ErrMax= 1.31D-02  0.00D+00 EMaxC= 1.00D-01 BMatC= 8.77D-01 BMatP= 2.15D-01
 IDIUse=2 WtCom= 0.00D+00 WtEn= 1.00D+00
 Coeff-En:   0.000D+00 0.511D+00 0.489D+00
 Coeff:      0.000D+00 0.511D+00 0.489D+00
 Gap=     0.089 Goal=   None    Shift=    0.000
 RMSDP=7.77D-03 MaxDP=1.82D+00 DE= 2.74D-02 OVMax= 8.76D-01

 Cycle   4  Pass 1  IDiag  1:
 RMSU=  3.40D-03    CP:  1.31D+00  1.49D+00 -1.00D-01
 E= -2844.37909518434     Delta-E=        1.732934338217 Rises=F Damp=F
 DIIS: error= 3.47D-02 at cycle   4 NSaved=   4.
 NSaved= 4 IEnMin= 2 EnMin= -2846.13941957777     IErMin= 2 ErrMin= 5.73D-03
 ErrMax= 3.47D-02  0.00D+00 EMaxC= 1.00D-01 BMatC= 1.86D+00 BMatP= 2.15D-01
 IDIUse=2 WtCom= 0.00D+00 WtEn= 1.00D+00
 EnCoef did     2 forward-backward iterations
 Coeff-En:   0.852D-01 0.000D+00 0.616D+00 0.299D+00
 Coeff:      0.852D-01 0.000D+00 0.616D+00 0.299D+00
 Gap=     0.015 Goal=   None    Shift=    0.000
 RMSDP=6.18D-03 MaxDP=1.53D+00 DE= 1.73D+00 OVMax= 9.16D-01

 Cycle   5  Pass 1  IDiag  1:
 RMSU=  2.38D-03    CP:  1.16D+00  7.63D-01  5.95D-01 -1.66D-01
 E= -2845.81698028031     Delta-E=       -1.437885095964 Rises=F Damp=F
 DIIS: error= 3.51D-02 at cycle   5 NSaved=   5.
 NSaved= 5 IEnMin= 2 EnMin= -2846.13941957777     IErMin= 2 ErrMin= 5.73D-03
 ErrMax= 3.51D-02  0.00D+00 EMaxC= 1.00D-01 BMatC= 9.57D-01 BMatP= 2.15D-01
 IDIUse=2 WtCom= 0.00D+00 WtEn= 1.00D+00
 EnCoef did     3 forward-backward iterations
 Coeff-En:   0.185D-01 0.000D+00 0.540D+00 0.223D+00 0.219D+00
 Coeff:      0.185D-01 0.000D+00 0.540D+00 0.223D+00 0.219D+00
 Gap=     0.066 Goal=   None    Shift=    0.000
 RMSDP=3.28D-03 MaxDP=7.81D-01 DE=-1.44D+00 OVMax= 5.48D-01

 Cycle   6  Pass 1  IDiag  1:
 RMSU=  1.41D-03    CP:  1.11D+00  4.96D-01  3.55D-01  2.47D-01  1.08D-01
 E= -2846.86513206711     Delta-E=       -1.048151786797 Rises=F Damp=F
 DIIS: error= 6.65D-03 at cycle   6 NSaved=   6.
 NSaved= 6 IEnMin= 6 EnMin= -2846.86513206711     IErMin= 2 ErrMin= 5.73D-03
 ErrMax= 6.65D-03  0.00D+00 EMaxC= 1.00D-01 BMatC= 1.28D-01 BMatP= 2.15D-01
 IDIUse=3 WtCom= 9.33D-01 WtEn= 6.65D-02
 EnCoef did     2 forward-backward iterations
 Coeff-Com: -0.169D+00 0.427D+00 0.241D+00-0.281D-02 0.909D-01 0.413D+00
 Coeff-En:   0.000D+00 0.000D+00 0.633D-01 0.000D+00 0.919D-01 0.845D+00
 Coeff:     -0.158D+00 0.399D+00 0.230D+00-0.262D-02 0.909D-01 0.441D+00
 Gap=     0.072 Goal=   None    Shift=    0.000
 RMSDP=9.46D-04 MaxDP=2.52D-01 DE=-1.05D+00 OVMax= 1.29D-01

 Cycle   7  Pass 1  IDiag  1:
 RMSU=  5.33D-04    CP:  1.10D+00  4.11D-01  4.99D-01  1.76D-01  1.54D-01
                    CP:  6.29D-01
 E= -2846.92647339142     Delta-E=       -0.061341324314 Rises=F Damp=F
 DIIS: error= 5.83D-03 at cycle   7 NSaved=   7.
 NSaved= 7 IEnMin= 7 EnMin= -2846.92647339142     IErMin= 2 ErrMin= 5.73D-03
 ErrMax= 5.83D-03  0.00D+00 EMaxC= 1.00D-01 BMatC= 5.50D-02 BMatP= 1.28D-01
 IDIUse=3 WtCom= 9.42D-01 WtEn= 5.83D-02
 Coeff-Com: -0.150D+00 0.268D+00 0.983D-01-0.241D-01 0.628D-01 0.352D+00
 Coeff-Com:  0.393D+00
 Coeff-En:   0.000D+00 0.000D+00 0.000D+00 0.000D+00 0.000D+00 0.303D+00
 Coeff-En:   0.697D+00
 Coeff:     -0.141D+00 0.252D+00 0.926D-01-0.227D-01 0.592D-01 0.350D+00
 Coeff:      0.410D+00
 Gap=     0.068 Goal=   None    Shift=    0.000
 RMSDP=6.21D-04 MaxDP=1.56D-01 DE=-6.13D-02 OVMax= 1.02D-01

 Cycle   8  Pass 1  IDiag  1:
 RMSU=  2.66D-04    CP:  1.11D+00  4.89D-01  5.22D-01  1.54D-01  2.44D-01
                    CP:  7.04D-01  5.08D-01
 E= -2846.96530544976     Delta-E=       -0.038832058341 Rises=F Damp=F
 DIIS: error= 2.75D-03 at cycle   8 NSaved=   8.
 NSaved= 8 IEnMin= 8 EnMin= -2846.96530544976     IErMin= 8 ErrMin= 2.75D-03
 ErrMax= 2.75D-03  0.00D+00 EMaxC= 1.00D-01 BMatC= 9.50D-03 BMatP= 5.50D-02
 IDIUse=3 WtCom= 9.72D-01 WtEn= 2.75D-02
 Coeff-Com: -0.757D-01 0.124D+00 0.466D-03-0.107D-01 0.239D-01 0.957D-01
 Coeff-Com:  0.305D+00 0.537D+00
 Coeff-En:   0.000D+00 0.000D+00 0.000D+00 0.000D+00 0.000D+00 0.000D+00
 Coeff-En:   0.121D+00 0.879D+00
 Coeff:     -0.736D-01 0.121D+00 0.453D-03-0.104D-01 0.232D-01 0.931D-01
 Coeff:      0.300D+00 0.546D+00
 Gap=     0.070 Goal=   None    Shift=    0.000
 RMSDP=2.87D-04 MaxDP=7.77D-02 DE=-3.88D-02 OVMax= 4.39D-02

 Cycle   9  Pass 1  IDiag  1:
 RMSU=  1.28D-04    CP:  1.12D+00  5.10D-01  4.83D-01  1.83D-01  2.46D-01
                    CP:  7.63D-01  7.94D-01  6.56D-01
 E= -2846.97196345879     Delta-E=       -0.006658009028 Rises=F Damp=F
 DIIS: error= 1.04D-03 at cycle   9 NSaved=   9.
 NSaved= 9 IEnMin= 9 EnMin= -2846.97196345879     IErMin= 9 ErrMin= 1.04D-03
 ErrMax= 1.04D-03  0.00D+00 EMaxC= 1.00D-01 BMatC= 1.84D-03 BMatP= 9.50D-03
 IDIUse=3 WtCom= 9.90D-01 WtEn= 1.04D-02
 Coeff-Com: -0.329D-01 0.514D-01-0.162D-01-0.770D-03 0.825D-02 0.251D-02
 Coeff-Com:  0.144D+00 0.401D+00 0.443D+00
 Coeff-En:   0.000D+00 0.000D+00 0.000D+00 0.000D+00 0.000D+00 0.000D+00
 Coeff-En:   0.000D+00 0.113D+00 0.887D+00
 Coeff:     -0.325D-01 0.508D-01-0.160D-01-0.762D-03 0.817D-02 0.249D-02
 Coeff:      0.142D+00 0.398D+00 0.448D+00
 Gap=     0.068 Goal=   None    Shift=    0.000
 RMSDP=1.05D-04 MaxDP=3.72D-02 DE=-6.66D-03 OVMax= 1.42D-02

 Cycle  10  Pass 1  IDiag  1:
 RMSU=  5.52D-05    CP:  1.12D+00  5.16D-01  4.86D-01  1.78D-01  2.65D-01
                    CP:  7.49D-01  7.85D-01  8.84D-01  8.26D-01
 E= -2846.97337336369     Delta-E=       -0.001409904900 Rises=F Damp=F
 DIIS: error= 3.33D-04 at cycle  10 NSaved=  10.
 NSaved=10 IEnMin=10 EnMin= -2846.97337336369     IErMin=10 ErrMin= 3.33D-04
 ErrMax= 3.33D-04  0.00D+00 EMaxC= 1.00D-01 BMatC= 3.48D-04 BMatP= 1.84D-03
 IDIUse=3 WtCom= 9.97D-01 WtEn= 3.33D-03
 Coeff-Com: -0.166D-01 0.260D-01-0.988D-02 0.182D-03 0.223D-02-0.449D-02
 Coeff-Com:  0.497D-01 0.164D+00 0.309D+00 0.480D+00
 Coeff-En:   0.000D+00 0.000D+00 0.000D+00 0.000D+00 0.000D+00 0.000D+00
 Coeff-En:   0.000D+00 0.000D+00 0.142D+00 0.858D+00
 Coeff:     -0.165D-01 0.260D-01-0.984D-02 0.181D-03 0.222D-02-0.447D-02
 Coeff:      0.495D-01 0.163D+00 0.309D+00 0.481D+00
 Gap=     0.068 Goal=   None    Shift=    0.000
 RMSDP=3.59D-05 MaxDP=9.09D-03 DE=-1.41D-03 OVMax= 5.26D-03

 Cycle  11  Pass 1  IDiag  1:
 RMSU=  1.48D-05    CP:  1.12D+00  5.20D-01  4.86D-01  1.79D-01  2.65D-01
                    CP:  7.58D-01  7.97D-01  8.56D-01  9.10D-01  7.46D-01
 E= -2846.97359507477     Delta-E=       -0.000221711085 Rises=F Damp=F
 DIIS: error= 2.30D-04 at cycle  11 NSaved=  11.
 NSaved=11 IEnMin=11 EnMin= -2846.97359507477     IErMin=11 ErrMin= 2.30D-04
 ErrMax= 2.30D-04  0.00D+00 EMaxC= 1.00D-01 BMatC= 8.62D-05 BMatP= 3.48D-04
 IDIUse=3 WtCom= 9.98D-01 WtEn= 2.30D-03
 Coeff-Com: -0.716D-02 0.108D-01-0.194D-02 0.398D-04-0.393D-03 0.446D-02
 Coeff-Com: -0.122D-03 0.211D-02 0.987D-01 0.347D+00 0.546D+00
 Coeff-En:   0.000D+00 0.000D+00 0.000D+00 0.000D+00 0.000D+00 0.000D+00
 Coeff-En:   0.000D+00 0.000D+00 0.000D+00 0.207D+00 0.793D+00
 Coeff:     -0.714D-02 0.107D-01-0.193D-02 0.397D-04-0.392D-03 0.445D-02
 Coeff:     -0.122D-03 0.211D-02 0.985D-01 0.347D+00 0.547D+00
 Gap=     0.068 Goal=   None    Shift=    0.000
 RMSDP=2.09D-05 MaxDP=6.46D-03 DE=-2.22D-04 OVMax= 2.97D-03

 Cycle  12  Pass 1  IDiag  1:
 RMSU=  7.65D-06    CP:  1.12D+00  5.21D-01  4.83D-01  1.82D-01  2.65D-01
                    CP:  7.65D-01  8.00D-01  8.59D-01  9.21D-01  8.97D-01
                    CP:  8.22D-01
 E= -2846.97367621270     Delta-E=       -0.000081137925 Rises=F Damp=F
 DIIS: error= 1.02D-04 at cycle  12 NSaved=  12.
 NSaved=12 IEnMin=12 EnMin= -2846.97367621270     IErMin=12 ErrMin= 1.02D-04
 ErrMax= 1.02D-04  0.00D+00 EMaxC= 1.00D-01 BMatC= 1.52D-05 BMatP= 8.62D-05
 IDIUse=3 WtCom= 9.99D-01 WtEn= 1.02D-03
 Coeff-Com: -0.309D-02 0.406D-02-0.179D-03-0.109D-03-0.450D-03 0.482D-02
 Coeff-Com: -0.841D-02-0.270D-01 0.246D-01 0.173D+00 0.385D+00 0.448D+00
 Coeff-En:   0.000D+00 0.000D+00 0.000D+00 0.000D+00 0.000D+00 0.000D+00
 Coeff-En:   0.000D+00 0.000D+00 0.000D+00 0.000D+00 0.376D-01 0.962D+00
 Coeff:     -0.309D-02 0.405D-02-0.179D-03-0.109D-03-0.449D-03 0.481D-02
 Coeff:     -0.840D-02-0.270D-01 0.245D-01 0.173D+00 0.384D+00 0.449D+00
 Gap=     0.068 Goal=   None    Shift=    0.000
 RMSDP=1.26D-05 MaxDP=3.94D-03 DE=-8.11D-05 OVMax= 7.95D-04

 Cycle  13  Pass 1  IDiag  1:
 RMSU=  2.95D-06    CP:  1.12D+00  5.23D-01  4.82D-01  1.83D-01  2.65D-01
                    CP:  7.69D-01  8.01D-01  8.57D-01  9.47D-01  9.01D-01
                    CP:  8.68D-01  9.43D-01
 E= -2846.97368867368     Delta-E=       -0.000012460981 Rises=F Damp=F
 DIIS: error= 1.95D-05 at cycle  13 NSaved=  13.
 NSaved=13 IEnMin=13 EnMin= -2846.97368867368     IErMin=13 ErrMin= 1.95D-05
 ErrMax= 1.95D-05  0.00D+00 EMaxC= 1.00D-01 BMatC= 1.33D-06 BMatP= 1.52D-05
 IDIUse=1 WtCom= 1.00D+00 WtEn= 0.00D+00
 Coeff-Com: -0.127D-02 0.160D-02-0.147D-04-0.317D-04-0.121D-03 0.195D-02
 Coeff-Com: -0.580D-02-0.173D-01 0.672D-02 0.706D-01 0.175D+00 0.248D+00
 Coeff-Com:  0.521D+00
 Coeff:     -0.127D-02 0.160D-02-0.147D-04-0.317D-04-0.121D-03 0.195D-02
 Coeff:     -0.580D-02-0.173D-01 0.672D-02 0.706D-01 0.175D+00 0.248D+00
 Coeff:      0.521D+00
 Gap=     0.068 Goal=   None    Shift=    0.000
 RMSDP=2.45D-06 MaxDP=4.53D-04 DE=-1.25D-05 OVMax= 3.20D-04

 Cycle  14  Pass 1  IDiag  1:
 RMSU=  1.33D-06    CP:  1.12D+00  5.23D-01  4.82D-01  1.83D-01  2.65D-01
                    CP:  7.70D-01  8.01D-01  8.58D-01  9.50D-01  9.02D-01
                    CP:  8.60D-01  9.07D-01  8.50D-01
 E= -2846.97368963268     Delta-E=       -0.000000958998 Rises=F Damp=F
 DIIS: error= 1.01D-05 at cycle  14 NSaved=  14.
 NSaved=14 IEnMin=14 EnMin= -2846.97368963268     IErMin=14 ErrMin= 1.01D-05
 ErrMax= 1.01D-05  0.00D+00 EMaxC= 1.00D-01 BMatC= 4.23D-07 BMatP= 1.33D-06
 IDIUse=1 WtCom= 1.00D+00 WtEn= 0.00D+00
 Coeff-Com: -0.276D-03 0.352D-03-0.319D-04-0.143D-04 0.203D-04 0.114D-03
 Coeff-Com: -0.282D-02-0.774D-02-0.115D-02 0.123D-01 0.433D-01 0.790D-01
 Coeff-Com:  0.408D+00 0.469D+00
 Coeff:     -0.276D-03 0.352D-03-0.319D-04-0.143D-04 0.203D-04 0.114D-03
 Coeff:     -0.282D-02-0.774D-02-0.115D-02 0.123D-01 0.433D-01 0.790D-01
 Coeff:      0.408D+00 0.469D+00
 Gap=     0.068 Goal=   None    Shift=    0.000
 RMSDP=2.18D-06 MaxDP=5.46D-04 DE=-9.59D-07 OVMax= 2.51D-04

 Cycle  15  Pass 1  IDiag  1:
 RMSU=  4.57D-07    CP:  1.12D+00  5.24D-01  4.82D-01  1.83D-01  2.66D-01
                    CP:  7.70D-01  8.02D-01  8.59D-01  9.55D-01  9.12D-01
                    CP:  8.80D-01  9.44D-01  9.10D-01  4.21D-01
 E= -2846.97369003153     Delta-E=       -0.000000398848 Rises=F Damp=F
 DIIS: error= 3.87D-06 at cycle  15 NSaved=  15.
 NSaved=15 IEnMin=15 EnMin= -2846.97369003153     IErMin=15 ErrMin= 3.87D-06
 ErrMax= 3.87D-06  0.00D+00 EMaxC= 1.00D-01 BMatC= 4.07D-08 BMatP= 4.23D-07
 IDIUse=1 WtCom= 1.00D+00 WtEn= 0.00D+00
 Coeff-Com: -0.728D-04 0.776D-04-0.253D-04 0.462D-05 0.433D-04-0.120D-03
 Coeff-Com: -0.155D-02-0.406D-02-0.140D-02 0.295D-02 0.156D-01 0.321D-01
 Coeff-Com:  0.232D+00 0.309D+00 0.415D+00
 Coeff:     -0.728D-04 0.776D-04-0.253D-04 0.462D-05 0.433D-04-0.120D-03
 Coeff:     -0.155D-02-0.406D-02-0.140D-02 0.295D-02 0.156D-01 0.321D-01
 Coeff:      0.232D+00 0.309D+00 0.415D+00
 Gap=     0.068 Goal=   None    Shift=    0.000
 RMSDP=7.65D-07 MaxDP=1.70D-04 DE=-3.99D-07 OVMax= 9.86D-05

 Cycle  16  Pass 1  IDiag  1:
 RMSU=  2.12D-07    CP:  1.12D+00  5.24D-01  4.82D-01  1.83D-01  2.66D-01
                    CP:  7.70D-01  8.02D-01  8.59D-01  9.55D-01  9.10D-01
                    CP:  8.80D-01  9.20D-01  8.78D-01  6.19D-01  5.09D-01
 E= -2846.97369006455     Delta-E=       -0.000000033024 Rises=F Damp=F
 DIIS: error= 1.79D-06 at cycle  16 NSaved=  16.
 NSaved=16 IEnMin=16 EnMin= -2846.97369006455     IErMin=16 ErrMin= 1.79D-06
 ErrMax= 1.79D-06  0.00D+00 EMaxC= 1.00D-01 BMatC= 7.39D-09 BMatP= 4.07D-08
 IDIUse=1 WtCom= 1.00D+00 WtEn= 0.00D+00
 Coeff-Com:  0.485D-05-0.185D-04-0.227D-04 0.373D-05 0.252D-04-0.130D-03
 Coeff-Com: -0.600D-03-0.157D-02-0.101D-02-0.392D-03 0.287D-02 0.806D-02
 Coeff-Com:  0.858D-01 0.124D+00 0.312D+00 0.471D+00
 Coeff:      0.485D-05-0.185D-04-0.227D-04 0.373D-05 0.252D-04-0.130D-03
 Coeff:     -0.600D-03-0.157D-02-0.101D-02-0.392D-03 0.287D-02 0.806D-02
 Coeff:      0.858D-01 0.124D+00 0.312D+00 0.471D+00
 Gap=     0.068 Goal=   None    Shift=    0.000
 RMSDP=4.42D-07 MaxDP=9.77D-05 DE=-3.30D-08 OVMax= 4.40D-05

 Cycle  17  Pass 1  IDiag  1:
 RMSU=  7.73D-08    CP:  1.12D+00  5.24D-01  4.82D-01  1.83D-01  2.66D-01
                    CP:  7.70D-01  8.02D-01  8.59D-01  9.56D-01  9.12D-01
                    CP:  8.82D-01  9.34D-01  8.97D-01  5.20D-01  6.73D-01
                    CP:  5.65D-01
 E= -2846.97369007032     Delta-E=       -0.000000005770 Rises=F Damp=F
 DIIS: error= 4.94D-07 at cycle  17 NSaved=  17.
 NSaved=17 IEnMin=17 EnMin= -2846.97369007032     IErMin=17 ErrMin= 4.94D-07
 ErrMax= 4.94D-07  0.00D+00 EMaxC= 1.00D-01 BMatC= 1.22D-09 BMatP= 7.39D-09
 IDIUse=1 WtCom= 1.00D+00 WtEn= 0.00D+00
 Coeff-Com:  0.773D-05-0.144D-04-0.111D-04 0.247D-05 0.112D-04-0.607D-04
 Coeff-Com: -0.158D-03-0.455D-03-0.457D-03-0.444D-03-0.373D-04 0.753D-03
 Coeff-Com:  0.185D-01 0.276D-01 0.147D+00 0.341D+00 0.466D+00
 Coeff:      0.773D-05-0.144D-04-0.111D-04 0.247D-05 0.112D-04-0.607D-04
 Coeff:     -0.158D-03-0.455D-03-0.457D-03-0.444D-03-0.373D-04 0.753D-03
 Coeff:      0.185D-01 0.276D-01 0.147D+00 0.341D+00 0.466D+00
 Gap=     0.068 Goal=   None    Shift=    0.000
 RMSDP=9.29D-08 MaxDP=2.00D-05 DE=-5.77D-09 OVMax= 8.59D-06

 Cycle  18  Pass 1  IDiag  1:
 RMSU=  2.56D-08    CP:  1.12D+00  5.24D-01  4.82D-01  1.83D-01  2.66D-01
                    CP:  7.70D-01  8.02D-01  8.59D-01  9.56D-01  9.12D-01
                    CP:  8.82D-01  9.30D-01  8.93D-01  5.47D-01  6.34D-01
                    CP:  6.95D-01  7.21D-01
 E= -2846.97369007121     Delta-E=       -0.000000000893 Rises=F Damp=F
 DIIS: error= 2.61D-07 at cycle  18 NSaved=  18.
 NSaved=18 IEnMin=18 EnMin= -2846.97369007121     IErMin=18 ErrMin= 2.61D-07
 ErrMax= 2.61D-07  0.00D+00 EMaxC= 1.00D-01 BMatC= 1.51D-10 BMatP= 1.22D-09
 IDIUse=1 WtCom= 1.00D+00 WtEn= 0.00D+00
 Coeff-Com: -0.555D-06 0.161D-05-0.260D-05 0.386D-06 0.189D-05-0.875D-05
[...]
 Alpha virt. eigenvalues --    2.93649   2.94113   2.94466   2.94556   2.94605
 Alpha virt. eigenvalues --    2.95171   2.95634   2.95814   2.95908   2.96304
 Alpha virt. eigenvalues --    2.96782   2.97150   2.97397   2.97753   2.97997
 Alpha virt. eigenvalues --    2.98317   2.98955   2.99281   2.99525   3.00090
 Alpha virt. eigenvalues --    3.00464   3.00480   3.00713   3.01417   3.01564
 Alpha virt. eigenvalues --    3.01845   3.02159   3.02445   3.02770   3.02784
 Alpha virt. eigenvalues --    3.03366   3.03392   3.03684   3.04246   3.04557
 Alpha virt. eigenvalues --    3.04589   3.04950   3.05359   3.05654   3.05795
 Alpha virt. eigenvalues --    3.06342   3.06603   3.07102   3.07216   3.07363
 Alpha virt. eigenvalues --    3.07640   3.07777   3.08216   3.08252   3.08484
 Alpha virt. eigenvalues --    3.08631   3.08818   3.08974   3.09281   3.09921
 Alpha virt. eigenvalues --    3.10120   3.10270   3.10915   3.11135   3.11668
 Alpha virt. eigenvalues --    3.11674   3.12076   3.12444   3.12616   3.12924
 Alpha virt. eigenvalues --    3.13221   3.13594   3.13786   3.14184   3.14511
 Alpha virt. eigenvalues --    3.14651   3.15241   3.15444   3.15542   3.15994
 Alpha virt. eigenvalues --    3.16368   3.16700   3.16786   3.17271   3.17628
 Alpha virt. eigenvalues --    3.17942   3.18297   3.18309   3.18550   3.18800
 Alpha virt. eigenvalues --    3.18976   3.19534   3.19809   3.20289   3.20383
 Alpha virt. eigenvalues --    3.21002   3.21218   3.21252   3.21618   3.21801
 Alpha virt. eigenvalues --    3.22408   3.22509   3.22770   3.23064   3.23315
 Alpha virt. eigenvalues --    3.23583   3.23781   3.23889   3.24285   3.24487
 Alpha virt. eigenvalues --    3.24772   3.24873   3.25185   3.25483   3.25998
 Alpha virt. eigenvalues --    3.26339   3.26580   3.26766   3.27100   3.27428
 Alpha virt. eigenvalues --    3.27752   3.27930   3.28130   3.28312   3.28738
 Alpha virt. eigenvalues --    3.28879   3.29328   3.29482   3.29779   3.30089
 Alpha virt. eigenvalues --    3.30199   3.30351   3.30828   3.31079   3.31614
 Alpha virt. eigenvalues --    3.31696   3.32169   3.32427   3.32726   3.32871
 Alpha virt. eigenvalues --    3.33612   3.33656   3.33815   3.34101   3.34396
 Alpha virt. eigenvalues --    3.34604   3.34877   3.35206   3.35329   3.35567
 Alpha virt. eigenvalues --    3.35809   3.35920   3.36470   3.36645   3.36970
 Alpha virt. eigenvalues --    3.37174   3.37297   3.37528   3.37931   3.38266
 Alpha virt. eigenvalues --    3.38477   3.38864   3.39125   3.39430   3.39649
 Alpha virt. eigenvalues --    3.40226   3.40335   3.40789   3.41017   3.41469
 Alpha virt. eigenvalues --    3.41646   3.41791   3.41992   3.42174   3.42383
 Alpha virt. eigenvalues --    3.42879   3.42953   3.43356   3.43632   3.44369
 Alpha virt. eigenvalues --    3.44514   3.45032   3.45208   3.45638   3.45714
 Alpha virt. eigenvalues --    3.46078   3.46228   3.46713   3.47084   3.47479
 Alpha virt. eigenvalues --    3.47701   3.47856   3.48013   3.48738   3.49148
 Alpha virt. eigenvalues --    3.49448   3.50154   3.50392   3.51019   3.51455
 Alpha virt. eigenvalues --    3.51502   3.52142   3.52878   3.53056   3.53404
 Alpha virt. eigenvalues --    3.54114   3.54248   3.54470   3.55120   3.55485
 Alpha virt. eigenvalues --    3.55788   3.56059   3.56791   3.56893   3.57594
 Alpha virt. eigenvalues --    3.57876   3.57933   3.58358   3.58891   3.59033
 Alpha virt. eigenvalues --    3.59832   3.60125   3.61458   3.61793   3.62663
 Alpha virt. eigenvalues --    3.62821   3.63134   3.63267   3.63487   3.63611
 Alpha virt. eigenvalues --    3.64206   3.64763   3.65124   3.65387   3.65551
 Alpha virt. eigenvalues --    3.65921   3.66251   3.66668   3.67105   3.67463
 Alpha virt. eigenvalues --    3.68073   3.68224   3.69120   3.69937   3.70948
 Alpha virt. eigenvalues --    3.71395   3.72239   3.72398   3.72758   3.73879
 Alpha virt. eigenvalues --    3.74162   3.74705   3.75615   3.76556   3.76755
 Alpha virt. eigenvalues --    3.76962   3.77422   3.78011   3.78519   3.78844
 Alpha virt. eigenvalues --    3.79238   3.79638   3.80139   3.80417   3.81102
 Alpha virt. eigenvalues --    3.81277   3.81432   3.81843   3.82257   3.82507
 Alpha virt. eigenvalues --    3.83269   3.83523   3.83626   3.84304   3.84932
 Alpha virt. eigenvalues --    3.85392   3.85474   3.85701   3.86191   3.86270
 Alpha virt. eigenvalues --    3.87057   3.87468   3.87570   3.87769   3.88166
 Alpha virt. eigenvalues --    3.88949   3.89006   3.89506   3.90517   3.91159
 Alpha virt. eigenvalues --    3.91627   3.92117   3.92773   3.92962   3.93432
 Alpha virt. eigenvalues --    3.94040   3.94233   3.94556   3.95372   3.96406
 Alpha virt. eigenvalues --    3.97112   3.97215   3.97599   3.97913   3.98539
 Alpha virt. eigenvalues --    3.99081   3.99469   3.99923   4.00823   4.01087
 Alpha virt. eigenvalues --    4.01784   4.02290   4.02607   4.03793   4.04350
 Alpha virt. eigenvalues --    4.04608   4.04851   4.05277   4.05433   4.06235
 Alpha virt. eigenvalues --    4.06576   4.07860   4.08105   4.08944   4.09284
 Alpha virt. eigenvalues --    4.09536   4.09739   4.10625   4.11368   4.11550
 Alpha virt. eigenvalues --    4.11930   4.12391   4.12698   4.13102   4.13577
 Alpha virt. eigenvalues --    4.13915   4.14466   4.14562   4.15597   4.15670
 Alpha virt. eigenvalues --    4.16033   4.16508   4.16691   4.16922   4.17150
 Alpha virt. eigenvalues --    4.17331   4.17639   4.17817   4.18185   4.18397
 Alpha virt. eigenvalues --    4.19144   4.19490   4.19811   4.20159   4.20231
 Alpha virt. eigenvalues --    4.20626   4.21396   4.23026   4.23184   4.23955
 Alpha virt. eigenvalues --    4.24802   4.25327   4.25610   4.26596   4.26798
 Alpha virt. eigenvalues --    4.27912   4.28261   4.29110   4.29679   4.30526
 Alpha virt. eigenvalues --    4.31069   4.32718   4.32930   4.34106   4.34649
 Alpha virt. eigenvalues --    4.34756   4.36138   4.37053   4.37673   4.38591
 Alpha virt. eigenvalues --    4.39088   4.39825   4.40564   4.40930   4.42129
 Alpha virt. eigenvalues --    4.42469   4.43213   4.43605   4.44637   4.45067
 Alpha virt. eigenvalues --    4.45612   4.46649   4.46970   4.47429   4.48599
 Alpha virt. eigenvalues --    4.48868   4.50212   4.52182   4.53946   4.54541
 Alpha virt. eigenvalues --    4.55575   4.56485   4.57024   4.57674   4.58235
 Alpha virt. eigenvalues --    4.59153   4.59288   4.60516   4.60698   4.61382
 Alpha virt. eigenvalues --    4.62245   4.63978   4.64525   4.64909   4.65475
 Alpha virt. eigenvalues --    4.66988   4.67376   4.68629   4.69794   4.70364
 Alpha virt. eigenvalues --    4.72317   4.73337   4.74824   4.78357   4.79165
 Alpha virt. eigenvalues --    4.80194   4.80957   4.81232   4.82062   4.83094
 Alpha virt. eigenvalues --    4.83890   4.84625   4.84742   4.86128   4.87686
 Alpha virt. eigenvalues --    4.89060   4.90184   4.90863   4.91647   4.92498
 Alpha virt. eigenvalues --    4.93773   4.94797   4.95641   4.96960   4.97510
 Alpha virt. eigenvalues --    4.98723   4.99394   4.99969   5.00443   5.04476
 Alpha virt. eigenvalues --    5.05217   5.06475   5.06760   5.07373   5.08350
 Alpha virt. eigenvalues --    5.09205   5.10302   5.11413   5.12260   5.12863
 Alpha virt. eigenvalues --    5.13139   5.13436   5.13862   5.14430   5.14785
 Alpha virt. eigenvalues --    5.15012   5.15572   5.15898   5.16560   5.16855
 Alpha virt. eigenvalues --    5.17956   5.19053   5.19693   5.20704   5.21599
 Alpha virt. eigenvalues --    5.21618   5.25335   5.26253   5.26531   5.27466
 Alpha virt. eigenvalues --    5.30167   5.30493   5.32013   5.32612   5.33411
 Alpha virt. eigenvalues --    5.34708   5.35786   5.38015   5.39627   5.40867
 Alpha virt. eigenvalues --    5.41090   5.42427   5.43191   5.45094   5.45520
 Alpha virt. eigenvalues --    5.47579   5.48481   5.49038   5.49438   5.50966
 Alpha virt. eigenvalues --    5.52178   5.53060   5.54776   5.56366   5.59225
 Alpha virt. eigenvalues --    5.60330   5.62153   5.62568   5.64390   5.66876
 Alpha virt. eigenvalues --    5.67485   5.70933   5.71627   5.75300   5.77582
 Alpha virt. eigenvalues --    5.78480   5.82465   5.85357   5.96793   5.98503
 Alpha virt. eigenvalues --    5.98993   6.06008   6.07864   6.15416   6.27959
 Alpha virt. eigenvalues --    6.31049   6.31533   6.31782   6.32578   6.34056
 Alpha virt. eigenvalues --    6.34692   6.39261   6.42794   6.45995   6.49862
 Alpha virt. eigenvalues --    6.52751   6.55603   6.58741   6.61883   6.66163
 Alpha virt. eigenvalues --    6.66838   6.66892   6.66958   6.70392   6.70418
 Alpha virt. eigenvalues --    6.70539   6.70816   6.70824   6.70847   6.71173
 Alpha virt. eigenvalues --    6.71267   6.71310   6.71833   6.71844   6.71861
 Alpha virt. eigenvalues --    6.71939   6.71971   6.72042   6.72046   6.72113
 Alpha virt. eigenvalues --    6.72135   6.72710   6.72745   6.72859   6.72996
 Alpha virt. eigenvalues --    6.73308   6.73496   6.73549   6.73731   6.75774
 Alpha virt. eigenvalues --    6.78801   6.82207   6.82273   6.82451   6.82471
 Alpha virt. eigenvalues --    6.82837   6.83072   6.83435   6.83557   6.84263
 Alpha virt. eigenvalues --    6.84889   6.85069   6.85574   6.87558   6.89365
 Alpha virt. eigenvalues --    6.89687   6.90658   6.91300   6.91700   6.91925
 Alpha virt. eigenvalues --    6.96747   6.96923   6.96940   6.98442   7.00761
 Alpha virt. eigenvalues --    7.03263   7.03406   7.07674   7.09283   7.16948
 Alpha virt. eigenvalues --    7.17219   7.17334   7.18270   7.18383   7.18519
 Alpha virt. eigenvalues --    7.18556   7.23287   7.23657   7.23732   7.28629
 Alpha virt. eigenvalues --    7.28652   7.29029   7.37448   7.39148   7.39238
 Alpha virt. eigenvalues --    7.39941   7.40863   7.41562   7.41650   7.42001
 Alpha virt. eigenvalues --    8.12202   8.12315   8.12502   8.14324   8.14771
 Alpha virt. eigenvalues --    8.15060   8.15436   8.15530   8.15875   8.28930
 Alpha virt. eigenvalues --    8.29248   8.29295   8.29671   8.30207   8.30428
 Alpha virt. eigenvalues --    8.39447   8.40501   8.40707   8.49780   8.49784
 Alpha virt. eigenvalues --    8.49803   8.57049   8.57512   8.57789   8.58043
 Alpha virt. eigenvalues --    8.59155   8.59358   8.70073   8.71015   8.72332
 Alpha virt. eigenvalues --    8.76312   8.76417   8.77704   8.84313   8.84997
 Alpha virt. eigenvalues --    8.85122   8.85898   8.87531   8.88404   8.90195
 Alpha virt. eigenvalues --    8.90299   8.91651   8.95465   8.96906   8.98160
 Alpha virt. eigenvalues --   21.85444  21.98494  22.00263  22.10517  22.23634
 Alpha virt. eigenvalues --   22.33824  22.36748  22.37115  22.39269  22.40672
 Alpha virt. eigenvalues --   22.41950  22.42396  22.44007  22.45830  22.46347
 Alpha virt. eigenvalues --   22.47542  22.49810  22.51224  22.52236  22.54534
 Alpha virt. eigenvalues --   22.55476  22.58158  22.62941  22.64138  22.64508
 Alpha virt. eigenvalues --   22.66058  22.71214  22.79733  22.81579  22.85934
 Alpha virt. eigenvalues --   22.87315  22.91446  22.95064  23.02791  23.05259
 Alpha virt. eigenvalues --   23.08325  23.12293  23.22715  23.33790  23.48821
 Alpha virt. eigenvalues --   23.57457  43.62580  43.63207  43.65155  43.72551
 Alpha virt. eigenvalues --   44.28149  56.65797  56.69954  56.70153  56.73735
 Alpha virt. eigenvalues --   56.80705  56.84151  56.84937  56.88735  56.92452
          Condensed to atoms (all electrons):
 Mulliken charges:
               1
     1  C    0.173821
     2  C   -0.077544
     3  C    0.182814
     4  C    0.079005
     5  C   -0.237768
     6  C   -0.292832
     7  C    0.316110
     8  C    0.114750
     9  C    0.150249
    10  C    0.000977
    11  C    0.081670
    12  C    0.055304
    13  C   -0.302794
    14  H    0.145735
    15  H    0.100401
    16  H    0.162021
    17  O   -0.140779
    18  O   -0.406999
    19  O   -0.417785
    20  C    0.017572
    21  C   -0.304767
    22  C   -0.078763
    23  C   -0.132483
    24  H    0.130715
    25  C   -0.214431
    26  C   -0.160204
    27  H    0.139227
    28  H    0.125740
    29  H    0.137504
    30  C    0.133953
    31  O   -0.449965
    32  O   -0.451347
    33  C    0.125410
    34  C   -0.215830
    35  C   -0.195862
    36  C   -0.233950
    37  H    0.126443
    38  C   -0.195233
    39  H    0.129879
    40  C    0.089787
    41  H    0.146846
    42  H    0.140936
    43  C    0.062266
    44  C   -0.204013
    45  C   -0.219119
    46  C   -0.193229
    47  H    0.131404
    48  C   -0.233225
    49  H    0.127696
    50  C    0.088198
    51  H    0.141351
    52  H    0.146465
    53  C    0.106027
    54  C   -0.223649
    55  C   -0.209680
    56  C   -0.235794
    57  H    0.135106
    58  C   -0.211725
    59  H    0.122864
    60  C    0.103644
    61  H    0.144718
    62  H    0.145773
    63  C    0.409496
    64  C    0.408332
    65  C    0.381268
    66  F   -0.154435
    67  F   -0.161239
    68  F   -0.152317
    69  F   -0.160417
    70  F   -0.152794
    71  F   -0.163514
    72  F   -0.153371
    73  F   -0.162892
    74  F   -0.160729
 Sum of Mulliken charges =  -2.00000
 Mulliken charges with hydrogens summed into heavy atoms:
               1
     1  C    0.173821
     2  C   -0.077544
     3  C    0.182814
     4  C    0.079005
     5  C   -0.092033
     6  C   -0.192431
     7  C    0.316110
     8  C    0.114750
     9  C    0.150249
    10  C    0.000977
    11  C    0.081670
    12  C    0.055304
    13  C   -0.140773
    17  O   -0.140779
    18  O   -0.406999
    19  O   -0.417785
    20  C    0.017572
    21  C   -0.174053
    22  C   -0.078763
    23  C    0.006745
    25  C   -0.088691
    26  C   -0.022701
    30  C    0.133953
    31  O   -0.449965
    32  O   -0.451347
    33  C    0.125410
    34  C   -0.089387
    35  C   -0.065983
    36  C   -0.087104
    38  C   -0.054297
    40  C    0.089787
    43  C    0.062266
    44  C   -0.072609
    45  C   -0.091423
    46  C   -0.051879
    48  C   -0.086760
    50  C    0.088198
    53  C    0.106027
    54  C   -0.088544
    55  C   -0.086816
    56  C   -0.091076
    58  C   -0.065952
    60  C    0.103644
    63  C    0.409496
    64  C    0.408332
    65  C    0.381268
    66  F   -0.154435
    67  F   -0.161239
    68  F   -0.152317
    69  F   -0.160417
    70  F   -0.152794
    71  F   -0.163514
    72  F   -0.153371
    73  F   -0.162892
    74  F   -0.160729
 Electronic spatial extent (au):  <R**2>=          45357.1246
 Charge=             -2.0000 electrons
 Dipole moment (field-independent basis, Debye):
    X=             -4.5539    Y=             -6.6680    Z=            -10.7649  Tot=             13.4567
 Quadrupole moment (field-independent basis, Debye-Ang):
   XX=           -512.6770   YY=           -416.6487   ZZ=           -335.0977
   XY=             25.1157   XZ=            -36.7055   YZ=            -14.9495
 Traceless Quadrupole moment (field-independent basis, Debye-Ang):
   XX=            -91.2025   YY=              4.8258   ZZ=             86.3768
   XY=             25.1157   XZ=            -36.7055   YZ=            -14.9495
 Octapole moment (field-independent basis, Debye-Ang**2):
  XXX=           -165.5040  YYY=           -291.5798  ZZZ=            -79.4347  XYY=            130.3685
  XXY=             94.9428  XXZ=            -30.1910  XZZ=           -135.9338  YZZ=           -122.0630
  YYZ=           -110.1731  XYZ=           -108.4983
 Hexadecapole moment (field-independent basis, Debye-Ang**3):
 XXXX=         -47343.6897 YYYY=         -18428.6540 ZZZZ=          -2053.8885 XXXY=           1569.1851
 XXXZ=           -486.9883 YYYX=            916.1584 YYYZ=            -43.3955 ZZZX=           -277.8608
 ZZZY=           -202.8815 XXYY=         -11061.0783 XXZZ=          -6974.2671 YYZZ=          -3195.1372
 XXYZ=            -56.0736 YYXZ=           -303.5016 ZZXY=           -163.6175
 N-N= 7.316815459042D+03 E-N=-2.139149927951D+04  KE= 2.835348204682D+03
 Leave Link  601 at Tue Feb  8 03:03:41 2022, MaxMem=  5242880000 cpu:        14.4
 (Enter /opt/nce/packages/global/g09/l9999.exe)
 1\1\GINC-CN044\SP\RPBEPBE TD-FC\Gen\C41H19F9O5(2-)\PNG4RJV\08-Feb-2022
 \0\\#p PBEPBE chkbasis geom=allcheck Guess=Read int=ultrafine scrf=(SM
 D,solvent=Acetonitrile) td=(NStates=30) EmpiricalDispersion=GD3BJ\\Tit
 le\\-2,1\C,0,-5.0730940356,-2.4733821359,1.3963777887\C,0,-3.679547518
 3,-2.147791524,1.0858860337\C,0,-3.408961968,-1.113744925,0.1979608711
 \C,0,-4.4175869344,-0.3584184305,-0.4765956339\C,0,-5.7729638385,-0.67
 77290477,-0.159733231\C,0,-6.0843962846,-1.671843297,0.7239647815\C,0,
 -4.0383973181,0.662981919,-1.3708880868\C,0,-2.66617248,0.9430379321,-
 1.5611872853\C,0,-1.6905910183,0.2157913368,-0.8189937026\C,0,-0.32767
 56645,0.4549109317,-0.9172135845\C,0,0.1686984505,1.4845234818,-1.8306
 354214\C,0,-0.8440534325,2.2225550748,-2.6070462295\C,0,-2.1820044872,
 1.9280788331,-2.4575511214\H,0,-6.564751892,-0.0972116291,-0.635535166
 3\H,0,-7.1256919642,-1.9009837066,0.9623763628\H,0,-2.9143630568,2.468
 1785716,-3.0570360351\O,0,-2.087079392,-0.8010628637,0.0081642381\O,0,
 1.3979454928,1.7430129162,-1.9205414367\O,0,-5.3945944685,-3.396915736
 7,2.192822914\C,0,-5.0633672849,1.4039467484,-2.1505827118\C,0,-5.8233
 403835,0.695846905,-3.0976474981\C,0,-5.2595224649,2.7949171263,-1.999
 7334392\C,0,-6.7878478863,1.3392146658,-3.8738255587\H,0,-5.6440590844
 ,-0.3736486103,-3.2279344118\C,0,-6.2212898296,3.4283274852,-2.8014774
 086\C,0,-6.9931093547,2.7133525756,-3.7178748926\H,0,-7.3712104173,0.7
 697419106,-4.5998324513\H,0,-6.3572757677,4.506557336,-2.693223143\H,0
 ,-7.7483464806,3.227869327,-4.3161598641\C,0,-4.4804951895,3.624004954
 ,-0.9768044175\O,0,-3.9265419471,4.6703010129,-1.4234285855\O,0,-4.490
 7847901,3.196637131,0.2099624878\C,0,-2.5962233574,-2.9235501326,1.724
 5294085\C,0,-2.5902139656,-3.1254956239,3.118160129\C,0,-1.5609588557,
 -3.5013996277,0.9682713215\C,0,-1.5846736152,-3.8656930711,3.731992647
 6\H,0,-3.3825057716,-2.6869903795,3.7235527609\C,0,-0.5533820098,-4.24
 98194217,1.5730877861\H,0,-1.5463385682,-3.3691202954,-0.113940875\C,0
 ,-0.5624398021,-4.4327004218,2.9592214899\H,0,-1.5925182738,-4.0029384
 715,4.8148150373\H,0,0.2384267349,-4.6874057048,0.9646980593\C,0,0.644
 7101772,-0.3013340533,-0.0992862509\C,0,0.5028800063,-0.4037624195,1.2
 95460358\C,0,1.7537964205,-0.9257498981,-0.7007358056\C,0,1.4265838845
 ,-1.1062558603,2.0668701222\H,0,-0.3415366711,0.079610234,1.7876512057
 \C,0,2.6782940655,-1.6343627683,0.0600344432\H,0,1.8837887787,-0.85794
 52524,-1.7802912349\C,0,2.5172284636,-1.7253641969,1.4491566355\H,0,1.
 2942811487,-1.17236963,3.147013904\H,0,3.526900492,-2.1192361289,-0.42
 58106303\C,0,-0.4505219873,3.3121531176,-3.5203931459\C,0,-1.273866345
 5,4.4525950016,-3.6414991692\C,0,0.721801793,3.2552103098,-4.300368713
 2\C,0,-0.9473097568,5.4850967631,-4.515064596\H,0,-2.1736218236,4.5362
 103882,-3.0234208067\C,0,1.05029309,4.2851464304,-5.1784425578\H,0,1.3
 754858343,2.3896381005,-4.2153234979\C,0,0.2199678734,5.4069128341,-5.
 2857138027\H,0,-1.5943097325,6.3609606942,-4.5864987076\H,0,1.95652062
 84,4.2154145132,-5.7815700242\C,0,0.4842179147,-5.263687508,3.63506758
 39\C,0,3.5463408513,-2.4582005187,2.2533050539\C,0,0.5428609334,6.4988
 92805,-6.2574620589\F,0,0.1762167387,7.7331759216,-5.805172291\F,0,-0.
 1058467102,6.3354803475,-7.4589832396\F,0,1.8699097505,6.5705852904,-6
 .5568976175\F,0,4.7305760929,-1.7659587751,2.3334088117\F,0,3.15818845
 98,-2.6936445739,3.5344080228\F,0,3.8678357025,-3.6714895751,1.7104364
 135\F,0,1.5462144029,-5.5440644174,2.8342275505\F,0,0.9849363059,-4.66
 46350574,4.7574381685\F,0,-0.0088436063,-6.4761772367,4.0541649502\\Ve
 rsion=ES64L-G09RevE.01\State=1-A\HF=-2846.9800664\RMSD=2.017e-09\PG=C0
 1 [X(C41H19F9O5)]\\@


 PATIENCE IS THE ABILITY TO IDLE YOUR MOTOR WHEN
 YOU FEEL LIKE STRIPPING YOUR GEARS.
 Job cpu time:       5 days  6 hours 13 minutes 14.5 seconds.
 File lengths (MBytes):  RWF=  15304 Int=      0 D2E=      0 Chk=   2999 Scr=      1
 Normal termination of Gaussian 09 at Tue Feb  8 03:03:46 2022.
