
                                 *****************
                                 * O   R   C   A *
                                 *****************

                                            #,                                       
                                            ###                                      
                                            ####                                     
                                            #####                                    
                                            ######                                   
                                           ########,                                 
                                     ,,################,,,,,                         
                               ,,#################################,,                 
                          ,,##########################################,,             
                       ,#########################################, ''#####,          
                    ,#############################################,,   '####,        
                  ,##################################################,,,,####,       
                ,###########''''           ''''###############################       
              ,#####''   ,,,,##########,,,,          '''####'''          '####       
            ,##' ,,,,###########################,,,                        '##       
           ' ,,###''''                  '''############,,,                           
         ,,##''                                '''############,,,,        ,,,,,,###''
      ,#''                                            '''#######################'''  
     '                                                          ''''####''''         
             ,#######,   #######,   ,#######,      ##                                
            ,#'     '#,  ##    ##  ,#'     '#,    #''#        ######   ,####,        
            ##       ##  ##   ,#'  ##            #'  '#       #        #'  '#        
            ##       ##  #######   ##           ,######,      #####,   #    #        
            '#,     ,#'  ##    ##  '#,     ,#' ,#      #,         ##   #,  ,#        
             '#######'   ##     ##  '#######'  #'      '#     #####' # '####'        



                  #######################################################
                  #                        -***-                        #
                  #          Department of theory and spectroscopy      #
                  #    Directorship and core code : Frank Neese         #
                  #        Max Planck Institute fuer Kohlenforschung    #
                  #                Kaiser Wilhelm Platz 1               #
                  #                 D-45470 Muelheim/Ruhr               #
                  #                      Germany                        #
                  #                                                     #
                  #                  All rights reserved                #
                  #                        -***-                        #
                  #######################################################


                         Program Version 5.0.2 -  RELEASE  -


 With contributions from (in alphabetic order):
   Daniel Aravena         : Magnetic Suceptibility
   Michael Atanasov       : Ab Initio Ligand Field Theory (pilot matlab implementation)
   Alexander A. Auer      : GIAO ZORA, VPT2 properties, NMR spectrum
   Ute Becker             : Parallelization
   Giovanni Bistoni       : ED, misc. LED, open-shell LED, HFLD
   Martin Brehm           : Molecular dynamics
   Dmytro Bykov           : SCF Hessian
   Vijay G. Chilkuri      : MRCI spin determinant printing, contributions to CSF-ICE
   Dipayan Datta          : RHF DLPNO-CCSD density
   Achintya Kumar Dutta   : EOM-CC, STEOM-CC
   Dmitry Ganyushin       : Spin-Orbit,Spin-Spin,Magnetic field MRCI
   Miquel Garcia          : C-PCM and meta-GGA Hessian, CC/C-PCM, Gaussian charge scheme
   Yang Guo               : DLPNO-NEVPT2, F12-NEVPT2, CIM, IAO-localization
   Andreas Hansen         : Spin unrestricted coupled pair/coupled cluster methods
   Benjamin Helmich-Paris : MC-RPA, TRAH-SCF, COSX integrals
   Lee Huntington         : MR-EOM, pCC
   Robert Izsak           : Overlap fitted RIJCOSX, COSX-SCS-MP3, EOM
   Marcus Kettner         : VPT2
   Christian Kollmar      : KDIIS, OOCD, Brueckner-CCSD(T), CCSD density, CASPT2, CASPT2-K
   Simone Kossmann        : Meta GGA functionals, TD-DFT gradient, OOMP2, MP2 Hessian
   Martin Krupicka        : Initial AUTO-CI
   Lucas Lang             : DCDCAS
   Marvin Lechner         : AUTO-CI (C++ implementation), FIC-MRCC
   Dagmar Lenk            : GEPOL surface, SMD
   Dimitrios Liakos       : Extrapolation schemes; Compound Job, initial MDCI parallelization
   Dimitrios Manganas     : Further ROCIS development; embedding schemes
   Dimitrios Pantazis     : SARC Basis sets
   Anastasios Papadopoulos: AUTO-CI, single reference methods and gradients
   Taras Petrenko         : DFT Hessian,TD-DFT gradient, ASA, ECA, R-Raman, ABS, FL, XAS/XES, NRVS
   Peter Pinski           : DLPNO-MP2, DLPNO-MP2 Gradient
   Christoph Reimann      : Effective Core Potentials
   Marius Retegan         : Local ZFS, SOC
   Christoph Riplinger    : Optimizer, TS searches, QM/MM, DLPNO-CCSD(T), (RO)-DLPNO pert. Triples
   Tobias Risthaus        : Range-separated hybrids, TD-DFT gradient, RPA, STAB
   Michael Roemelt        : Original ROCIS implementation
   Masaaki Saitow         : Open-shell DLPNO-CCSD energy and density
   Barbara Sandhoefer     : DKH picture change effects
   Avijit Sen             : IP-ROCIS
   Kantharuban Sivalingam : CASSCF convergence, NEVPT2, FIC-MRCI
   Bernardo de Souza      : ESD, SOC TD-DFT
   Georgi Stoychev        : AutoAux, RI-MP2 NMR, DLPNO-MP2 response
   Willem Van den Heuvel  : Paramagnetic NMR
   Boris Wezisla          : Elementary symmetry handling
   Frank Wennmohs         : Technical directorship


 We gratefully acknowledge several colleagues who have allowed us to
 interface, adapt or use parts of their codes:
   Stefan Grimme, W. Hujo, H. Kruse, P. Pracht,  : VdW corrections, initial TS optimization,
                  C. Bannwarth, S. Ehlert          DFT functionals, gCP, sTDA/sTD-DF
   Ed Valeev, F. Pavosevic, A. Kumar             : LibInt (2-el integral package), F12 methods
   Garnet Chan, S. Sharma, J. Yang, R. Olivares  : DMRG
   Ulf Ekstrom                                   : XCFun DFT Library
   Mihaly Kallay                                 : mrcc  (arbitrary order and MRCC methods)
   Jiri Pittner, Ondrej Demel                    : Mk-CCSD
   Frank Weinhold                                : gennbo (NPA and NBO analysis)
   Christopher J. Cramer and Donald G. Truhlar   : smd solvation model
   Lars Goerigk                                  : TD-DFT with DH, B97 family of functionals
   V. Asgeirsson, H. Jonsson                     : NEB implementation
   FAccTs GmbH                                   : IRC, NEB, NEB-TS, DLPNO-Multilevel, CI-OPT
                                                   MM, QMMM, 2- and 3-layer-ONIOM, Crystal-QMMM,
                                                   LR-CPCM, SF, NACMEs, symmetry and pop. for TD-DFT,
                                                   nearIR, NL-DFT gradient (VV10), updates on ESD,
                                                   ML-optimized integration grids
   S Lehtola, MJT Oliveira, MAL Marques          : LibXC Library
   Liviu Ungur et al                             : ANISO software


 Your calculation uses the libint2 library for the computation of 2-el integrals
 For citations please refer to: http://libint.valeyev.net

 Your ORCA version has been built with support for libXC version: 5.1.0
 For citations please refer to: https://tddft.org/programs/libxc/

 This ORCA versions uses:
   CBLAS   interface :  Fast vector & matrix operations
   LAPACKE interface :  Fast linear algebra routines
   SCALAPACK package :  Parallel linear algebra routines
   Shared memory     :  Shared parallel matrices
   BLAS/LAPACK       :  OpenBLAS 0.3.15  USE64BITINT DYNAMIC_ARCH NO_AFFINITY Zen SINGLE_THREADED
        Core in use  :  Zen
   Copyright (c) 2011-2014, The OpenBLAS Project


Your calculation utilizes the atom-pairwise dispersion correction
with the Becke-Johnson damping scheme (D3BJ)
Cite in your paper:
S.Grimme, S.Ehrlich, L.Goerigk, J Comput Chem, (2011), 32, 1456–1465 
S.Grimme, J.Antony, S.Ehrlich and H.Krieg, J.Chem.Phys., 132, (2010), 154104 
   

Your calculation utilizes the SMD solvation module
Please cite in your paper:
A.V. Marenich, C.J. Cramer, D.G. Truhlar J. Phys. Chem. B, 113, (2009), 6378 

================================================================================

----- Orbital basis set information -----
Your calculation utilizes the basis: def2-TZVP
   F. Weigend and R. Ahlrichs, Phys. Chem. Chem. Phys. 7, 3297 (2005).

----- AuxJ basis set information -----
Your calculation utilizes the auxiliary basis: def2/J
   F. Weigend, Phys. Chem. Chem. Phys. 8, 1057 (2006).

----- AuxC basis set information -----
Your calculation utilizes the auxiliary basis: def2-TZVP/C
  H-La, Hf-Rn : A. Hellweg, C. Hattig, S. Hofener and W. Klopper, Theor. Chem. Acc. 117, 587 (2007).
        Ce-Lu : J. Chmela and M. E. Harding, Mol. Phys. (2018).

================================================================================
                                        WARNINGS
                       Please study these warnings very carefully!
================================================================================

INFO   : Checking CIS options ...
  ===> : (D) CORRECTION FOUND - SETTING MODE=3
  ===> : JK MODE FOUND - ACTIVATING RI-MP2 CODE
  ===> : MP2 AND CIS FOUND - CHECKING
WARNING: CIS(D) and MP2 runs must have the same orbital window
  ===> : adjusting orbital windows

WARNING: No MP2 level density has been requested!
         To caclulate MP2 level properties use
         %mp2 Density relaxed end
         or
         %mp2 Density unrelaxed end
         Otherwise for double-hybrid DFT only the energy is correct!

WARNING: There are different parametrizations of Gershom Martin's DSD-DFs
         for use with and without D3(BJ)!
         You are using the D3(BJ) parametrized version,
         consistent with the GMTKN55 benchmark (L. Goerigk et al., PCCP 2017, 19, 32184)

WARNING: The frozen-core approximation is turned on by default for 
         the MP2 part of double-hybrid DFT.

WARNING: CIS/ROCIS methods need fully converged wavefunctions
  ===> : Setting SCFConvForced true
         You can overwrite this default with %scf ConvForced false 


INFO   : the flag for use of the SHARK integral package has been found!

================================================================================
                                       INPUT FILE
================================================================================
NAME = Eos_2_M06L_def2TZVP_coords.inp
|  1> %maxcore 3200
|  2> %pal
|  3>  nprocs= 8
|  4> end
|  5> ! RI-DSD-BLYP D3BJ def2-TZVP def2/J def2-TZVP/C RIJCOSX CPCM TightSCF
|  6> %TDDFT DCORR 4
|  7>    NROOTS   30
|  8>   TDA      FALSE
|  9> END 
| 10>  
| 11>  %CPCM 
| 12>    SMD          TRUE 
| 13>    SMDsolvent   "ACETONITRILE"
| 14>  END 
| 15>  
| 16> 
| 17> * xyz -2 1
| 18> C                  -2.67897200    4.34624700   -0.16924300
| 19> C                  -2.46586700    2.90864300   -0.20133500
| 20> C                  -1.17369700    2.42193300   -0.18513400
| 21> C                  -0.01410600    3.24238300   -0.18570700
| 22> C                  -0.23683500    4.64481300   -0.14138500
| 23> C                  -1.48835100    5.16623400   -0.13020500
| 24> C                   1.25499300    2.64616500   -0.19350900
| 25> C                   1.35641700    1.24406600   -0.16759300
| 26> C                   0.17868400    0.46122100   -0.08657500
| 27> C                   0.18512200   -0.91505500   -0.00743600
| 28> C                   1.44713300   -1.63392300   -0.02990500
| 29> C                   2.66346700   -0.82586600   -0.14802400
| 30> C                   2.57758400    0.53874600   -0.21132300
| 31> H                   0.62440100    5.30035600   -0.10401300
| 32> H                  -1.64018100    6.23851100   -0.08871900
| 33> H                   3.48808300    1.11428800   -0.31945600
| 34> O                  -1.03680100    1.06901700   -0.12749600
| 35> O                   1.48918400   -2.87654700    0.07950700
| 36> O                  -3.81835700    4.85935400   -0.18276500
| 37> C                   2.47499900    3.47808400   -0.29079300
| 38> C                   2.65878900    4.26262000   -1.43194500
| 39> C                   3.47261100    3.45681700    0.69702500
| 40> C                   3.79715500    5.03530400   -1.59538700
| 41> H                   1.89683800    4.25456500   -2.20309300
| 42> C                   4.61968000    4.22345000    0.50515700
| 43> C                   4.78141100    5.02011300   -0.61702500
| 44> H                   3.91570100    5.64030800   -2.48551700
| 45> H                   5.39097200    4.18654500    1.26554100
| 46> H                   5.67445900    5.62240600   -0.73271400
| 47> C                   3.32624100    2.64697100    1.97622900
| 48> O                   4.33643500    1.99081100    2.32416400
| 49> O                   2.22402100    2.73490600    2.56087400
| 50> C                  -3.63001500    2.01010700   -0.24860600
| 51> C                  -4.70258000    2.19292700    0.63275400
| 52> C                  -3.72296100    0.97456000   -1.18325200
| 53> C                  -5.81311700    1.37299700    0.58621000
| 54> H                  -4.65423300    2.98730900    1.36421700
| 55> C                  -4.83656400    0.15362500   -1.24232900
| 56> H                  -2.91537900    0.81694300   -1.88658500
| 57> C                  -5.88780300    0.35336000   -0.35816200
| 58> H                  -6.62924700    1.52354400    1.28267000
| 59> H                  -4.88919800   -0.63461500   -1.98224700
| 60> C                  -1.06465500   -1.68362500    0.11778600
| 61> C                  -2.02756000   -1.36834900    1.08017500
| 62> C                  -1.30858200   -2.78127300   -0.71601200
| 63> C                  -3.18525100   -2.11740200    1.21416900
| 64> H                  -1.86150400   -0.53194900    1.74701900
| 65> C                  -2.46404000   -3.52785900   -0.59545700
| 66> H                  -0.57780000   -3.04465000   -1.46800700
| 67> C                  -3.40443000   -3.20349800    0.37819600
| 68> H                  -3.91059600   -1.86154900    1.97594000
| 69> H                  -2.63787200   -4.37021400   -1.25416200
| 70> C                   3.98655400   -1.46390400   -0.17264700
| 71> C                   5.07989000   -0.83143300    0.43839900
| 72> C                   4.21380100   -2.68803000   -0.81358400
| 73> C                   6.34179300   -1.39321000    0.40371100
| 74> H                   4.92582500    0.10498900    0.96781500
| 75> C                   5.47687400   -3.25094500   -0.85305000
| 76> H                   3.38936600   -3.19431300   -1.29246700
| 77> C                   6.54561500   -2.60981200   -0.23950300
| 78> H                   7.17090400   -0.89230000    0.88848900
| 79> H                   5.63231500   -4.19255100   -1.36360200
| 80> C                  -7.09518600   -0.51997600   -0.37788600
| 81> C                  -4.64149200   -4.02792900    0.48361700
| 82> C                   7.91767900   -3.18671000   -0.30272200
| 83> F                   8.60106400   -3.02529000    0.84685500
| 84> F                   8.67691000   -2.60461700   -1.26294200
| 85> F                   7.92151900   -4.50206800   -0.57393000
| 86> F                  -4.37252500   -5.34998800    0.54504800
| 87> F                  -5.38050100   -3.73671400    1.56309500
| 88> F                  -5.45126900   -3.87436000   -0.59031500
| 89> F                  -7.13266100   -1.34679200   -1.43216600
| 90> F                  -7.17953700   -1.29923600    0.72567500
| 91> F                  -8.24247900    0.19200800   -0.40482500
| 92> *
| 93> 
| 94> 
| 95>                          ****END OF INPUT****
================================================================================

                       ****************************
                       * Single Point Calculation *
                       ****************************

---------------------------------
CARTESIAN COORDINATES (ANGSTROEM)
---------------------------------
  C     -2.678972    4.346247   -0.169243
  C     -2.465867    2.908643   -0.201335
  C     -1.173697    2.421933   -0.185134
  C     -0.014106    3.242383   -0.185707
  C     -0.236835    4.644813   -0.141385
  C     -1.488351    5.166234   -0.130205
  C      1.254993    2.646165   -0.193509
  C      1.356417    1.244066   -0.167593
  C      0.178684    0.461221   -0.086575
  C      0.185122   -0.915055   -0.007436
  C      1.447133   -1.633923   -0.029905
  C      2.663467   -0.825866   -0.148024
  C      2.577584    0.538746   -0.211323
  H      0.624401    5.300356   -0.104013
  H     -1.640181    6.238511   -0.088719
  H      3.488083    1.114288   -0.319456
  O     -1.036801    1.069017   -0.127496
  O      1.489184   -2.876547    0.079507
  O     -3.818357    4.859354   -0.182765
  C      2.474999    3.478084   -0.290793
  C      2.658789    4.262620   -1.431945
  C      3.472611    3.456817    0.697025
  C      3.797155    5.035304   -1.595387
  H      1.896838    4.254565   -2.203093
  C      4.619680    4.223450    0.505157
  C      4.781411    5.020113   -0.617025
  H      3.915701    5.640308   -2.485517
  H      5.390972    4.186545    1.265541
  H      5.674459    5.622406   -0.732714
  C      3.326241    2.646971    1.976229
  O      4.336435    1.990811    2.324164
  O      2.224021    2.734906    2.560874
  C     -3.630015    2.010107   -0.248606
  C     -4.702580    2.192927    0.632754
  C     -3.722961    0.974560   -1.183252
  C     -5.813117    1.372997    0.586210
  H     -4.654233    2.987309    1.364217
  C     -4.836564    0.153625   -1.242329
  H     -2.915379    0.816943   -1.886585
  C     -5.887803    0.353360   -0.358162
  H     -6.629247    1.523544    1.282670
  H     -4.889198   -0.634615   -1.982247
  C     -1.064655   -1.683625    0.117786
  C     -2.027560   -1.368349    1.080175
  C     -1.308582   -2.781273   -0.716012
  C     -3.185251   -2.117402    1.214169
  H     -1.861504   -0.531949    1.747019
  C     -2.464040   -3.527859   -0.595457
  H     -0.577800   -3.044650   -1.468007
  C     -3.404430   -3.203498    0.378196
  H     -3.910596   -1.861549    1.975940
  H     -2.637872   -4.370214   -1.254162
  C      3.986554   -1.463904   -0.172647
  C      5.079890   -0.831433    0.438399
  C      4.213801   -2.688030   -0.813584
  C      6.341793   -1.393210    0.403711
  H      4.925825    0.104989    0.967815
  C      5.476874   -3.250945   -0.853050
  H      3.389366   -3.194313   -1.292467
  C      6.545615   -2.609812   -0.239503
  H      7.170904   -0.892300    0.888489
  H      5.632315   -4.192551   -1.363602
  C     -7.095186   -0.519976   -0.377886
  C     -4.641492   -4.027929    0.483617
  C      7.917679   -3.186710   -0.302722
  F      8.601064   -3.025290    0.846855
  F      8.676910   -2.604617   -1.262942
  F      7.921519   -4.502068   -0.573930
  F     -4.372525   -5.349988    0.545048
  F     -5.380501   -3.736714    1.563095
  F     -5.451269   -3.874360   -0.590315
  F     -7.132661   -1.346792   -1.432166
  F     -7.179537   -1.299236    0.725675
  F     -8.242479    0.192008   -0.404825

----------------------------
CARTESIAN COORDINATES (A.U.)
----------------------------
  NO LB      ZA    FRAG     MASS         X           Y           Z
   0 C     6.0000    0    12.011   -5.062523    8.213217   -0.319823
   1 C     6.0000    0    12.011   -4.659813    5.496539   -0.380468
   2 C     6.0000    0    12.011   -2.217966    4.576790   -0.349853
   3 C     6.0000    0    12.011   -0.026656    6.127216   -0.350935
   4 C     6.0000    0    12.011   -0.447553    8.777425   -0.267179
   5 C     6.0000    0    12.011   -2.812576    9.762767   -0.246052
   6 C     6.0000    0    12.011    2.371593    5.000527   -0.365679
   7 C     6.0000    0    12.011    2.563257    2.350944   -0.316705
   8 C     6.0000    0    12.011    0.337664    0.871581   -0.163603
   9 C     6.0000    0    12.011    0.349830   -1.729203   -0.014052
  10 C     6.0000    0    12.011    2.734685   -3.087667   -0.056512
  11 C     6.0000    0    12.011    5.033223   -1.560661   -0.279725
  12 C     6.0000    0    12.011    4.870928    1.018082   -0.399343
  13 H     1.0000    0     1.008    1.179947   10.016221   -0.196556
  14 H     1.0000    0     1.008   -3.099493   11.789077   -0.167655
  15 H     1.0000    0     1.008    6.591522    2.105699   -0.603684
  16 O     8.0000    0    15.999   -1.959270    2.020149   -0.240933
  17 O     8.0000    0    15.999    2.814150   -5.435886    0.150246
  18 O     8.0000    0    15.999   -7.215649    9.182848   -0.345376
  19 C     6.0000    0    12.011    4.677070    6.572626   -0.549519
  20 C     6.0000    0    12.011    5.024383    8.055184   -2.705984
  21 C     6.0000    0    12.011    6.562284    6.532437    1.317186
  22 C     6.0000    0    12.011    7.175583    9.515346   -3.014845
  23 H     1.0000    0     1.008    3.584504    8.039963   -4.163242
  24 C     6.0000    0    12.011    8.729930    7.981164    0.954608
  25 C     6.0000    0    12.011    9.035557    9.486639   -1.166008
  26 H     1.0000    0     1.008    7.399603   10.658637   -4.696946
  27 H     1.0000    0     1.008   10.187461    7.911423    2.391526
  28 H     1.0000    0     1.008   10.723173   10.624808   -1.384629
  29 C     6.0000    0    12.011    6.285685    5.002050    3.734532
  30 O     8.0000    0    15.999    8.194675    3.762088    4.392033
  31 O     8.0000    0    15.999    4.202791    5.168223    4.839351
  32 C     6.0000    0    12.011   -6.859734    3.798552   -0.469797
  33 C     6.0000    0    12.011   -8.886588    4.144031    1.195732
  34 C     6.0000    0    12.011   -7.035377    1.841652   -2.236022
  35 C     6.0000    0    12.011  -10.985199    2.594588    1.107776
  36 H     1.0000    0     1.008   -8.795226    5.645196    2.577997
  37 C     6.0000    0    12.011   -9.139781    0.290309   -2.347662
  38 H     1.0000    0     1.008   -5.509268    1.543799   -3.565129
  39 C     6.0000    0    12.011  -11.126335    0.667754   -0.676828
  40 H     1.0000    0     1.008  -12.527461    2.879081    2.423895
  41 H     1.0000    0     1.008   -9.239245   -1.199249   -3.745904
  42 C     6.0000    0    12.011   -2.011906   -3.181590    0.222583
  43 C     6.0000    0    12.011   -3.831533   -2.585805    2.041235
  44 C     6.0000    0    12.011   -2.472862   -5.255844   -1.353067
  45 C     6.0000    0    12.011   -6.019252   -4.001310    2.294447
  46 H     1.0000    0     1.008   -3.517733   -1.005238    3.301387
  47 C     6.0000    0    12.011   -4.656361   -6.666687   -1.125251
  48 H     1.0000    0     1.008   -1.091884   -5.753555   -2.774131
  49 C     6.0000    0    12.011   -6.433440   -6.053734    0.714687
  50 H     1.0000    0     1.008   -7.389955   -3.517818    3.733985
  51 H     1.0000    0     1.008   -4.984856   -8.258508   -2.370023
  52 C     6.0000    0    12.011    7.533495   -2.766378   -0.326256
  53 C     6.0000    0    12.011    9.599601   -1.571181    0.828454
  54 C     6.0000    0    12.011    7.962930   -5.079641   -1.537451
  55 C     6.0000    0    12.011   11.984252   -2.632785    0.762903
  56 H     1.0000    0     1.008    9.308460    0.198400    1.828905
  57 C     6.0000    0    12.011   10.349792   -6.143396   -1.612031
  58 H     1.0000    0     1.008    6.404974   -6.036377   -2.442409
  59 C     6.0000    0    12.011   12.369420   -4.931830   -0.452595
  60 H     1.0000    0     1.008   13.551045   -1.686203    1.679001
  61 H     1.0000    0     1.008   10.643533   -7.922773   -2.576834
  62 C     6.0000    0    12.011  -13.407958   -0.982612   -0.714101
  63 C     6.0000    0    12.011   -8.771149   -7.611683    0.913904
  64 C     6.0000    0    12.011   14.962245   -6.022009   -0.572062
  65 F     9.0000    0    18.998   16.253655   -5.716970    1.600324
  66 F     9.0000    0    18.998   16.396984   -4.922013   -2.386615
  67 F     9.0000    0    18.998   14.969501   -8.507676   -1.084571
  68 F     9.0000    0    18.998   -8.262875  -10.110012    1.029991
  69 F     9.0000    0    18.998  -10.167673   -7.061366    2.953821
  70 F     9.0000    0    18.998  -10.301405   -7.321479   -1.115534
  71 F     9.0000    0    18.998  -13.478776   -2.545068   -2.706402
  72 F     9.0000    0    18.998  -13.567359   -2.455200    1.371327
  73 F     9.0000    0    18.998  -15.576028    0.362843   -0.765008

--------------------------------
INTERNAL COORDINATES (ANGSTROEM)
--------------------------------
 C      0   0   0     0.000000000000     0.00000000     0.00000000
 C      1   0   0     1.453667396038     0.00000000     0.00000000
 C      2   1   0     1.380888266805   119.04440991     0.00000000
 C      3   2   1     1.420489288277   124.07686550   357.69676145
 C      4   3   2     1.420697910192   116.24199351     2.83190707
 C      5   4   3     1.355838172459   121.64122272   358.54581001
 C      4   3   2     1.402194368313   119.55497546   181.18061657
 C      7   4   3     1.406001448304   119.28867884   358.45592251
 C      8   7   4     1.416497521931   119.48565220   357.78842832
 C      9   8   7     1.378564491542   123.44563866   182.42135221
 C     10   9   8     1.452565943944   119.81777469   358.84539243
 C     11  10   9     1.465051744126   116.71826127   359.57210391
 C     12  11  10     1.368776301531   120.10016852     0.95135354
 H      5   4   3     1.082986952336   118.28970189   177.80852955
 H      6   5   4     1.083767226772   120.67238019   179.53836053
 H     13  12  11     1.082566288249   118.80801101   181.27594121
 O      9   8   7     1.359593428596   119.63860859     4.49870083
 O     11  10   9     1.248140087378   121.37407132   177.86614712
 O      1   2   3     1.249663881273   122.64833531   179.92454032
 C      7   4   3     1.479854060120   120.49674353   175.65846999
 C     20   7   4     1.396962199381   118.54670866   298.20123501
 C     20   7   4     1.404089167025   122.07189156   121.00591548
 C     21  20   7     1.385507488676   121.17538878   181.68614074
 H     21  20   7     1.084114130214   118.97451520     1.12923084
 C     22  20   7     1.392948949845   118.67536366   177.17161167
 C     25  22  20     1.385684413225   121.60642876     1.35095228
 H     23  21  20     1.082780869351   119.90345700   180.36390023
 H     25  22  20     1.083714517641   118.07930474   181.03845848
 H     26  25  22     1.083363066047   120.15359880   178.75594595
 C     22  20   7     1.521064625265   122.09714383   355.94982829
 O     30  22  20     1.253832774919   115.75164729   135.55544912
 O     30  22  20     1.250772268900   116.13393252   314.42732686
 C      2   1   3     1.471340224639   119.25269848   179.93003015
 C     33   2   1     1.400219368965   120.40519088   311.91019017
 C     33   2   1     1.398055683240   121.76410500   130.35099925
 C     34  33   2     1.381211054548   121.14245585   178.86003821
 H     34  33   2     1.080934001085   119.18518860   358.52554617
 C     35  33   2     1.384751244001   121.40639179   181.59035755
 H     35  33   2     1.082455132697   119.51414152     0.70744035
 C     38  35  33     1.388073769378   119.77278211   359.91171477
 H     36  34  33     1.083415482495   120.10066826   179.40230274
 H     38  35  33     1.082391464434   119.99990541   179.33852995
 C     10   9   8     1.472522646316   121.46601779   178.04987885
 C     43  10   9     1.397418184554   121.71107476   309.67961626
 C     43  10   9     1.399839497241   120.43154780   131.09576597
 C     44  43  10     1.385381983543   121.36150709   181.67622560
 H     44  43  10     1.082506570637   119.52906681     0.67794127
 C     45  43  10     1.380944370054   121.17987881   178.79116812
 H     45  43  10     1.081159680934   119.17825236   358.65557920
 C     46  44  43     1.387982280862   119.78783024   359.84453062
 H     46  44  43     1.082534610567   120.01273628   179.19007986
 H     48  45  43     1.083361337354   120.10198398   179.61668333
 C     12  11  10     1.469101082684   120.63212670   179.71255095
 C     53  12  11     1.403132349015   119.91404434   215.61257696
 C     53  12  11     1.400330639833   122.24084291    36.85522851
 C     54  53  12     1.381736529329   121.16030046   181.52575231
 H     54  53  12     1.086693833315   119.34802171     2.97130071
 C     55  53  12     1.383395917917   121.12657459   178.26356127
 H     55  53  12     1.079511219489   119.28051224   358.85908738
 C     58  55  53     1.389135979657   120.13496880     0.65904020
 H     56  54  53     1.083210777137   119.98612169   180.47874826
 H     58  55  53     1.082334102032   119.90630934   180.69327298
 C     40  38  35     1.490261223330   121.38755283   180.82606328
 C     50  46  44     1.490343065487   121.42191780   180.46766359
 C     60  58  55     1.489754195987   120.73771332   181.53437106
 F     65  60  58     1.347070433776   112.61993750   217.91273642
 F     65  60  58     1.355465388865   112.31133737    98.84128917
 F     65  60  58     1.343032089352   112.98356239   338.97117622
 F     64  50  46     1.350539527126   112.29805451   229.82557599
 F     64  50  46     1.340228797926   113.23286960   350.64273633
 F     64  50  46     1.353754840477   112.18792156   111.26760737
 F     63  40  38     1.340348981378   113.23877456   350.70815714
 F     63  40  38     1.353590824260   112.15249512   111.30597750
 F     63  40  38     1.350528842278   112.30748374   229.88907765

---------------------------
INTERNAL COORDINATES (A.U.)
---------------------------
 C      0   0   0     0.000000000000     0.00000000     0.00000000
 C      1   0   0     2.747033268323     0.00000000     0.00000000
 C      2   1   0     2.609500645808   119.04440991     0.00000000
 C      3   2   1     2.684335731012   124.07686550   357.69676145
 C      4   3   2     2.684729969298   116.24199351     2.83190707
 C      5   4   3     2.562162827864   121.64122272   358.54581001
 C      4   3   2     2.649763342638   119.55497546   181.18061657
 C      7   4   3     2.656957681191   119.28867884   358.45592251
 C      8   7   4     2.676792385829   119.48565220   357.78842832
 C      9   8   7     2.605109346963   123.44563866   182.42135221
 C     10   9   8     2.744951825515   119.81777469   358.84539243
 C     11  10   9     2.768546568421   116.71826127   359.57210391
 C     12  11  10     2.586612348496   120.10016852     0.95135354
 H      5   4   3     2.046548746524   118.28970189   177.80852955
 H      6   5   4     2.048023251518   120.67238019   179.53836053
 H     13  12  11     2.045753806607   118.80801101   181.27594121
 O      9   8   7     2.569259233526   119.63860859     4.49870083
 O     11  10   9     2.358642941914   121.37407132   177.86614712
 O      1   2   3     2.361522495059   122.64833531   179.92454032
 C      7   4   3     2.796518891798   120.49674353   175.65846999
 C     20   7   4     2.639875976271   118.54670866   298.20123501
 C     20   7   4     2.653343993283   122.07189156   121.00591548
 C     21  20   7     2.618229710094   121.17538878   181.68614074
 H     21  20   7     2.048678804019   118.97451520     1.12923084
 C     22  20   7     2.632292033740   118.67536366   177.17161167
 C     25  22  20     2.618564049038   121.60642876     1.35095228
 H     23  21  20     2.046159306122   119.90345700   180.36390023
 H     25  22  20     2.047923645695   118.07930474   181.03845848
 H     26  25  22     2.047259498433   120.15359880   178.75594595
 C     22  20   7     2.874395573746   122.09714383   355.94982829
 O     30  22  20     2.369400562331   115.75164729   135.55544912
 O     30  22  20     2.363617044125   116.13393252   314.42732686
 C      2   1   3     2.780430074390   119.25269848   179.93003015
 C     33   2   1     2.646031134756   120.40519088   311.91019017
 C     33   2   1     2.641942361297   121.76410500   130.35099925
 C     34  33   2     2.610110626240   121.14245585   178.86003821
 H     34  33   2     2.042669230895   119.18518860   358.52554617
 C     35  33   2     2.616800614769   121.40639179   181.59035755
 H     35  33   2     2.045543753055   119.51414152     0.70744035
 C     38  35  33     2.623079277804   119.77278211   359.91171477
 H     36  34  33     2.047358551165   120.10066826   179.40230274
 H     38  35  33     2.045423437475   119.99990541   179.33852995
 C     10   9   8     2.782664527534   121.46601779   178.04987885
 C     43  10   9     2.640737663368   121.71107476   309.67961626
 C     43  10   9     2.645313281232   120.43154780   131.09576597
 C     44  43  10     2.617992539765   121.36150709   181.67622560
 H     44  43  10     2.045640956674   119.52906681     0.67794127
 C     45  43  10     2.609606665583   121.17987881   178.79116812
 H     45  43  10     2.043095704004   119.17825236   358.65557920
 C     46  44  43     2.622906389564   119.78783024   359.84453062
 H     46  44  43     2.045693944462   120.01273628   179.19007986
 H     48  45  43     2.047256231678   120.10198398   179.61668333
 C     12  11  10     2.776198709319   120.63212670   179.71255095
 C     53  12  11     2.651535869284   119.91404434   215.61257696
 C     53  12  11     2.646241406222   122.24084291    36.85522851
 C     54  53  12     2.611103629667   121.16030046   181.52575231
 H     54  53  12     2.053553736387   119.34802171     2.97130071
 C     55  53  12     2.614239419648   121.12657459   178.26356127
 H     55  53  12     2.039980563330   119.28051224   358.85908738
 C     58  55  53     2.625086564329   120.13496880     0.65904020
 H     56  54  53     2.046971714100   119.98612169   180.47874826
 H     58  55  53     2.045315038244   119.90630934   180.69327298
 C     40  38  35     2.816185580096   121.38755283   180.82606328
 C     50  46  44     2.816340239360   121.42191780   180.46766359
 C     60  58  55     2.815227437276   120.73771332   181.53437106
 F     65  60  58     2.545594202940   112.61993750   217.91273642
 F     65  60  58     2.561458368963   112.31133737    98.84128917
 F     65  60  58     2.537962837942   112.98356239   338.97117622
 F     64  50  46     2.552149839305   112.29805451   229.82557599
 F     64  50  46     2.532665384875   113.23286960   350.64273633
 F     64  50  46     2.558225900971   112.18792156   111.26760737
 F     63  40  38     2.532892498685   113.23877456   350.70815714
 F     63  40  38     2.557915955241   112.15249512   111.30597750
 F     63  40  38     2.552129647868   112.30748374   229.88907765

---------------------
BASIS SET INFORMATION
---------------------
There are 4 groups of distinct atoms

 Group   1 Type C   : 11s6p2d1f contracted to 5s3p2d1f pattern {62111/411/11/1}
 Group   2 Type H   : 5s1p contracted to 3s1p pattern {311/1}
 Group   3 Type O   : 11s6p2d1f contracted to 5s3p2d1f pattern {62111/411/11/1}
 Group   4 Type F   : 11s6p2d1f contracted to 5s3p2d1f pattern {62111/411/11/1}

Atom   0C    basis set group =>   1
Atom   1C    basis set group =>   1
Atom   2C    basis set group =>   1
Atom   3C    basis set group =>   1
Atom   4C    basis set group =>   1
Atom   5C    basis set group =>   1
Atom   6C    basis set group =>   1
Atom   7C    basis set group =>   1
Atom   8C    basis set group =>   1
Atom   9C    basis set group =>   1
Atom  10C    basis set group =>   1
Atom  11C    basis set group =>   1
Atom  12C    basis set group =>   1
Atom  13H    basis set group =>   2
Atom  14H    basis set group =>   2
Atom  15H    basis set group =>   2
Atom  16O    basis set group =>   3
Atom  17O    basis set group =>   3
Atom  18O    basis set group =>   3
Atom  19C    basis set group =>   1
Atom  20C    basis set group =>   1
Atom  21C    basis set group =>   1
Atom  22C    basis set group =>   1
Atom  23H    basis set group =>   2
Atom  24C    basis set group =>   1
Atom  25C    basis set group =>   1
Atom  26H    basis set group =>   2
Atom  27H    basis set group =>   2
Atom  28H    basis set group =>   2
Atom  29C    basis set group =>   1
Atom  30O    basis set group =>   3
Atom  31O    basis set group =>   3
Atom  32C    basis set group =>   1
Atom  33C    basis set group =>   1
Atom  34C    basis set group =>   1
Atom  35C    basis set group =>   1
Atom  36H    basis set group =>   2
Atom  37C    basis set group =>   1
Atom  38H    basis set group =>   2
Atom  39C    basis set group =>   1
Atom  40H    basis set group =>   2
Atom  41H    basis set group =>   2
Atom  42C    basis set group =>   1
Atom  43C    basis set group =>   1
Atom  44C    basis set group =>   1
Atom  45C    basis set group =>   1
Atom  46H    basis set group =>   2
Atom  47C    basis set group =>   1
Atom  48H    basis set group =>   2
Atom  49C    basis set group =>   1
Atom  50H    basis set group =>   2
Atom  51H    basis set group =>   2
Atom  52C    basis set group =>   1
Atom  53C    basis set group =>   1
Atom  54C    basis set group =>   1
Atom  55C    basis set group =>   1
Atom  56H    basis set group =>   2
Atom  57C    basis set group =>   1
Atom  58H    basis set group =>   2
Atom  59C    basis set group =>   1
Atom  60H    basis set group =>   2
Atom  61H    basis set group =>   2
Atom  62C    basis set group =>   1
Atom  63C    basis set group =>   1
Atom  64C    basis set group =>   1
Atom  65F    basis set group =>   4
Atom  66F    basis set group =>   4
Atom  67F    basis set group =>   4
Atom  68F    basis set group =>   4
Atom  69F    basis set group =>   4
Atom  70F    basis set group =>   4
Atom  71F    basis set group =>   4
Atom  72F    basis set group =>   4
Atom  73F    basis set group =>   4
---------------------------------
AUXILIARY/J BASIS SET INFORMATION
---------------------------------
There are 4 groups of distinct atoms

 Group   1 Type C   : 12s5p4d2f1g contracted to 6s4p3d1f1g pattern {711111/2111/211/2/1}
 Group   2 Type H   : 5s2p1d contracted to 3s1p1d pattern {311/2/1}
 Group   3 Type O   : 12s5p4d2f1g contracted to 6s4p3d1f1g pattern {711111/2111/211/2/1}
 Group   4 Type F   : 12s5p4d2f1g contracted to 6s4p3d1f1g pattern {711111/2111/211/2/1}

Atom   0C    basis set group =>   1
Atom   1C    basis set group =>   1
Atom   2C    basis set group =>   1
Atom   3C    basis set group =>   1
Atom   4C    basis set group =>   1
Atom   5C    basis set group =>   1
Atom   6C    basis set group =>   1
Atom   7C    basis set group =>   1
Atom   8C    basis set group =>   1
Atom   9C    basis set group =>   1
Atom  10C    basis set group =>   1
Atom  11C    basis set group =>   1
Atom  12C    basis set group =>   1
Atom  13H    basis set group =>   2
Atom  14H    basis set group =>   2
Atom  15H    basis set group =>   2
Atom  16O    basis set group =>   3
Atom  17O    basis set group =>   3
Atom  18O    basis set group =>   3
Atom  19C    basis set group =>   1
Atom  20C    basis set group =>   1
Atom  21C    basis set group =>   1
Atom  22C    basis set group =>   1
Atom  23H    basis set group =>   2
Atom  24C    basis set group =>   1
Atom  25C    basis set group =>   1
Atom  26H    basis set group =>   2
Atom  27H    basis set group =>   2
Atom  28H    basis set group =>   2
Atom  29C    basis set group =>   1
Atom  30O    basis set group =>   3
Atom  31O    basis set group =>   3
Atom  32C    basis set group =>   1
Atom  33C    basis set group =>   1
Atom  34C    basis set group =>   1
Atom  35C    basis set group =>   1
Atom  36H    basis set group =>   2
Atom  37C    basis set group =>   1
Atom  38H    basis set group =>   2
Atom  39C    basis set group =>   1
Atom  40H    basis set group =>   2
Atom  41H    basis set group =>   2
Atom  42C    basis set group =>   1
Atom  43C    basis set group =>   1
Atom  44C    basis set group =>   1
Atom  45C    basis set group =>   1
Atom  46H    basis set group =>   2
Atom  47C    basis set group =>   1
Atom  48H    basis set group =>   2
Atom  49C    basis set group =>   1
Atom  50H    basis set group =>   2
Atom  51H    basis set group =>   2
Atom  52C    basis set group =>   1
Atom  53C    basis set group =>   1
Atom  54C    basis set group =>   1
Atom  55C    basis set group =>   1
Atom  56H    basis set group =>   2
Atom  57C    basis set group =>   1
Atom  58H    basis set group =>   2
Atom  59C    basis set group =>   1
Atom  60H    basis set group =>   2
Atom  61H    basis set group =>   2
Atom  62C    basis set group =>   1
Atom  63C    basis set group =>   1
Atom  64C    basis set group =>   1
Atom  65F    basis set group =>   4
Atom  66F    basis set group =>   4
Atom  67F    basis set group =>   4
Atom  68F    basis set group =>   4
Atom  69F    basis set group =>   4
Atom  70F    basis set group =>   4
Atom  71F    basis set group =>   4
Atom  72F    basis set group =>   4
Atom  73F    basis set group =>   4
---------------------------------
AUXILIARY/C BASIS SET INFORMATION
---------------------------------
There are 4 groups of distinct atoms

 Group   1 Type C   : 8s6p5d3f1g contracted to 8s6p4d3f1g pattern {11111111/111111/2111/111/1}
 Group   2 Type H   : 4s3p2d contracted to 4s2p1d pattern {1111/21/2}
 Group   3 Type O   : 8s6p5d3f1g contracted to 8s6p4d3f1g pattern {11111111/111111/2111/111/1}
 Group   4 Type F   : 8s6p5d3f1g contracted to 8s6p4d3f1g pattern {11111111/111111/2111/111/1}

Atom   0C    basis set group =>   1
Atom   1C    basis set group =>   1
Atom   2C    basis set group =>   1
Atom   3C    basis set group =>   1
Atom   4C    basis set group =>   1
Atom   5C    basis set group =>   1
Atom   6C    basis set group =>   1
Atom   7C    basis set group =>   1
Atom   8C    basis set group =>   1
Atom   9C    basis set group =>   1
Atom  10C    basis set group =>   1
Atom  11C    basis set group =>   1
Atom  12C    basis set group =>   1
Atom  13H    basis set group =>   2
Atom  14H    basis set group =>   2
Atom  15H    basis set group =>   2
Atom  16O    basis set group =>   3
Atom  17O    basis set group =>   3
Atom  18O    basis set group =>   3
Atom  19C    basis set group =>   1
Atom  20C    basis set group =>   1
Atom  21C    basis set group =>   1
Atom  22C    basis set group =>   1
Atom  23H    basis set group =>   2
Atom  24C    basis set group =>   1
Atom  25C    basis set group =>   1
Atom  26H    basis set group =>   2
Atom  27H    basis set group =>   2
Atom  28H    basis set group =>   2
Atom  29C    basis set group =>   1
Atom  30O    basis set group =>   3
Atom  31O    basis set group =>   3
Atom  32C    basis set group =>   1
Atom  33C    basis set group =>   1
Atom  34C    basis set group =>   1
Atom  35C    basis set group =>   1
Atom  36H    basis set group =>   2
Atom  37C    basis set group =>   1
Atom  38H    basis set group =>   2
Atom  39C    basis set group =>   1
Atom  40H    basis set group =>   2
Atom  41H    basis set group =>   2
Atom  42C    basis set group =>   1
Atom  43C    basis set group =>   1
Atom  44C    basis set group =>   1
Atom  45C    basis set group =>   1
Atom  46H    basis set group =>   2
Atom  47C    basis set group =>   1
Atom  48H    basis set group =>   2
Atom  49C    basis set group =>   1
Atom  50H    basis set group =>   2
Atom  51H    basis set group =>   2
Atom  52C    basis set group =>   1
Atom  53C    basis set group =>   1
Atom  54C    basis set group =>   1
Atom  55C    basis set group =>   1
Atom  56H    basis set group =>   2
Atom  57C    basis set group =>   1
Atom  58H    basis set group =>   2
Atom  59C    basis set group =>   1
Atom  60H    basis set group =>   2
Atom  61H    basis set group =>   2
Atom  62C    basis set group =>   1
Atom  63C    basis set group =>   1
Atom  64C    basis set group =>   1
Atom  65F    basis set group =>   4
Atom  66F    basis set group =>   4
Atom  67F    basis set group =>   4
Atom  68F    basis set group =>   4
Atom  69F    basis set group =>   4
Atom  70F    basis set group =>   4
Atom  71F    basis set group =>   4
Atom  72F    basis set group =>   4
Atom  73F    basis set group =>   4


           ************************************************************
           *        Program running with 8 parallel MPI-processes     *
           *              working on a common directory               *
           ************************************************************
------------------------------------------------------------------------------
                           ORCA GTO INTEGRAL CALCULATION
                           -- RI-GTO INTEGRALS CHOSEN --
------------------------------------------------------------------------------
------------------------------------------------------------------------------
                   ___                                                        
                  /   \      - P O W E R E D   B Y -                         
                 /     \                                                     
                 |  |  |   _    _      __       _____    __    __             
                 |  |  |  | |  | |    /  \     |  _  \  |  |  /  |          
                  \  \/   | |  | |   /    \    | | | |  |  | /  /          
                 / \  \   | |__| |  /  /\  \   | |_| |  |  |/  /          
                |  |  |   |  __  | /  /__\  \  |    /   |      \           
                |  |  |   | |  | | |   __   |  |    \   |  |\   \          
                \     /   | |  | | |  |  |  |  | |\  \  |  | \   \       
                 \___/    |_|  |_| |__|  |__|  |_| \__\ |__|  \__/        
                                                                              
                      - O R C A' S   B I G   F R I E N D -                    
                                      &                                       
                       - I N T E G R A L  F E E D E R -                       
                                                                              
 v1 FN, 2020, v2 2021                                                         
------------------------------------------------------------------------------


Reading SHARK input file Eos_2_M06L_def2TZVP_coords.SHARKINP.tmp ... ok
----------------------
SHARK INTEGRAL PACKAGE
----------------------

Number of atoms                             ...     74
Number of basis functions                   ...   1819
Number of shells                            ...    681
Maximum angular momentum                    ...      3
Integral batch strategy                     ... SHARK/LIBINT Hybrid
RI-J (if used) integral strategy            ... SPLIT-RIJ (Revised 2003 algorithm where possible)
Printlevel                                  ...      1
Contraction scheme used                     ... SEGMENTED contraction
Coulomb Range Separation                    ... NOT USED
Exchange Range Separation                   ... NOT USED
Finite Nucleus Model                        ... NOT USED
Auxiliary Coulomb fitting basis             ... AVAILABLE
   # of basis functions in Aux-J            ...   2904
   # of shells in Aux-J                     ...    920
   Maximum angular momentum in Aux-J        ...      4
Auxiliary J/K fitting basis                 ... NOT available
Auxiliary Correlation fitting basis         ... AVAILABLE
   # of basis functions in Aux-C            ...   4465
   # of shells in Aux-C                     ...   1343
   Maximum angular momentum in Aux-C        ...      4
Auxiliary 'external' fitting basis          ... NOT available
Integral threshold                          ...     2.500000e-11
Primitive cut-off                           ...     2.500000e-12
Primitive pair pre-selection threshold      ...     2.500000e-12

Calculating pre-screening integrals         ... done (  0.2 sec) Dimension = 681
Organizing shell pair data                  ... done (  1.9 sec)
Shell pair information
Total number of shell pairs                 ...    232221
Shell pairs after pre-screening             ...    108056
Total number of primitive shell pairs       ...    738772
Primitive shell pairs kept                  ...    208428
          la=0 lb=0:  24524 shell pairs
          la=1 lb=0:  31434 shell pairs
          la=1 lb=1:   9927 shell pairs
          la=2 lb=0:  15348 shell pairs
          la=2 lb=1:  10027 shell pairs
          la=2 lb=2:   2397 shell pairs
          la=3 lb=0:   7002 shell pairs
          la=3 lb=1:   4734 shell pairs
          la=3 lb=2:   2152 shell pairs
          la=3 lb=3:    511 shell pairs

Calculating one electron integrals          ... done (  0.2 sec)
Calculating RI/J V-Matrix + Cholesky decomp.... done (  0.3 sec)
Calculating RI/C V-Matrix + Cholesky decomp.... done (  0.8 sec)
Calculating Nuclear repulsion               ... done (  0.0 sec) ENN=   7367.646367007482 Eh

SHARK setup successfully completed in   4.3 seconds

Maximum memory used throughout the entire GTOINT-calculation: 208.9 MB


           ************************************************************
           *        Program running with 8 parallel MPI-processes     *
           *              working on a common directory               *
           ************************************************************
-------------------------------------------------------------------------------
                                 ORCA SCF
-------------------------------------------------------------------------------

------------
SCF SETTINGS
------------
Hamiltonian:
 Density Functional     Method          .... DFT(GTOs)
 Exchange Functional    Exchange        .... B88
   X-Alpha parameter    XAlpha          ....  0.666667
   Becke's b parameter  XBeta           ....  0.004200
 Correlation Functional Correlation     .... LYP
 LDA part of GGA corr.  LDAOpt          .... VWN-5
 Gradients option       PostSCFGGA      .... off
 Hybrid DFT is turned on
   Fraction HF Exchange ScalHFX         ....  0.690000
   Scaling of DF-GGA-X  ScalDFX         ....  0.310000
   Scaling of DF-GGA-C  ScalDFC         ....  0.540000
   Scaling of DF-LDA-C  ScalLDAC        ....  0.540000
   Perturbative correction              ....  1.000000
   Density functional embedding theory  .... OFF
   NL short-range parameter             .... 12.000000
 RI-approximation to the Coulomb term is turned on
   Number of AuxJ basis functions       .... 2904
   RIJ-COSX (HFX calculated with COS-X)).... on


General Settings:
 Integral files         IntName         .... Eos_2_M06L_def2TZVP_coords
 Hartree-Fock type      HFTyp           .... RHF
 Total Charge           Charge          ....   -2
 Multiplicity           Mult            ....    1
 Number of Electrons    NEL             ....  388
 Basis Dimension        Dim             .... 1819
 Nuclear Repulsion      ENuc            ....   7367.6463670075 Eh

Convergence Acceleration:
 DIIS                   CNVDIIS         .... on
   Start iteration      DIISMaxIt       ....    12
   Startup error        DIISStart       ....  0.200000
   # of expansion vecs  DIISMaxEq       ....     5
   Bias factor          DIISBfac        ....   1.050
   Max. coefficient     DIISMaxC        ....  10.000
 Trust-Rad. Augm. Hess. CNVTRAH         .... auto
   Auto Start mean grad. ratio tolernc. ....  1.125000
   Auto Start start iteration           ....    20
   Auto Start num. interpolation iter.  ....    10
   Max. Number of Micro iterations      ....    16
   Max. Number of Macro iterations      .... Maxiter - #DIIS iter
   Number of Davidson start vectors     ....     2
   Converg. threshold I  (grad. norm)   ....   1.000e-05
   Converg. threshold II (energy diff.) ....   1.000e-08
   Grad. Scal. Fac. for Micro threshold ....   0.100
   Minimum threshold for Micro iter.    ....   0.010
   NR start threshold (gradient norm)   ....   0.001
   Initial trust radius                 ....   0.400
   Minimum AH scaling param. (alpha)    ....   1.000
   Maximum AH scaling param. (alpha)    .... 1000.000
   Orbital update algorithm             .... Taylor
   White noise on init. David. guess    .... on
   Maximum white noise                  ....   0.010
   Quad. conv. algorithm                .... NR
 SOSCF                  CNVSOSCF        .... on
   Start iteration      SOSCFMaxIt      ....   150
   Startup grad/error   SOSCFStart      ....  0.003300
 Level Shifting         CNVShift        .... on
   Level shift para.    LevelShift      ....    0.2500
   Turn off err/grad.   ShiftErr        ....    0.0010
 Zerner damping         CNVZerner       .... off
 Static damping         CNVDamp         .... on
   Fraction old density DampFac         ....    0.7000
   Max. Damping (<1)    DampMax         ....    0.9800
   Min. Damping (>=0)   DampMin         ....    0.0000
   Turn off err/grad.   DampErr         ....    0.1000
 Fernandez-Rico         CNVRico         .... off

SCF Procedure:
 Maximum # iterations   MaxIter         ....   125
 SCF integral mode      SCFMode         .... Direct
   Integral package                     .... SHARK and LIBINT hybrid scheme
 Reset frequency        DirectResetFreq ....    20
 Integral Threshold     Thresh          ....  2.500e-11 Eh
 Primitive CutOff       TCut            ....  2.500e-12 Eh

Convergence Tolerance:
 Convergence Check Mode ConvCheckMode   .... Total+1el-Energy
 Convergence forced     ConvForced      .... 1
 Energy Change          TolE            ....  1.000e-08 Eh
 1-El. energy change                    ....  1.000e-05 Eh
 Orbital Gradient       TolG            ....  1.000e-05
 Orbital Rotation angle TolX            ....  1.000e-05
 DIIS Error             TolErr          ....  5.000e-07


Diagonalization of the overlap matrix:
Smallest eigenvalue                        ... 3.098e-06
Time for diagonalization                   ...    0.388 sec
Threshold for overlap eigenvalues          ... 1.000e-08
Number of eigenvalues below threshold      ... 0
Time for construction of square roots      ...    0.275 sec
Total time needed                          ...    0.672 sec

Time for model grid setup =    0.898 sec

------------------------------
INITIAL GUESS: MODEL POTENTIAL
------------------------------
Loading Hartree-Fock densities                     ... done
Calculating cut-offs                               ... done
Initializing the effective Hamiltonian             ... done
Setting up the integral package (SHARK)            ... done
Starting the Coulomb interaction                   ... done (   2.4 sec)
Reading the grid                                   ... done
Mapping shells                                     ... done
Starting the XC term evaluation                    ... done (   0.9 sec)
  promolecular density results
     # of electrons  =    385.978672618
     EX              =   -348.108886111
     EC              =     -1.816704755
     EX+EC           =   -349.925590866
Transforming the Hamiltonian                       ... done (   0.2 sec)
Diagonalizing the Hamiltonian                      ... done (   0.4 sec)
Back transforming the eigenvectors                 ... done (   0.1 sec)
Now organizing SCF variables                       ... done
                      ------------------
                      INITIAL GUESS DONE (   5.0 sec)
                      ------------------
-------------------
DFT GRID GENERATION
-------------------

General Integration Accuracy     IntAcc      ... 4.388
Radial Grid Type                 RadialGrid  ... OptM3 with GC (2021)
Angular Grid (max. ang.)         AngularGrid ... 4 (Lebedev-302)
Angular grid pruning method      GridPruning ... 4 (adaptive)
Weight generation scheme         WeightScheme... Becke
Basis function cutoff            BFCut       ... 1.0000e-11
Integration weight cutoff        WCut        ... 1.0000e-14
Angular grids for H and He will be reduced by one unit
Partially contracted basis set               ... off
Rotationally invariant grid construction     ... off

Total number of grid points                  ...   387672
Total number of batches                      ...     6090
Average number of points per batch           ...       63
Average number of grid points per atom       ...     5239
Time for grid setup =    3.337 sec

--------------------
COSX GRID GENERATION
--------------------

GRIDX 1
-------
General Integration Accuracy     IntAcc      ... 3.816
Radial Grid Type                 RadialGrid  ... OptM3 with GC (2021)
Angular Grid (max. ang.)         AngularGrid ... 1 (Lebedev-50)
Angular grid pruning method      GridPruning ... 4 (adaptive)
Weight generation scheme         WeightScheme... Becke
Basis function cutoff            BFCut       ... 1.0000e-11
Integration weight cutoff        WCut        ... 1.0000e-14
Angular grids for H and He will be reduced by one unit
Partially contracted basis set               ... on
Rotationally invariant grid construction     ... off

Total number of grid points                  ...    48898
Total number of batches                      ...      793
Average number of points per batch           ...       61
Average number of grid points per atom       ...      661
UseSFitting                                  ... on

GRIDX 2
-------
General Integration Accuracy     IntAcc      ... 4.020
Radial Grid Type                 RadialGrid  ... OptM3 with GC (2021)
Angular Grid (max. ang.)         AngularGrid ... 2 (Lebedev-110)
Angular grid pruning method      GridPruning ... 4 (adaptive)
Weight generation scheme         WeightScheme... Becke
Basis function cutoff            BFCut       ... 1.0000e-11
Integration weight cutoff        WCut        ... 1.0000e-14
Angular grids for H and He will be reduced by one unit
Partially contracted basis set               ... on
Rotationally invariant grid construction     ... off

Total number of grid points                  ...   109161
Total number of batches                      ...     1742
Average number of points per batch           ...       62
Average number of grid points per atom       ...     1475
UseSFitting                                  ... on

GRIDX 3
-------
General Integration Accuracy     IntAcc      ... 4.338
Radial Grid Type                 RadialGrid  ... OptM3 with GC (2021)
Angular Grid (max. ang.)         AngularGrid ... 3 (Lebedev-194)
Angular grid pruning method      GridPruning ... 4 (adaptive)
Weight generation scheme         WeightScheme... Becke
Basis function cutoff            BFCut       ... 1.0000e-11
Integration weight cutoff        WCut        ... 1.0000e-14
Angular grids for H and He will be reduced by one unit
Partially contracted basis set               ... on
Rotationally invariant grid construction     ... off

Total number of grid points                  ...   239142
Total number of batches                      ...     3772
Average number of points per batch           ...       63
Average number of grid points per atom       ...     3232
UseSFitting                                  ... on

Time for X-Grid setup             =    5.800 sec


--------------------
CPCM SOLVATION MODEL
--------------------
CPCM parameters:
  Epsilon                                         ...      35.6880
  Refrac                                          ...       1.3442
  Rsolv                                           ...       1.3000
  Surface type                                    ... GAUSSIAN VDW
  Epsilon function type                           ...         CPCM
Solvent:                                     ... ACETONITRILE
SMD-CDS solvent descriptors:
  Soln                                       ...    1.3442
  Soln25                                     ...    1.3416
  Sola                                       ...    0.0700
  Solb                                       ...    0.3200
  Solg                                       ...   41.2500
  Solc                                       ...    0.0000
  Solh                                       ...    0.0000
Radii:
 Radius for C  used is    3.4960 Bohr (=   1.8500 Ang.)
 Radius for H  used is    2.2677 Bohr (=   1.2000 Ang.)
 Radius for O  used is    4.0969 Bohr (=   2.1680 Ang.)
 Radius for F  used is    3.2692 Bohr (=   1.7300 Ang.)
Calculating surface                               ...        done! (  0.0s)
GEPOL surface points                              ...         3861
GEPOL Volume                                      ...    4878.2263
GEPOL Surface-area                                ...    2417.0252
Calculating surface distance matrix               ...        done! (  0.1s)
Performing Cholesky decomposition & store         ...        done! (  0.5s)
Overall time for CPCM initialization              ...                 0.6s
--------------
SCF ITERATIONS
--------------
ITER       Energy         Delta-E        Max-DP      RMS-DP      [F,P]     Damp
               ***  Starting incremental Fock matrix formation  ***
  0  -2840.4520849987   0.000000000000 0.32256204  0.00134593  0.3241516 0.7000
  1  -2841.0418552095  -0.589770210814 0.33020353  0.00133353  0.1731103 0.7000
                               ***Turning on DIIS***
  2  -2841.3609150774  -0.319059867883 0.53848894  0.00238912  0.0791344 0.0000
  3  -2841.9406690306  -0.579753953130 0.35260889  0.00125089  0.0756216 0.0000
  4  -2841.9976890992  -0.057020068612 0.06312662  0.00026854  0.0155328 0.0000
  5  -2842.0004087736  -0.002719674419 0.05488061  0.00018213  0.0081207 0.0000
                      *** Initiating the SOSCF procedure ***
                           *** Shutting down DIIS ***
                      *** Re-Reading the Fockian *** 
                      *** Removing any level shift *** 
ITER      Energy       Delta-E        Grad      Rot      Max-DP    RMS-DP
  6  -2842.00101953  -0.0006107529  0.001617  0.001617  0.021219  0.000071
               *** Restarting incremental Fock matrix formation ***
  7  -2842.00119745  -0.0001779241  0.001059  0.003386  0.030927  0.000229
  8  -2842.00127815  -0.0000807020  0.000480  0.003635  0.013778  0.000103
  9  -2842.00130011  -0.0000219529  0.000188  0.000432  0.012295  0.000087
 10  -2842.00130669  -0.0000065833  0.000057  0.000200  0.001873  0.000010
 11  -2842.00130724  -0.0000005517  0.000031  0.000100  0.000804  0.000005
 12  -2842.00130736  -0.0000001226  0.000014  0.000101  0.000691  0.000003
 13  -2842.00130744  -0.0000000731  0.000007  0.000048  0.000609  0.000003
                  ***Gradient check signals convergence***
              ***Rediagonalizing the Fockian in SOSCF/NRSCF***

               *****************************************************
               *                     SUCCESS                       *
               *           SCF CONVERGED AFTER  14 CYCLES          *
               *****************************************************

Old exchange energy                            =   -243.215367635 Eh
New exchange energy                            =   -243.215447750 Eh
Exchange energy change after final integration =     -0.000080115 Eh
Total energy after final integration           =  -2842.001387582 Eh
Final COS-X integration done in                =   122.957 sec

SMD CDS free energy correction energy :                -6.14935     Kcal/mol
Total Energy after SMD CDS correction =             -2842.011187195 Eh

----------------
TOTAL SCF ENERGY
----------------

Total Energy       :        -2842.01118720 Eh          -77335.05604 eV

Components:
Nuclear Repulsion  :         7367.64636701 Eh          200483.85005 eV
Electronic Energy  :       -10209.65755420 Eh         -277818.90609 eV
One Electron Energy:       -18653.73239422 Eh         -507593.86402 eV
Two Electron Energy:         8444.07484001 Eh          229774.95793 eV
Max COSX asymmetry :            0.00001118 Eh               0.00030 eV
CPCM Dielectric    :           -0.22275638 Eh              -6.06151 eV
SMD CDS (Gcds)     :           -0.00979961 Eh              -0.26666 eV

Virial components:
Potential Energy   :        -5677.20137885 Eh         -154484.50336 eV
Kinetic Energy     :         2835.19019166 Eh           77149.44732 eV
Virial Ratio       :            2.00240583


DFT components:
N(Alpha)           :      193.999906886540 electrons
N(Beta)            :      193.999906886540 electrons
N(Total)           :      387.999813773080 electrons
E(X)               :     -109.557862779536 Eh       
E(C)               :       -7.437162917986 Eh       
E(XC)              :     -116.995025697522 Eh       
DFET-embed. en.    :        0.000000000000 Eh       
CPCM Solvation Model Properties:
Surface-charge          :            1.95066933
Charge-correction       :           -0.00757804 Eh              -0.20621 eV
Free-energy (cav+disp)  :           -0.00979961 Eh              -0.26666 eV

---------------
SCF CONVERGENCE
---------------

  Last Energy change         ...   -3.0223e-08  Tolerance :   1.0000e-08
  Last MAX-Density change    ...    4.8850e-15  Tolerance :   1.0000e-07
  Last RMS-Density change    ...    1.4060e-17  Tolerance :   5.0000e-09
  Last Orbital Gradient      ...    1.8151e-06  Tolerance :   1.0000e-05
  Last Orbital Rotation      ...    1.1556e-05  Tolerance :   1.0000e-05

             **** THE GBW FILE WAS UPDATED (Eos_2_M06L_def2TZVP_coords.gbw) ****
             **** DENSITY Eos_2_M06L_def2TZVP_coords.scfp WAS UPDATED ****
             **** ENERGY FILE WAS UPDATED (Eos_2_M06L_def2TZVP_coords.en.tmp) ****
             **** THE GBW FILE WAS UPDATED (Eos_2_M06L_def2TZVP_coords.gbw) ****
             **** DENSITY Eos_2_M06L_def2TZVP_coords.scfp WAS UPDATED ****
----------------
ORBITAL ENERGIES
----------------

  NO   OCC          E(Eh)            E(eV) 
   0   2.0000     -25.714557      -699.7287 
   1   2.0000     -25.714263      -699.7207 
   2   2.0000     -25.714104      -699.7163 
   3   2.0000     -25.711884      -699.6559 
   4   2.0000     -25.710205      -699.6103 
   5   2.0000     -25.709857      -699.6008 
   6   2.0000     -25.708251      -699.5571 
   7   2.0000     -25.708032      -699.5511 
   8   2.0000     -25.707830      -699.5456 
   9   2.0000     -20.069894      -546.1296 
  10   2.0000     -19.939469      -542.5805 
  11   2.0000     -19.939297      -542.5759 
  12   2.0000     -19.920532      -542.0652 
  13   2.0000     -19.920168      -542.0553 
  14   2.0000     -11.090114      -301.7774 
  15   2.0000     -11.089848      -301.7701 
  16   2.0000     -11.089538      -301.7617 
  17   2.0000     -10.909769      -296.8699 
  18   2.0000     -10.907902      -296.8191 
  19   2.0000     -10.899117      -296.5801 
  20   2.0000     -10.888888      -296.3017 
  21   2.0000     -10.885459      -296.2084 
  22   2.0000     -10.877013      -295.9786 
  23   2.0000     -10.843765      -295.0739 
  24   2.0000     -10.843650      -295.0707 
  25   2.0000     -10.843344      -295.0624 
  26   2.0000     -10.840093      -294.9739 
  27   2.0000     -10.839752      -294.9647 
  28   2.0000     -10.839478      -294.9572 
  29   2.0000     -10.838581      -294.9328 
  30   2.0000     -10.833338      -294.7901 
  31   2.0000     -10.833178      -294.7858 
  32   2.0000     -10.833057      -294.7825 
  33   2.0000     -10.832994      -294.7808 
  34   2.0000     -10.832765      -294.7745 
  35   2.0000     -10.832511      -294.7676 
  36   2.0000     -10.832191      -294.7589 
  37   2.0000     -10.831820      -294.7488 
  38   2.0000     -10.826194      -294.5957 
  39   2.0000     -10.826076      -294.5925 
  40   2.0000     -10.825851      -294.5864 
  41   2.0000     -10.824332      -294.5451 
  42   2.0000     -10.823303      -294.5170 
  43   2.0000     -10.823131      -294.5124 
  44   2.0000     -10.823057      -294.5104 
  45   2.0000     -10.822736      -294.5016 
  46   2.0000     -10.822646      -294.4992 
  47   2.0000     -10.821405      -294.4654 
  48   2.0000     -10.820463      -294.4398 
  49   2.0000     -10.820161      -294.4315 
  50   2.0000     -10.819101      -294.4027 
  51   2.0000     -10.817687      -294.3642 
  52   2.0000     -10.812388      -294.2200 
  53   2.0000     -10.811976      -294.2088 
  54   2.0000     -10.804516      -294.0058 
  55   2.0000      -1.567141       -42.6441 
  56   2.0000      -1.567119       -42.6435 
  57   2.0000      -1.566414       -42.6243 
  58   2.0000      -1.475920       -40.1618 
  59   2.0000      -1.475916       -40.1617 
  60   2.0000      -1.475399       -40.1477 
  61   2.0000      -1.469681       -39.9921 
  62   2.0000      -1.469442       -39.9856 
  63   2.0000      -1.468915       -39.9712 
  64   2.0000      -1.324863       -36.0514 
  65   2.0000      -1.217590       -33.1323 
  66   2.0000      -1.199353       -32.6361 
  67   2.0000      -1.195613       -32.5343 
  68   2.0000      -1.119855       -30.4728 
  69   2.0000      -1.063328       -28.9346 
  70   2.0000      -1.059326       -28.8257 
  71   2.0000      -1.056516       -28.7493 
  72   2.0000      -1.055662       -28.7260 
  73   2.0000      -1.035126       -28.1672 
  74   2.0000      -1.028892       -27.9976 
  75   2.0000      -0.984404       -26.7870 
  76   2.0000      -0.978448       -26.6249 
  77   2.0000      -0.964932       -26.2571 
  78   2.0000      -0.947011       -25.7695 
  79   2.0000      -0.927587       -25.2409 
  80   2.0000      -0.918245       -24.9867 
  81   2.0000      -0.917203       -24.9584 
  82   2.0000      -0.916879       -24.9496 
  83   2.0000      -0.914824       -24.8936 
  84   2.0000      -0.907407       -24.6918 
  85   2.0000      -0.901468       -24.5302 
  86   2.0000      -0.884937       -24.0804 
  87   2.0000      -0.859536       -23.3892 
  88   2.0000      -0.851954       -23.1829 
  89   2.0000      -0.847402       -23.0590 
  90   2.0000      -0.799006       -21.7421 
  91   2.0000      -0.793752       -21.5991 
  92   2.0000      -0.781785       -21.2735 
  93   2.0000      -0.773389       -21.0450 
  94   2.0000      -0.763534       -20.7768 
  95   2.0000      -0.760930       -20.7060 
  96   2.0000      -0.759180       -20.6583 
  97   2.0000      -0.753983       -20.5169 
  98   2.0000      -0.750162       -20.4130 
  99   2.0000      -0.743998       -20.2452 
 100   2.0000      -0.732262       -19.9259 
 101   2.0000      -0.731440       -19.9035 
 102   2.0000      -0.729968       -19.8634 
 103   2.0000      -0.724611       -19.7177 
 104   2.0000      -0.722360       -19.6564 
 105   2.0000      -0.721164       -19.6239 
 106   2.0000      -0.713335       -19.4108 
 107   2.0000      -0.711255       -19.3542 
 108   2.0000      -0.694275       -18.8922 
 109   2.0000      -0.691912       -18.8279 
 110   2.0000      -0.688972       -18.7479 
 111   2.0000      -0.665775       -18.1166 
 112   2.0000      -0.655319       -17.8321 
 113   2.0000      -0.650409       -17.6985 
 114   2.0000      -0.635914       -17.3041 
 115   2.0000      -0.624281       -16.9876 
 116   2.0000      -0.621880       -16.9222 
 117   2.0000      -0.620146       -16.8750 
 118   2.0000      -0.619219       -16.8498 
 119   2.0000      -0.618349       -16.8261 
 120   2.0000      -0.615498       -16.7486 
 121   2.0000      -0.614949       -16.7336 
 122   2.0000      -0.601675       -16.3724 
 123   2.0000      -0.592784       -16.1305 
 124   2.0000      -0.591531       -16.0964 
 125   2.0000      -0.589089       -16.0299 
 126   2.0000      -0.583487       -15.8775 
 127   2.0000      -0.580663       -15.8006 
 128   2.0000      -0.578522       -15.7424 
 129   2.0000      -0.574860       -15.6427 
 130   2.0000      -0.574622       -15.6363 
 131   2.0000      -0.573093       -15.5946 
 132   2.0000      -0.570095       -15.5131 
 133   2.0000      -0.569195       -15.4886 
 134   2.0000      -0.565790       -15.3959 
 135   2.0000      -0.564471       -15.3600 
 136   2.0000      -0.560153       -15.2425 
 137   2.0000      -0.559052       -15.2126 
 138   2.0000      -0.557262       -15.1639 
 139   2.0000      -0.557117       -15.1599 
 140   2.0000      -0.556336       -15.1387 
 141   2.0000      -0.554092       -15.0776 
 142   2.0000      -0.553341       -15.0572 
 143   2.0000      -0.551707       -15.0127 
 144   2.0000      -0.546600       -14.8737 
 145   2.0000      -0.542140       -14.7524 
 146   2.0000      -0.534346       -14.5403 
 147   2.0000      -0.531577       -14.4649 
 148   2.0000      -0.524317       -14.2674 
 149   2.0000      -0.521938       -14.2026 
 150   2.0000      -0.521433       -14.1889 
 151   2.0000      -0.520550       -14.1649 
 152   2.0000      -0.513244       -13.9661 
 153   2.0000      -0.512206       -13.9378 
 154   2.0000      -0.504908       -13.7392 
 155   2.0000      -0.502215       -13.6660 
 156   2.0000      -0.497921       -13.5491 
 157   2.0000      -0.484638       -13.1877 
 158   2.0000      -0.482037       -13.1169 
 159   2.0000      -0.477699       -12.9988 
 160   2.0000      -0.475917       -12.9504 
 161   2.0000      -0.467688       -12.7264 
 162   2.0000      -0.464441       -12.6381 
 163   2.0000      -0.462413       -12.5829 
 164   2.0000      -0.457152       -12.4397 
 165   2.0000      -0.456053       -12.4098 
 166   2.0000      -0.452069       -12.3014 
 167   2.0000      -0.448157       -12.1950 
 168   2.0000      -0.446233       -12.1426 
 169   2.0000      -0.440442       -11.9850 
 170   2.0000      -0.438461       -11.9311 
 171   2.0000      -0.436998       -11.8913 
 172   2.0000      -0.435339       -11.8462 
 173   2.0000      -0.433334       -11.7916 
 174   2.0000      -0.417971       -11.3736 
 175   2.0000      -0.411559       -11.1991 
 176   2.0000      -0.398567       -10.8456 
 177   2.0000      -0.352742        -9.5986 
 178   2.0000      -0.336767        -9.1639 
 179   2.0000      -0.333940        -9.0870 
 180   2.0000      -0.333165        -9.0659 
 181   2.0000      -0.330417        -8.9911 
 182   2.0000      -0.328545        -8.9402 
 183   2.0000      -0.322086        -8.7644 
 184   2.0000      -0.317687        -8.6447 
 185   2.0000      -0.313263        -8.5243 
 186   2.0000      -0.309669        -8.4265 
 187   2.0000      -0.308054        -8.3826 
 188   2.0000      -0.304839        -8.2951 
 189   2.0000      -0.296416        -8.0659 
 190   2.0000      -0.291984        -7.9453 
 191   2.0000      -0.276622        -7.5273 
 192   2.0000      -0.257991        -7.0203 
 193   2.0000      -0.215030        -5.8513 
 194   0.0000      -0.003428        -0.0933 
 195   0.0000       0.036085         0.9819 
 196   0.0000       0.044618         1.2141 
 197   0.0000       0.053245         1.4489 
 198   0.0000       0.068046         1.8516 
 199   0.0000       0.069911         1.9024 
 200   0.0000       0.071048         1.9333 
 201   0.0000       0.072263         1.9664 
 202   0.0000       0.077042         2.0964 
 203   0.0000       0.098437         2.6786 
 204   0.0000       0.111333         3.0295 
 205   0.0000       0.117066         3.1855 
 206   0.0000       0.118577         3.2266 
 207   0.0000       0.128179         3.4879 
 208   0.0000       0.134512         3.6603 
 209   0.0000       0.136598         3.7170 
 210   0.0000       0.139537         3.7970 
 211   0.0000       0.142883         3.8880 
 212   0.0000       0.145255         3.9526 
 213   0.0000       0.150407         4.0928 
 214   0.0000       0.156006         4.2451 
 215   0.0000       0.161171         4.3857 
 216   0.0000       0.163300         4.4436 
 217   0.0000       0.170509         4.6398 
 218   0.0000       0.171933         4.6785 
 219   0.0000       0.174323         4.7436 
 220   0.0000       0.177234         4.8228 
 221   0.0000       0.177452         4.8287 
 222   0.0000       0.182992         4.9795 
 223   0.0000       0.185865         5.0576 
 224   0.0000       0.188849         5.1388 
 225   0.0000       0.191379         5.2077 
 226   0.0000       0.194449         5.2912 
 227   0.0000       0.196613         5.3501 
 228   0.0000       0.198709         5.4071 
 229   0.0000       0.205369         5.5884 
 230   0.0000       0.208176         5.6647 
 231   0.0000       0.212348         5.7783 
 232   0.0000       0.220765         6.0073 
 233   0.0000       0.224653         6.1131 
 234   0.0000       0.227318         6.1856 
 235   0.0000       0.230628         6.2757 
 236   0.0000       0.232524         6.3273 
 237   0.0000       0.234236         6.3739 
 238   0.0000       0.237360         6.4589 
 239   0.0000       0.238165         6.4808 
 240   0.0000       0.241592         6.5741 
 241   0.0000       0.243745         6.6326 
 242   0.0000       0.246863         6.7175 
 243   0.0000       0.250867         6.8264 
 244   0.0000       0.253565         6.8999 
 245   0.0000       0.257564         7.0087 
 246   0.0000       0.261963         7.1284 
 247   0.0000       0.265524         7.2253 
 248   0.0000       0.267021         7.2660 
 249   0.0000       0.271253         7.3812 
 250   0.0000       0.273112         7.4317 
 251   0.0000       0.275270         7.4905 
 252   0.0000       0.279136         7.5957 
 253   0.0000       0.281496         7.6599 
 254   0.0000       0.283040         7.7019 
 255   0.0000       0.283699         7.7198 
 256   0.0000       0.285958         7.7813 
 257   0.0000       0.288600         7.8532 
 258   0.0000       0.290573         7.9069 
 259   0.0000       0.292523         7.9600 
 260   0.0000       0.294381         8.0105 
 261   0.0000       0.298497         8.1225 
 262   0.0000       0.299012         8.1365 
 263   0.0000       0.303499         8.2586 
 264   0.0000       0.304491         8.2856 
 265   0.0000       0.307106         8.3568 
 266   0.0000       0.309678         8.4268 
 267   0.0000       0.313872         8.5409 
 268   0.0000       0.315384         8.5820 
 269   0.0000       0.316573         8.6144 
 270   0.0000       0.320667         8.7258 
 271   0.0000       0.325071         8.8456 
 272   0.0000       0.327144         8.9020 
 273   0.0000       0.331395         9.0177 
 274   0.0000       0.332916         9.0591 
 275   0.0000       0.335481         9.1289 
 276   0.0000       0.337493         9.1836 
 277   0.0000       0.338167         9.2020 
 278   0.0000       0.342314         9.3148 
 279   0.0000       0.346958         9.4412 
 280   0.0000       0.348769         9.4905 
 281   0.0000       0.350490         9.5373 
 282   0.0000       0.353047         9.6069 
 283   0.0000       0.357118         9.7177 
 284   0.0000       0.359091         9.7714 
 285   0.0000       0.359653         9.7866 
 286   0.0000       0.360816         9.8183 
 287   0.0000       0.362989         9.8774 
 288   0.0000       0.365085         9.9345 
 289   0.0000       0.365543         9.9469 
 290   0.0000       0.369065        10.0428 
 291   0.0000       0.372046        10.1239 
 292   0.0000       0.373251        10.1567 
 293   0.0000       0.375449        10.2165 
 294   0.0000       0.378261        10.2930 
 295   0.0000       0.379995        10.3402 
 296   0.0000       0.382302        10.4030 
 297   0.0000       0.385597        10.4926 
 298   0.0000       0.387379        10.5411 
 299   0.0000       0.389204        10.5908 
 300   0.0000       0.390570        10.6280 
 301   0.0000       0.391516        10.6537 
 302   0.0000       0.395091        10.7510 
 303   0.0000       0.395807        10.7705 
 304   0.0000       0.397741        10.8231 
 305   0.0000       0.399782        10.8786 
 306   0.0000       0.402641        10.9564 
 307   0.0000       0.404958        11.0195 
 308   0.0000       0.407808        11.0970 
 309   0.0000       0.410136        11.1604 
 310   0.0000       0.412182        11.2160 
 311   0.0000       0.414210        11.2712 
[...]
   193a -> 200a  :     0.088147 
   193a -> 206a  :     0.021113 

STATE 19:  E=   0.120975 au      3.292 eV    26550.9 cm**-1 <S**2> =   0.000000
   187a -> 200a  :     0.023387 
   190a -> 194a  :     0.025500 
   190a -> 198a  :     0.061369 
   192a -> 196a  :     0.038609 
   192a -> 197a  :     0.018167 
   193a -> 196a  :     0.012870 
   193a -> 198a  :     0.100684 
   193a -> 199a  :     0.085981 
   193a -> 200a  :     0.430366 

STATE 20:  E=   0.138199 au      3.761 eV    30331.2 cm**-1 <S**2> =   0.000000
   185a -> 197a  :     0.014779 
   186a -> 194a  :     0.015380 
   186a -> 195a  :     0.025331 
   189a -> 200a  :     0.012977 
   190a -> 194a  :     0.020121 
   190a -> 195a  :     0.013773 
   190a -> 198a  :     0.074616 
   191a -> 194a  :     0.010845 
   191a -> 195a  :     0.021441 
   192a -> 196a  :     0.079213 
   193a -> 196a  :     0.030698 
   193a -> 199a  :     0.028570 
   193a -> 201a  :     0.024044 
   193a -> 203a  :     0.333660 
   193a -> 204a  :     0.042200 
   193a -> 206a  :     0.014515 

STATE 21:  E=   0.146627 au      3.990 eV    32180.9 cm**-1 <S**2> =   0.000000
   187a -> 194a  :     0.020904 
   187a -> 200a  :     0.023250 
   189a -> 200a  :     0.027779 
   190a -> 194a  :     0.038950 
   190a -> 195a  :     0.040631 
   190a -> 198a  :     0.266507 
   190a -> 199a  :     0.024439 
   190a -> 200a  :     0.015828 
   191a -> 195a  :     0.023135 
   191a -> 198a  :     0.020817 
   193a -> 198a  :     0.031896 
   193a -> 200a  :     0.113442 
   193a -> 203a  :     0.081197 
   193a -> 204a  :     0.037534 

STATE 22:  E=   0.127116 au      3.459 eV    27898.6 cm**-1 <S**2> =   0.000000
   182a -> 202a  :     0.011220 
   185a -> 195a  :     0.032185 
   185a -> 197a  :     0.053327 
   186a -> 194a  :     0.010900 
   186a -> 195a  :     0.025243 
   186a -> 196a  :     0.014034 
   187a -> 195a  :     0.015494 
   188a -> 195a  :     0.028148 
   188a -> 196a  :     0.085483 
   188a -> 197a  :     0.026592 
   192a -> 196a  :     0.014264 
   193a -> 196a  :     0.011293 
   193a -> 197a  :     0.012178 
   193a -> 199a  :     0.336167 
   193a -> 200a  :     0.037338 
   193a -> 203a  :     0.014133 
   193a -> 204a  :     0.010184 

STATE 23:  E=   0.110925 au      3.018 eV    24345.2 cm**-1 <S**2> =   0.000000
   178a -> 194a  :     0.049956 
   180a -> 194a  :     0.011675 
   183a -> 194a  :     0.190381 
   183a -> 195a  :     0.020701 
   183a -> 198a  :     0.097083 
   184a -> 194a  :     0.037809 
   185a -> 195a  :     0.011259 
   187a -> 194a  :     0.068543 
   187a -> 198a  :     0.069242 
   187a -> 199a  :     0.012414 
   188a -> 196a  :     0.011893 
   190a -> 200a  :     0.021422 
   193a -> 198a  :     0.013617 
   193a -> 199a  :     0.012839 
   193a -> 200a  :     0.015356 
   193a -> 201a  :     0.033599 
   193a -> 204a  :     0.017576 

STATE 24:  E=   0.128942 au      3.509 eV    28299.5 cm**-1 <S**2> =   0.000000
   183a -> 194a  :     0.031814 
   183a -> 198a  :     0.019160 
   185a -> 194a  :     0.022767 
   185a -> 195a  :     0.022430 
   185a -> 196a  :     0.022593 
   185a -> 197a  :     0.015762 
   186a -> 194a  :     0.021749 
   186a -> 195a  :     0.025805 
   186a -> 196a  :     0.061322 
   186a -> 197a  :     0.045947 
   188a -> 194a  :     0.019066 
   188a -> 195a  :     0.052909 
   188a -> 196a  :     0.036887 
   193a -> 201a  :     0.316130 
   193a -> 202a  :     0.084355 
   193a -> 203a  :     0.023767 

STATE 25:  E=   0.112456 au      3.060 eV    24681.3 cm**-1 <S**2> =   0.000000
   179a -> 198a  :     0.017915 
   183a -> 194a  :     0.089248 
   183a -> 198a  :     0.047607 
   187a -> 194a  :     0.118820 
   187a -> 198a  :     0.023849 
   189a -> 194a  :     0.048088 
   189a -> 198a  :     0.045218 
   190a -> 194a  :     0.090957 
   190a -> 199a  :     0.033573 
   190a -> 200a  :     0.124763 
   191a -> 195a  :     0.015063 
   191a -> 198a  :     0.028742 
   191a -> 199a  :     0.014610 
   191a -> 200a  :     0.016372 
   193a -> 202a  :     0.040509 
   193a -> 203a  :     0.013514 

STATE 26:  E=   0.132345 au      3.601 eV    29046.4 cm**-1 <S**2> =   0.000000
   185a -> 195a  :     0.038088 
   185a -> 196a  :     0.050040 
   186a -> 194a  :     0.060099 
   186a -> 195a  :     0.047381 
   186a -> 197a  :     0.026231 
   187a -> 194a  :     0.013219 
   188a -> 195a  :     0.033086 
   188a -> 196a  :     0.012297 
   188a -> 197a  :     0.067693 
   193a -> 201a  :     0.056531 
   193a -> 202a  :     0.372571 
   193a -> 203a  :     0.032887 

STATE 27:  E=   0.139855 au      3.806 eV    30694.7 cm**-1 <S**2> =   0.000000
   181a -> 196a  :     0.010152 
   187a -> 194a  :     0.038161 
   189a -> 194a  :     0.017524 
   189a -> 196a  :     0.029002 
   191a -> 195a  :     0.036889 
   191a -> 203a  :     0.014959 
   191a -> 204a  :     0.012843 
   192a -> 195a  :     0.015825 
   192a -> 203a  :     0.074036 
   193a -> 196a  :     0.032910 
   193a -> 197a  :     0.017890 
   193a -> 199a  :     0.062668 
   193a -> 200a  :     0.034316 
   193a -> 204a  :     0.314596 
   193a -> 205a  :     0.027721 

STATE 28:  E=   0.063614 au      1.731 eV    13961.6 cm**-1 <S**2> =   0.000000
   178a -> 194a  :     0.019086 
   184a -> 194a  :     0.781715 
   192a -> 195a  :     0.012370 
   193a -> 203a  :     0.010963 

STATE 29:  E=   0.165299 au      4.498 eV    36279.0 cm**-1 <S**2> =   0.000000
   177a -> 195a  :     0.018866 
   179a -> 194a  :     0.025204 
   181a -> 195a  :     0.026560 
   182a -> 195a  :     0.028063 
   182a -> 197a  :     0.011192 
   183a -> 194a  :     0.014761 
   183a -> 197a  :     0.025180 
   183a -> 198a  :     0.031196 
   184a -> 194a  :     0.062771 
   185a -> 199a  :     0.021307 
   185a -> 201a  :     0.016717 
   185a -> 202a  :     0.034389 
   186a -> 199a  :     0.021861 
   186a -> 201a  :     0.027150 
   186a -> 202a  :     0.015176 
   187a -> 198a  :     0.015437 
   188a -> 199a  :     0.034177 
   188a -> 200a  :     0.021058 
   188a -> 201a  :     0.025915 
   188a -> 202a  :     0.015357 
   191a -> 195a  :     0.012578 
   191a -> 196a  :     0.024541 
   192a -> 195a  :     0.034308 
   193a -> 195a  :     0.011711 
   193a -> 197a  :     0.010130 
   193a -> 203a  :     0.033202 
   193a -> 204a  :     0.045323 

STATE 30:  E=   0.124910 au      3.399 eV    27414.5 cm**-1 <S**2> =   0.000000
   178a -> 194a  :     0.088174 
   178a -> 198a  :     0.013963 
   179a -> 195a  :     0.012714 
   179a -> 198a  :     0.039754 
   179a -> 200a  :     0.010759 
   180a -> 194a  :     0.033347 
   180a -> 198a  :     0.034369 
   181a -> 198a  :     0.014815 
   183a -> 194a  :     0.123180 
   183a -> 195a  :     0.021096 
   183a -> 198a  :     0.072349 
   183a -> 199a  :     0.011416 
   187a -> 198a  :     0.038865 
   187a -> 200a  :     0.019496 
   189a -> 200a  :     0.032955 
   191a -> 195a  :     0.013388 
   193a -> 203a  :     0.014338 
   193a -> 204a  :     0.027117 
   193a -> 205a  :     0.010357 


-------------------------
TD-DFT-EXCITATION SPECTRA
-------------------------

Center of mass = ( -0.0612, -0.1094,  0.0124)
Calculating the Dipole integrals                  ... done
Transforming integrals                            ... done
Calculating the Linear Momentum integrals         ... done
Transforming integrals                            ... done
Calculating angular momentum integrals            ... done
Transforming integrals                            ... done

-----------------------------------------------------------------------------
         ABSORPTION SPECTRUM VIA TRANSITION ELECTRIC DIPOLE MOMENTS
-----------------------------------------------------------------------------
State   Energy    Wavelength  fosc         T2        TX        TY        TZ  
        (cm-1)      (nm)                 (au**2)    (au)      (au)      (au) 
-----------------------------------------------------------------------------
   1   12575.3    795.2   0.573504167  15.01394   2.51409  -2.94666   0.10253
   2   19507.9    512.6   0.183440206   3.09570   1.69855   0.44722  -0.10311
   3   16636.7    601.1   0.008755993   0.17327   0.26367  -0.30687  -0.09785
   4   19488.4    513.1   0.062127051   1.04949   0.65785   0.78312   0.05872
   5   24913.9    401.4   0.427006953   5.64247   1.71545   1.64275  -0.03266
   6   25520.7    391.8   0.139981262   1.80573   1.31002  -0.29755   0.03232
   7   15410.8    648.9   0.010698650   0.22855   0.46016   0.12934  -0.00858
   8   16548.2    604.3   0.000849875   0.01691   0.04891  -0.08855   0.08169
   9   23950.4    417.5   0.023924549   0.32886   0.55843   0.08367   0.10004
  10   21610.3    462.7   0.063149473   0.96202  -0.88110  -0.34145   0.26285
  11   28731.4    348.1   0.007224516   0.08278   0.14012  -0.25115  -0.00836
  12   27120.4    368.7   0.098911844   1.20068  -0.76188   0.75942  -0.20857
  13   28413.0    352.0   0.016377625   0.18976   0.31653  -0.28148   0.10168
  14   29320.1    341.1   0.003945549   0.04430   0.17900  -0.10627  -0.03111
  15   27041.1    369.8   0.094784366   1.15395   0.66822   0.83022  -0.13481
  16   30088.0    332.4   0.065447437   0.71610  -0.52864   0.65340   0.09860
  17   23532.0    425.0   0.032531050   0.45511   0.60734  -0.29323   0.01641
  18   27905.3    358.4   0.058117402   0.68564  -0.61804   0.54929   0.04409
  19   26550.9    376.6   0.055294898   0.68562  -0.78642  -0.22975   0.11987
  20   30331.2    329.7   0.045675146   0.49575   0.69752   0.09254  -0.02566
  21   32180.9    310.7   0.054325349   0.55575   0.18616   0.62179  -0.36670
  22   27898.6    358.4   0.039508823   0.46622  -0.56435  -0.34701  -0.16524
  23   24345.2    410.8   0.007626970   0.10314   0.10797   0.28819  -0.09178
  24   28299.5    353.4   0.101376905   1.17933   0.13476   0.91095   0.57563
  25   24681.3    405.2   0.022428249   0.29916   0.17407  -0.07335  -0.51330
  26   29046.4    344.3   0.050349772   0.57066   0.72147  -0.06988  -0.21274
  27   30694.7    325.8   0.024431535   0.26204   0.31485  -0.39710  -0.07222
  28   13961.6    716.3   0.005005244   0.11802   0.16439  -0.28050  -0.11097
  29   36279.0    275.6   0.111345263   1.01040  -0.03415   1.00196  -0.07284
  30   27414.5    364.8   0.001372269   0.01648  -0.09254  -0.04147  -0.07871

-----------------------------------------------------------------------------
         ABSORPTION SPECTRUM VIA TRANSITION VELOCITY DIPOLE MOMENTS
-----------------------------------------------------------------------------
State   Energy    Wavelength   fosc        P2         PX        PY        PZ  
        (cm-1)      (nm)                 (au**2)     (au)      (au)      (au) 
-----------------------------------------------------------------------------
   1   12575.3    795.2   2.152136010   0.18497  -0.27899   0.32710  -0.01172
   2   19507.9    512.6   0.509946222   0.06799  -0.25181  -0.06589   0.01542
   3   16636.7    601.1   0.038755023   0.00441  -0.04241   0.04860   0.01570
   4   19488.4    513.1   0.212163333   0.02826  -0.10854  -0.12799  -0.00984
   5   24913.9    401.4   1.009919172   0.17196  -0.29929  -0.28697   0.00608
   6   25520.7    391.8   0.326245879   0.05690  -0.23243   0.05332  -0.00598
   7   15410.8    648.9   0.072164490   0.00760  -0.08399  -0.02332   0.00184
   8   16548.2    604.3   0.005078713   0.00057  -0.00917   0.01634  -0.01494
   9   23950.4    417.5   0.071049963   0.01163  -0.10486  -0.01620  -0.01927
  10   21610.3    462.7   0.235511437   0.03478   0.16725   0.06555  -0.05013
  11   28731.4    348.1   0.015595059   0.00306  -0.02730   0.04813   0.00091
  12   27120.4    368.7   0.246480157   0.04569   0.14821  -0.14866   0.04025
  13   28413.0    352.0   0.037381067   0.00726  -0.06311   0.05407  -0.01878
  14   29320.1    341.1   0.008764172   0.00176  -0.03595   0.02105   0.00458
  15   27041.1    369.8   0.248225870   0.04588  -0.13351  -0.16531   0.02688
  16   30088.0    332.4   0.139894310   0.02877   0.10638  -0.13068  -0.01933
  17   23532.0    425.0   0.115930586   0.01865  -0.12279   0.05967  -0.00271
  18   27905.3    358.4   0.156158135   0.02978   0.12850  -0.11480  -0.00954
  19   26550.9    376.6   0.166205988   0.03016   0.16509   0.04778  -0.02493
  20   30331.2    329.7   0.108455947   0.02248  -0.14864  -0.01870   0.00637
  21   32180.9    310.7   0.117080677   0.02575  -0.04104  -0.13381   0.07849
  22   27898.6    358.4   0.115373307   0.02200   0.12284   0.07524   0.03533
  23   24345.2    410.8   0.027769691   0.00462  -0.02206  -0.06076   0.02102
  24   28299.5    353.4   0.294265883   0.05691  -0.02920  -0.19838  -0.12926
  25   24681.3    405.2   0.084809495   0.01431  -0.03744   0.01416   0.11271
  26   29046.4    344.3   0.139013186   0.02760  -0.15820   0.01479   0.04847
  27   30694.7    325.8   0.062136551   0.01304  -0.07116   0.08770   0.01675
  28   13961.6    716.3   0.060727857   0.00579  -0.03686   0.06179   0.02487
  29   36279.0    275.6   0.211867535   0.05253   0.00679  -0.22856   0.01577
  30   27414.5    364.8   0.004256335   0.00080   0.02132   0.00888   0.01625

-------------------------------------------------------------------
                             CD SPECTRUM
-------------------------------------------------------------------
State  Energy     Wavelength     R         MX        MY        MZ   
       (cm-1)       (nm)     (1e40*cgs)   (au)      (au)      (au)  
-------------------------------------------------------------------
   1   12575.3    795.2    -111.19861  -0.09361  -0.04393  -1.26758
   2   19507.9    512.6     10.88617   0.00835  -0.01069  -0.13273
   3   16636.7    601.1    -22.49827  -0.07676  -0.00004   0.28099
   4   19488.4    513.1      0.49424   0.05678  -0.01434  -0.42706
   5   24913.9    401.4    197.67139   0.25965  -0.02772  -0.59405
   6   25520.7    391.8     56.46249   0.09348  -0.07866  -0.80782
   7   15410.8    648.9    -57.64220  -0.26304  -0.01831  -0.13322
   8   16548.2    604.3    -15.64214  -0.00574   0.19000  -0.19675
   9   23950.4    417.5    -24.22064   0.09071  -0.25918  -0.80311
  10   21610.3    462.7     17.55921   0.27229  -0.38691   0.55183
  11   28731.4    348.1      3.55592  -0.05513  -0.06260   0.05458
  12   27120.4    368.7      5.62539  -0.11027   0.06077   0.56684
  13   28413.0    352.0      2.01130   0.08518  -0.00727  -0.24335
  14   29320.1    341.1     -4.47860  -0.05278   0.10688  -0.36347
  15   27041.1    369.8     43.44941   0.12024   0.05523   0.25250
  16   30088.0    332.4    -59.02196   0.09407  -0.05534  -0.39858
  17   23532.0    425.0    -39.54302  -0.10366   0.05136  -0.35700
  18   27905.3    358.4    -21.87124   0.03799  -0.02890  -0.15955
  19   26550.9    376.6     46.56242  -0.06953  -0.02428   0.32126
  20   30331.2    329.7    110.04915   0.26705   0.24476  -0.95476
  21   32180.9    310.7     19.49453  -0.32691   0.20832   0.07451
  22   27898.6    358.4    -110.18062   0.31004   0.16037   0.01867
  23   24345.2    410.8     -3.31208  -0.29106   0.22657   0.44558
  24   28299.5    353.4    120.98708  -0.11739   0.09513   0.32276
  25   24681.3    405.2    -107.14444  -0.21840  -0.03812   0.37414
  26   29046.4    344.3    -19.28421   0.16409  -0.88719   1.04019
  27   30694.7    325.8    -23.15323   0.01808   0.20540  -0.37058
  28   13961.6    716.3      6.63511  -0.04810  -0.02857  -0.12586
  29   36279.0    275.6     15.85199   0.13250   0.05229   0.19560
  30   27414.5    364.8    -10.05434   0.01659  -0.03523   0.27001

Total run time:    73150.520 sec

           *** ORCA-CIS/TD-DFT FINISHED WITHOUT ERROR ***

Maximum memory used throughout the entire CIS-calculation: 8405.2 MB

-----------------------
CIS/TD-DFT TOTAL ENERGY
-----------------------

    E(SCF)  =  -2842.011187195 Eh
    DE(CIS) =      0.057297186 Eh (Root  1)
    ----------------------------- ---------
    E(tot)  =  -2841.953890009 Eh



-------------------------------------------------------------------------------
                          DFT DISPERSION CORRECTION                            
                                                                               
                              DFTD3 V3.1  Rev 1                                
                          USING Becke-Johnson damping                          
-------------------------------------------------------------------------------
The DSD-BLYP functional is recognized
Active option DFTDOPT                   ...         4   

molecular C6(AA) [au] = 76093.223162 


            DFT-D V3
 parameters
 s6 scaling factor         :     0.5000 
 a1 scaling factor         :     0.0000 
 s8 scaling factor         :     0.2130 
 a2 scaling factor         :     6.0520 
 ad hoc parameters k1-k3   :    16.0000     1.3333    -4.0000 

 Edisp/kcal,au: -50.122588969109  -0.079875421319 
 E6   /kcal   : -39.061503876 
 E8   /kcal   : -11.061085093 
 % E8         :  22.068064162 

-------------------------   ----------------
Dispersion correction           -0.079875421
-------------------------   ----------------


-------------------------   --------------------
FINAL SINGLE POINT ENERGY     -2842.033765430648
-------------------------   --------------------


                            ***************************************
                            *     ORCA property calculations      *
                            ***************************************


  WARNING: The energy has been calculated at the MP2 level but the densities
           used in the property calculations are still SCF densities
           MP2 response densities have not been calculated 
           use %mp2 Density relaxed end
           or  %mp2 Density unrelaxed end

                                    ---------------------
                                    Active property flags
                                    ---------------------
   (+) Dipole Moment


------------------------------------------------------------------------------
                       ORCA ELECTRIC PROPERTIES CALCULATION
------------------------------------------------------------------------------

Dipole Moment Calculation                       ... on
Quadrupole Moment Calculation                   ... off
Polarizability Calculation                      ... off
GBWName                                         ... Eos_2_M06L_def2TZVP_coords.gbw
Electron density                                ... Eos_2_M06L_def2TZVP_coords.scfp
The origin for moment calculation is the CENTER OF MASS  = (-0.061193, -0.109398  0.012411)

-------------
DIPOLE MOMENT
-------------
                                X             Y             Z
Electronic contribution:    -24.89523     -44.34361       0.14080
Nuclear contribution   :     23.62029      42.22749      -4.79050
                        -----------------------------------------
Total Dipole Moment    :     -1.27494      -2.11612      -4.64970
                        -----------------------------------------
Magnitude (a.u.)       :      5.26527
Magnitude (Debye)      :     13.38326



--------------------
Rotational spectrum 
--------------------
 
Rotational constants in cm-1:     0.002278     0.000949     0.000706 
Rotational constants in MHz :    68.290480    28.462766    21.152988 

 Dipole components along the rotational axes: 
x,y,z [a.u.] :    -1.269590     2.122422    -4.648286 
x,y,z [Debye]:    -3.227040     5.394767   -11.815004 

 

Timings for individual modules:

Sum of individual times         ...    76632.114 sec (=1277.202 min)
GTO integral calculation        ...        4.669 sec (=   0.078 min)   0.0 %
SCF iterations                  ...      916.435 sec (=  15.274 min)   1.2 %
MP2 module                      ...     2559.887 sec (=  42.665 min)   3.3 %
CIS module                      ...    73151.124 sec (=1219.185 min)  95.5 %
                             ****ORCA TERMINATED NORMALLY****
TOTAL RUN TIME: 0 days 21 hours 17 minutes 21 seconds 455 msec
