 Entering Gaussian System, Link 0=g09
 Input=/home/png4rjv/fotokatalizis/benchmark/OPCs/RESTART_2/RE_RESTART/PA_3_M06L_def2TZVP.gjf
 Output=/home/png4rjv/fotokatalizis/benchmark/OPCs/RESTART_2/RE_RESTART/PA_3_M06L_def2TZVP.log
 Initial command:
 /opt/nce/packages/global/g09/l1.exe "/home/png4rjv/fotokatalizis/benchmark/OPCs/RESTART_2/RE_RESTART/PA_3_M06L_def2TZVP/Gau-61850.inp" -scrdir="/home/png4rjv/fotokatalizis/benchmark/OPCs/RESTART_2/RE_RESTART/PA_3_M06L_def2TZVP/"
 Default is to use a total of  12 processors:
                               12 via shared-memory
                                1 via Linda
 Entering Link 1 = /opt/nce/packages/global/g09/l1.exe PID=     61851.
  
 Copyright (c) 1988,1990,1992,1993,1995,1998,2003,2009,2015,
            Gaussian, Inc.  All Rights Reserved.
  
 This is part of the Gaussian(R) 09 program.  It is based on
 the Gaussian(R) 03 system (copyright 2003, Gaussian, Inc.),
 the Gaussian(R) 98 system (copyright 1998, Gaussian, Inc.),
 the Gaussian(R) 94 system (copyright 1995, Gaussian, Inc.),
 the Gaussian 92(TM) system (copyright 1992, Gaussian, Inc.),
 the Gaussian 90(TM) system (copyright 1990, Gaussian, Inc.),
 the Gaussian 88(TM) system (copyright 1988, Gaussian, Inc.),
 the Gaussian 86(TM) system (copyright 1986, Carnegie Mellon
 University), and the Gaussian 82(TM) system (copyright 1983,
 Carnegie Mellon University). Gaussian is a federally registered
 trademark of Gaussian, Inc.
  
 This software contains proprietary and confidential information,
 including trade secrets, belonging to Gaussian, Inc.
  
 This software is provided under written license and may be
 used, copied, transmitted, or stored only in accord with that
 written license.
  
 The following legend is applicable only to US Government
 contracts under FAR:
  
                    RESTRICTED RIGHTS LEGEND
  
 Use, reproduction and disclosure by the US Government is
 subject to restrictions as set forth in subparagraphs (a)
 and (c) of the Commercial Computer Software - Restricted
 Rights clause in FAR 52.227-19.
  
 Gaussian, Inc.
 340 Quinnipiac St., Bldg. 40, Wallingford CT 06492
  
  
 ---------------------------------------------------------------
 Warning -- This program may not be used in any manner that
 competes with the business of Gaussian, Inc. or will provide
 assistance to any competitor of Gaussian, Inc.  The licensee
 of this program is prohibited from giving any competitor of
 Gaussian, Inc. access to this program.  By using this program,
 the user acknowledges that Gaussian, Inc. is engaged in the
 business of creating and licensing software in the field of
 computational chemistry and represents and warrants to the
 licensee that it is not a competitor of Gaussian, Inc. and that
 it will not use this program in any manner prohibited above.
 ---------------------------------------------------------------
  

 Cite this work as:
 Gaussian 09, Revision E.01,
 M. J. Frisch, G. W. Trucks, H. B. Schlegel, G. E. Scuseria, 
 M. A. Robb, J. R. Cheeseman, G. Scalmani, V. Barone, B. Mennucci, 
 G. A. Petersson, H. Nakatsuji, M. Caricato, X. Li, H. P. Hratchian, 
 A. F. Izmaylov, J. Bloino, G. Zheng, J. L. Sonnenberg, M. Hada, 
 M. Ehara, K. Toyota, R. Fukuda, J. Hasegawa, M. Ishida, T. Nakajima, 
 Y. Honda, O. Kitao, H. Nakai, T. Vreven, J. A. Montgomery, Jr., 
 J. E. Peralta, F. Ogliaro, M. Bearpark, J. J. Heyd, E. Brothers, 
 K. N. Kudin, V. N. Staroverov, T. Keith, R. Kobayashi, J. Normand, 
 K. Raghavachari, A. Rendell, J. C. Burant, S. S. Iyengar, J. Tomasi, 
 M. Cossi, N. Rega, J. M. Millam, M. Klene, J. E. Knox, J. B. Cross, 
 V. Bakken, C. Adamo, J. Jaramillo, R. Gomperts, R. E. Stratmann, 
 O. Yazyev, A. J. Austin, R. Cammi, C. Pomelli, J. W. Ochterski, 
 R. L. Martin, K. Morokuma, V. G. Zakrzewski, G. A. Voth, 
 P. Salvador, J. J. Dannenberg, S. Dapprich, A. D. Daniels, 
 O. Farkas, J. B. Foresman, J. V. Ortiz, J. Cioslowski, 
 and D. J. Fox, Gaussian, Inc., Wallingford CT, 2013.
 
 ******************************************
 Gaussian 09:  ES64L-G09RevE.01 30-Nov-2015
                29-Nov-2021 
 ******************************************
 %chk=cp.chk
 Default route:  MaxDisk=500GB
 ----------------------------------------------------------------------
 #p m06l/def2TZVP opt=tight freq=noraman nosymm int=ultrafine scrf=(SMD
 ,solvent=n,n-DiMethylFormamide)
 ----------------------------------------------------------------------
 1/7=10,14=-1,18=20,19=15,26=4,38=1/1,3;
 2/9=110,12=2,15=1,17=6,18=5,40=1/2;
 3/5=44,7=101,11=2,16=1,25=1,30=1,70=32201,71=1,72=148,74=-53,75=-5/1,2,3;
 4//1;
 5/5=2,38=5,53=148/2;
 6/7=2,8=2,9=2,10=2,28=1/1;
 7/30=1/1,2,3,16;
 1/7=10,14=-1,18=20,19=15,26=4/3(2);
 2/9=110,15=1/2;
 99//99;
 2/9=110,15=1/2;
 3/5=44,7=101,11=2,16=1,25=1,30=1,70=32205,71=1,72=148,74=-53,75=-5/1,2,3;
 4/5=5,16=3,69=1/1;
 5/5=2,38=5,53=148/2;
 7/30=1/1,2,3,16;
 1/7=10,14=-1,18=20,19=15,26=4/3(-5);
 2/9=110,15=1/2;
 6/7=2,8=2,9=2,10=2,19=2,28=1/1;
 99/9=1/99;
 Leave Link    1 at Mon Nov 29 10:43:08 2021, MaxMem=           0 cpu:         1.8
 (Enter /opt/nce/packages/global/g09/l101.exe)
 -----
 Title
 -----
 Symbolic Z-matrix:
 Charge =  0 Multiplicity = 1
 C                     0.6844    3.64521   0.03918 
 C                     1.37674   2.43682   0.0407 
 C                     0.70499   1.22167   0.00423 
 C                    -0.70361   1.22027  -0.00589 
 C                    -1.38171   2.43274  -0.01035 
 C                    -0.69415   3.64342   0.00739 
 C                    -0.70363  -1.22035   0.00598 
 C                     0.70498  -1.22179  -0.00375 
 C                     1.37672  -2.43697  -0.03948 
 H                     2.45741  -2.44346  -0.07165 
 C                     0.68435  -3.64534  -0.03767 
 C                    -0.69421  -3.64352  -0.00629 
 C                    -1.38175  -2.43281   0.01078 
 H                     2.45743   2.44327   0.0732 
 H                    -2.46312   2.43249  -0.02459 
 H                    -1.25131   4.57097   0.00217 
 H                     1.23856  -4.57432  -0.06302 
 H                    -1.25139  -4.57105  -0.00087 
 N                     1.39095  -0.00006  -0.00002 
 C                    -2.81199  -0.00002  -0.00043 
 C                    -3.50109  -0.01733  -1.20676 
 C                    -3.50117   0.01731   1.20586 
 C                    -4.88234  -0.01754  -1.21249 
 C                    -4.88242   0.01758   1.2115 
 C                    -5.57765   0.00003  -0.00052 
 H                    -5.42852  -0.03089  -2.14568 
 H                    -5.42866   0.03095   2.14464 
 H                    -2.94713  -0.03061  -2.13651 
 H                    -2.94728   0.03058   2.13565 
 H                     1.23861   4.57417   0.06506 
 N                    -1.38638  -0.00004  -0.00041 
 C                     2.81418  -0.00002  -0.00019 
 C                     3.50598   0.29029  -1.17091 
 C                     3.50634  -0.29022   1.17034 
 C                     4.88667   0.29405  -1.17592 
 H                     2.95428   0.51552  -2.07448 
 C                     4.88704  -0.29381   1.17497 
 H                     2.95493  -0.5155    2.07408 
 C                     5.5836    0.00017  -0.00057 
 H                     5.43149   0.51684  -2.08317 
 H                     5.43214  -0.51652   2.08207 
 H                    -2.46316  -2.43254   0.02467 
 C                    -6.9978    0.00006  -0.00057 
 C                     7.00314   0.00026  -0.00078 
 N                    -8.15472   0.00009  -0.0006 
 N                     8.16029   0.00034  -0.00094 
 
 NAtoms=     46 NQM=       46 NQMF=       0 NMMI=      0 NMMIF=      0
                NMic=       0 NMicF=      0.
                    Isotopes and Nuclear Properties:
 (Nuclear quadrupole moments (NQMom) in fm**2, nuclear magnetic moments (NMagM)
  in nuclear magnetons)

  Atom         1           2           3           4           5           6           7           8           9          10
 IAtWgt=          12          12          12          12          12          12          12          12          12           1
 AtmWgt=  12.0000000  12.0000000  12.0000000  12.0000000  12.0000000  12.0000000  12.0000000  12.0000000  12.0000000   1.0078250
 NucSpn=           0           0           0           0           0           0           0           0           0           1
 AtZEff=   0.0000000   0.0000000   0.0000000   0.0000000   0.0000000   0.0000000   0.0000000   0.0000000   0.0000000   0.0000000
 NQMom=    0.0000000   0.0000000   0.0000000   0.0000000   0.0000000   0.0000000   0.0000000   0.0000000   0.0000000   0.0000000
 NMagM=    0.0000000   0.0000000   0.0000000   0.0000000   0.0000000   0.0000000   0.0000000   0.0000000   0.0000000   2.7928460
 AtZNuc=   6.0000000   6.0000000   6.0000000   6.0000000   6.0000000   6.0000000   6.0000000   6.0000000   6.0000000   1.0000000

  Atom        11          12          13          14          15          16          17          18          19          20
 IAtWgt=          12          12          12           1           1           1           1           1          14          12
 AtmWgt=  12.0000000  12.0000000  12.0000000   1.0078250   1.0078250   1.0078250   1.0078250   1.0078250  14.0030740  12.0000000
 NucSpn=           0           0           0           1           1           1           1           1           2           0
 AtZEff=   0.0000000   0.0000000   0.0000000   0.0000000   0.0000000   0.0000000   0.0000000   0.0000000   0.0000000   0.0000000
 NQMom=    0.0000000   0.0000000   0.0000000   0.0000000   0.0000000   0.0000000   0.0000000   0.0000000   2.0440000   0.0000000
 NMagM=    0.0000000   0.0000000   0.0000000   2.7928460   2.7928460   2.7928460   2.7928460   2.7928460   0.4037610   0.0000000
 AtZNuc=   6.0000000   6.0000000   6.0000000   1.0000000   1.0000000   1.0000000   1.0000000   1.0000000   7.0000000   6.0000000

  Atom        21          22          23          24          25          26          27          28          29          30
 IAtWgt=          12          12          12          12          12           1           1           1           1           1
 AtmWgt=  12.0000000  12.0000000  12.0000000  12.0000000  12.0000000   1.0078250   1.0078250   1.0078250   1.0078250   1.0078250
 NucSpn=           0           0           0           0           0           1           1           1           1           1
 AtZEff=   0.0000000   0.0000000   0.0000000   0.0000000   0.0000000   0.0000000   0.0000000   0.0000000   0.0000000   0.0000000
 NQMom=    0.0000000   0.0000000   0.0000000   0.0000000   0.0000000   0.0000000   0.0000000   0.0000000   0.0000000   0.0000000
 NMagM=    0.0000000   0.0000000   0.0000000   0.0000000   0.0000000   2.7928460   2.7928460   2.7928460   2.7928460   2.7928460
 AtZNuc=   6.0000000   6.0000000   6.0000000   6.0000000   6.0000000   1.0000000   1.0000000   1.0000000   1.0000000   1.0000000

  Atom        31          32          33          34          35          36          37          38          39          40
 IAtWgt=          14          12          12          12          12           1          12           1          12           1
 AtmWgt=  14.0030740  12.0000000  12.0000000  12.0000000  12.0000000   1.0078250  12.0000000   1.0078250  12.0000000   1.0078250
 NucSpn=           2           0           0           0           0           1           0           1           0           1
 AtZEff=   0.0000000   0.0000000   0.0000000   0.0000000   0.0000000   0.0000000   0.0000000   0.0000000   0.0000000   0.0000000
 NQMom=    2.0440000   0.0000000   0.0000000   0.0000000   0.0000000   0.0000000   0.0000000   0.0000000   0.0000000   0.0000000
 NMagM=    0.4037610   0.0000000   0.0000000   0.0000000   0.0000000   2.7928460   0.0000000   2.7928460   0.0000000   2.7928460
 AtZNuc=   7.0000000   6.0000000   6.0000000   6.0000000   6.0000000   1.0000000   6.0000000   1.0000000   6.0000000   1.0000000

  Atom        41          42          43          44          45          46
 IAtWgt=           1           1          12          12          14          14
 AtmWgt=   1.0078250   1.0078250  12.0000000  12.0000000  14.0030740  14.0030740
 NucSpn=           1           1           0           0           2           2
 AtZEff=   0.0000000   0.0000000   0.0000000   0.0000000   0.0000000   0.0000000
 NQMom=    0.0000000   0.0000000   0.0000000   0.0000000   2.0440000   2.0440000
 NMagM=    2.7928460   2.7928460   0.0000000   0.0000000   0.4037610   0.4037610
 AtZNuc=   1.0000000   1.0000000   6.0000000   6.0000000   7.0000000   7.0000000
 Leave Link  101 at Mon Nov 29 10:43:09 2021, MaxMem=  5242880000 cpu:         7.5
 (Enter /opt/nce/packages/global/g09/l103.exe)

 GradGradGradGradGradGradGradGradGradGradGradGradGradGradGradGradGradGrad
 Berny optimization.
 Initialization pass.
                           ----------------------------
                           !    Initial Parameters    !
                           ! (Angstroms and Degrees)  !
 --------------------------                            --------------------------
 ! Name  Definition              Value          Derivative Info.                !
 --------------------------------------------------------------------------------
 ! R1    R(1,2)                  1.3927         estimate D2E/DX2                !
 ! R2    R(1,6)                  1.3789         estimate D2E/DX2                !
 ! R3    R(1,30)                 1.082          estimate D2E/DX2                !
 ! R4    R(2,3)                  1.3889         estimate D2E/DX2                !
 ! R5    R(2,14)                 1.0812         estimate D2E/DX2                !
 ! R6    R(3,4)                  1.4086         estimate D2E/DX2                !
 ! R7    R(3,19)                 1.4011         estimate D2E/DX2                !
 ! R8    R(4,5)                  1.3892         estimate D2E/DX2                !
 ! R9    R(4,31)                 1.3983         estimate D2E/DX2                !
 ! R10   R(5,6)                  1.3924         estimate D2E/DX2                !
 ! R11   R(5,15)                 1.0815         estimate D2E/DX2                !
 ! R12   R(6,16)                 1.082          estimate D2E/DX2                !
 ! R13   R(7,8)                  1.4086         estimate D2E/DX2                !
 ! R14   R(7,13)                 1.3892         estimate D2E/DX2                !
 ! R15   R(7,31)                 1.3983         estimate D2E/DX2                !
 ! R16   R(8,9)                  1.3889         estimate D2E/DX2                !
 ! R17   R(8,19)                 1.4011         estimate D2E/DX2                !
 ! R18   R(9,10)                 1.0812         estimate D2E/DX2                !
 ! R19   R(9,11)                 1.3927         estimate D2E/DX2                !
 ! R20   R(11,12)                1.3789         estimate D2E/DX2                !
 ! R21   R(11,17)                1.082          estimate D2E/DX2                !
 ! R22   R(12,13)                1.3924         estimate D2E/DX2                !
 ! R23   R(12,18)                1.082          estimate D2E/DX2                !
 ! R24   R(13,42)                1.0815         estimate D2E/DX2                !
 ! R25   R(19,32)                1.4232         estimate D2E/DX2                !
 ! R26   R(20,21)                1.3894         estimate D2E/DX2                !
 ! R27   R(20,22)                1.3894         estimate D2E/DX2                !
 ! R28   R(20,31)                1.4256         estimate D2E/DX2                !
 ! R29   R(21,23)                1.3813         estimate D2E/DX2                !
 ! R30   R(21,28)                1.0824         estimate D2E/DX2                !
 ! R31   R(22,24)                1.3813         estimate D2E/DX2                !
 ! R32   R(22,29)                1.0824         estimate D2E/DX2                !
 ! R33   R(23,25)                1.3974         estimate D2E/DX2                !
 ! R34   R(23,26)                1.0813         estimate D2E/DX2                !
 ! R35   R(24,25)                1.3974         estimate D2E/DX2                !
 ! R36   R(24,27)                1.0813         estimate D2E/DX2                !
 ! R37   R(25,43)                1.4201         estimate D2E/DX2                !
 ! R38   R(32,33)                1.3905         estimate D2E/DX2                !
 ! R39   R(32,34)                1.3905         estimate D2E/DX2                !
 ! R40   R(33,35)                1.3807         estimate D2E/DX2                !
 ! R41   R(33,36)                1.0824         estimate D2E/DX2                !
 ! R42   R(34,37)                1.3807         estimate D2E/DX2                !
 ! R43   R(34,38)                1.0824         estimate D2E/DX2                !
 ! R44   R(35,39)                1.3977         estimate D2E/DX2                !
 ! R45   R(35,40)                1.0815         estimate D2E/DX2                !
 ! R46   R(37,39)                1.3977         estimate D2E/DX2                !
 ! R47   R(37,41)                1.0815         estimate D2E/DX2                !
 ! R48   R(39,44)                1.4195         estimate D2E/DX2                !
 ! R49   R(43,45)                1.1569         estimate D2E/DX2                !
 ! R50   R(44,46)                1.1571         estimate D2E/DX2                !
 ! A1    A(2,1,6)              119.7291         estimate D2E/DX2                !
 ! A2    A(2,1,30)             119.3584         estimate D2E/DX2                !
 ! A3    A(6,1,30)             120.9124         estimate D2E/DX2                !
 ! A4    A(1,2,3)              121.241          estimate D2E/DX2                !
 ! A5    A(1,2,14)             119.4558         estimate D2E/DX2                !
 ! A6    A(3,2,14)             119.303          estimate D2E/DX2                !
 ! A7    A(2,3,4)              118.9924         estimate D2E/DX2                !
 ! A8    A(2,3,19)             121.7455         estimate D2E/DX2                !
 ! A9    A(4,3,19)             119.2533         estimate D2E/DX2                !
 ! A10   A(3,4,5)              119.1603         estimate D2E/DX2                !
 ! A11   A(3,4,31)             119.2816         estimate D2E/DX2                !
 ! A12   A(5,4,31)             121.5562         estimate D2E/DX2                !
 ! A13   A(4,5,6)              121.1846         estimate D2E/DX2                !
 ! A14   A(4,5,15)             119.2036         estimate D2E/DX2                !
 ! A15   A(6,5,15)             119.6115         estimate D2E/DX2                !
 ! A16   A(1,6,5)              119.6751         estimate D2E/DX2                !
 ! A17   A(1,6,16)             120.916          estimate D2E/DX2                !
 ! A18   A(5,6,16)             119.4078         estimate D2E/DX2                !
 ! A19   A(8,7,13)             119.1602         estimate D2E/DX2                !
 ! A20   A(8,7,31)             119.282          estimate D2E/DX2                !
 ! A21   A(13,7,31)            121.5557         estimate D2E/DX2                !
 ! A22   A(7,8,9)              118.9922         estimate D2E/DX2                !
 ! A23   A(7,8,19)             119.2527         estimate D2E/DX2                !
 ! A24   A(9,8,19)             121.7462         estimate D2E/DX2                !
 ! A25   A(8,9,10)             119.3034         estimate D2E/DX2                !
 ! A26   A(8,9,11)             121.2412         estimate D2E/DX2                !
 ! A27   A(10,9,11)            119.4553         estimate D2E/DX2                !
 ! A28   A(9,11,12)            119.7293         estimate D2E/DX2                !
 ! A29   A(9,11,17)            119.3581         estimate D2E/DX2                !
 ! A30   A(12,11,17)           120.9125         estimate D2E/DX2                !
 ! A31   A(11,12,13)           119.6749         estimate D2E/DX2                !
 ! A32   A(11,12,18)           120.9161         estimate D2E/DX2                !
 ! A33   A(13,12,18)           119.4079         estimate D2E/DX2                !
 ! A34   A(7,13,12)            121.1847         estimate D2E/DX2                !
 ! A35   A(7,13,42)            119.2036         estimate D2E/DX2                !
 ! A36   A(12,13,42)           119.6114         estimate D2E/DX2                !
 ! A37   A(3,19,8)             121.3743         estimate D2E/DX2                !
 ! A38   A(3,19,32)            119.3111         estimate D2E/DX2                !
 ! A39   A(8,19,32)            119.3146         estimate D2E/DX2                !
 ! A40   A(21,20,22)           120.5278         estimate D2E/DX2                !
 ! A41   A(21,20,31)           119.7352         estimate D2E/DX2                !
 ! A42   A(22,20,31)           119.737          estimate D2E/DX2                !
 ! A43   A(20,21,23)           119.972          estimate D2E/DX2                !
 ! A44   A(20,21,28)           119.4812         estimate D2E/DX2                !
 ! A45   A(23,21,28)           120.5468         estimate D2E/DX2                !
 ! A46   A(20,22,24)           119.972          estimate D2E/DX2                !
 ! A47   A(20,22,29)           119.4815         estimate D2E/DX2                !
 ! A48   A(24,22,29)           120.5465         estimate D2E/DX2                !
 ! A49   A(21,23,25)           119.6027         estimate D2E/DX2                !
 ! A50   A(21,23,26)           120.5749         estimate D2E/DX2                !
 ! A51   A(25,23,26)           119.8224         estimate D2E/DX2                !
 ! A52   A(22,24,25)           119.6027         estimate D2E/DX2                !
 ! A53   A(22,24,27)           120.575          estimate D2E/DX2                !
 ! A54   A(25,24,27)           119.8223         estimate D2E/DX2                !
 ! A55   A(23,25,24)           120.3228         estimate D2E/DX2                !
 ! A56   A(23,25,43)           119.8387         estimate D2E/DX2                !
 ! A57   A(24,25,43)           119.8386         estimate D2E/DX2                !
 ! A58   A(4,31,7)             121.5465         estimate D2E/DX2                !
 ! A59   A(4,31,20)            119.2264         estimate D2E/DX2                !
 ! A60   A(7,31,20)            119.2271         estimate D2E/DX2                !
 ! A61   A(19,32,33)           119.8432         estimate D2E/DX2                !
 ! A62   A(19,32,34)           119.8467         estimate D2E/DX2                !
 ! A63   A(33,32,34)           120.3101         estimate D2E/DX2                !
 ! A64   A(32,33,35)           120.0758         estimate D2E/DX2                !
 ! A65   A(32,33,36)           119.5191         estimate D2E/DX2                !
 ! A66   A(35,33,36)           120.4048         estimate D2E/DX2                !
 ! A67   A(32,34,37)           120.0757         estimate D2E/DX2                !
 ! A68   A(32,34,38)           119.5194         estimate D2E/DX2                !
 ! A69   A(37,34,38)           120.4046         estimate D2E/DX2                !
 ! A70   A(33,35,39)           119.6697         estimate D2E/DX2                !
 ! A71   A(33,35,40)           120.4897         estimate D2E/DX2                !
 ! A72   A(39,35,40)           119.8396         estimate D2E/DX2                !
 ! A73   A(34,37,39)           119.6697         estimate D2E/DX2                !
 ! A74   A(34,37,41)           120.4896         estimate D2E/DX2                !
 ! A75   A(39,37,41)           119.8397         estimate D2E/DX2                !
 ! A76   A(35,39,37)           120.1984         estimate D2E/DX2                !
 ! A77   A(35,39,44)           119.9006         estimate D2E/DX2                !
 ! A78   A(37,39,44)           119.901          estimate D2E/DX2                !
 ! A79   L(25,43,45,27,-1)     179.9996         estimate D2E/DX2                !
 ! A80   L(39,44,46,40,-1)     180.0003         estimate D2E/DX2                !
 ! A81   L(25,43,45,27,-2)     180.0            estimate D2E/DX2                !
 ! A82   L(39,44,46,40,-2)     180.0            estimate D2E/DX2                !
 ! D1    D(6,1,2,3)              0.3128         estimate D2E/DX2                !
 ! D2    D(6,1,2,14)          -179.5428         estimate D2E/DX2                !
 ! D3    D(30,1,2,3)          -179.8093         estimate D2E/DX2                !
 ! D4    D(30,1,2,14)            0.3351         estimate D2E/DX2                !
 ! D5    D(2,1,6,5)              0.5948         estimate D2E/DX2                !
 ! D6    D(2,1,6,16)          -179.786          estimate D2E/DX2                !
 ! D7    D(30,1,6,5)          -179.2812         estimate D2E/DX2                !
 ! D8    D(30,1,6,16)            0.338          estimate D2E/DX2                !
 ! D9    D(1,2,3,4)             -1.3502         estimate D2E/DX2                !
 ! D10   D(1,2,3,19)           179.7407         estimate D2E/DX2                !
 ! D11   D(14,2,3,4)           178.5057         estimate D2E/DX2                !
 ! D12   D(14,2,3,19)           -0.4035         estimate D2E/DX2                !
 ! D13   D(2,3,4,5)              1.4739         estimate D2E/DX2                !
 ! D14   D(2,3,4,31)          -178.0195         estimate D2E/DX2                !
 ! D15   D(19,3,4,5)          -179.5893         estimate D2E/DX2                !
 ! D16   D(19,3,4,31)            0.9172         estimate D2E/DX2                !
 ! D17   D(2,3,19,8)           178.4102         estimate D2E/DX2                !
 ! D18   D(2,3,19,32)           -1.5724         estimate D2E/DX2                !
 ! D19   D(4,3,19,8)            -0.4962         estimate D2E/DX2                !
 ! D20   D(4,3,19,32)          179.5212         estimate D2E/DX2                !
 ! D21   D(3,4,5,6)             -0.5965         estimate D2E/DX2                !
 ! D22   D(3,4,5,15)           179.6064         estimate D2E/DX2                !
 ! D23   D(31,4,5,6)           178.885          estimate D2E/DX2                !
 ! D24   D(31,4,5,15)           -0.9121         estimate D2E/DX2                !
 ! D25   D(3,4,31,7)            -0.428          estimate D2E/DX2                !
 ! D26   D(3,4,31,20)          179.5293         estimate D2E/DX2                !
 ! D27   D(5,4,31,7)          -179.9089         estimate D2E/DX2                !
 ! D28   D(5,4,31,20)            0.0485         estimate D2E/DX2                !
 ! D29   D(4,5,6,1)             -0.4473         estimate D2E/DX2                !
 ! D30   D(4,5,6,16)           179.9277         estimate D2E/DX2                !
 ! D31   D(15,5,6,1)           179.349          estimate D2E/DX2                !
 ! D32   D(15,5,6,16)           -0.276          estimate D2E/DX2                !
 ! D33   D(13,7,8,9)             1.4721         estimate D2E/DX2                !
 ! D34   D(13,7,8,19)         -179.598          estimate D2E/DX2                !
 ! D35   D(31,7,8,9)          -178.0121         estimate D2E/DX2                !
 ! D36   D(31,7,8,19)            0.9178         estimate D2E/DX2                !
 ! D37   D(8,7,13,12)           -0.5983         estimate D2E/DX2                !
 ! D38   D(8,7,13,42)          179.6097         estimate D2E/DX2                !
 ! D39   D(31,7,13,12)         178.8738         estimate D2E/DX2                !
 ! D40   D(31,7,13,42)          -0.9183         estimate D2E/DX2                !
 ! D41   D(8,7,31,4)            -0.4975         estimate D2E/DX2                !
 ! D42   D(8,7,31,20)          179.5451         estimate D2E/DX2                !
 ! D43   D(13,7,31,4)         -179.9689         estimate D2E/DX2                !
 ! D44   D(13,7,31,20)           0.0737         estimate D2E/DX2                !
 ! D45   D(7,8,9,10)           178.5066         estimate D2E/DX2                !
 ! D46   D(7,8,9,11)            -1.346          estimate D2E/DX2                !
 ! D47   D(19,8,9,10)           -0.3956         estimate D2E/DX2                !
 ! D48   D(19,8,9,11)          179.7518         estimate D2E/DX2                !
 ! D49   D(7,8,19,3)            -0.428          estimate D2E/DX2                !
 ! D50   D(7,8,19,32)          179.5546         estimate D2E/DX2                !
 ! D51   D(9,8,19,3)           178.4714         estimate D2E/DX2                !
 ! D52   D(9,8,19,32)           -1.546          estimate D2E/DX2                !
 ! D53   D(8,9,11,12)            0.3099         estimate D2E/DX2                !
 ! D54   D(8,9,11,17)         -179.8128         estimate D2E/DX2                !
 ! D55   D(10,9,11,12)        -179.5424         estimate D2E/DX2                !
 ! D56   D(10,9,11,17)           0.3349         estimate D2E/DX2                !
 ! D57   D(9,11,12,13)           0.594          estimate D2E/DX2                !
 ! D58   D(9,11,12,18)        -179.787          estimate D2E/DX2                !
 ! D59   D(17,11,12,13)       -179.2814         estimate D2E/DX2                !
 ! D60   D(17,11,12,18)          0.3376         estimate D2E/DX2                !
 ! D61   D(11,12,13,7)          -0.4442         estimate D2E/DX2                !
 ! D62   D(11,12,13,42)        179.347          estimate D2E/DX2                !
 ! D63   D(18,12,13,7)         179.9309         estimate D2E/DX2                !
 ! D64   D(18,12,13,42)         -0.2778         estimate D2E/DX2                !
 ! D65   D(3,19,32,33)         -76.2685         estimate D2E/DX2                !
 ! D66   D(3,19,32,34)         103.7288         estimate D2E/DX2                !
 ! D67   D(8,19,32,33)         103.7485         estimate D2E/DX2                !
 ! D68   D(8,19,32,34)         -76.2542         estimate D2E/DX2                !
 ! D69   D(22,20,21,23)         -0.0077         estimate D2E/DX2                !
 ! D70   D(22,20,21,28)        179.9951         estimate D2E/DX2                !
 ! D71   D(31,20,21,23)        179.9929         estimate D2E/DX2                !
 ! D72   D(31,20,21,28)         -0.0043         estimate D2E/DX2                !
 ! D73   D(21,20,22,24)         -0.0075         estimate D2E/DX2                !
 ! D74   D(21,20,22,29)        179.9954         estimate D2E/DX2                !
 ! D75   D(31,20,22,24)        179.9919         estimate D2E/DX2                !
 ! D76   D(31,20,22,29)         -0.0053         estimate D2E/DX2                !
 ! D77   D(21,20,31,4)          90.5647         estimate D2E/DX2                !
 ! D78   D(21,20,31,7)         -89.477          estimate D2E/DX2                !
 ! D79   D(22,20,31,4)         -89.4347         estimate D2E/DX2                !
 ! D80   D(22,20,31,7)          90.5237         estimate D2E/DX2                !
 ! D81   D(20,21,23,25)          0.0151         estimate D2E/DX2                !
 ! D82   D(20,21,23,26)        179.9976         estimate D2E/DX2                !
 ! D83   D(28,21,23,25)       -179.9877         estimate D2E/DX2                !
 ! D84   D(28,21,23,26)         -0.0052         estimate D2E/DX2                !
 ! D85   D(20,22,24,25)          0.0149         estimate D2E/DX2                !
 ! D86   D(20,22,24,27)        179.9976         estimate D2E/DX2                !
 ! D87   D(29,22,24,25)       -179.988          estimate D2E/DX2                !
 ! D88   D(29,22,24,27)         -0.0053         estimate D2E/DX2                !
 ! D89   D(21,23,25,24)         -0.0076         estimate D2E/DX2                !
 ! D90   D(21,23,25,43)        179.9923         estimate D2E/DX2                !
 ! D91   D(26,23,25,24)       -179.9902         estimate D2E/DX2                !
 ! D92   D(26,23,25,43)          0.0098         estimate D2E/DX2                !
 ! D93   D(22,24,25,23)         -0.0075         estimate D2E/DX2                !
 ! D94   D(22,24,25,43)        179.9926         estimate D2E/DX2                !
 ! D95   D(27,24,25,23)       -179.9903         estimate D2E/DX2                !
 ! D96   D(27,24,25,43)          0.0098         estimate D2E/DX2                !
 ! D97   D(19,32,33,35)        179.8825         estimate D2E/DX2                !
 ! D98   D(19,32,33,36)          0.069          estimate D2E/DX2                !
 ! D99   D(34,32,33,35)         -0.1148         estimate D2E/DX2                !
 ! D100  D(34,32,33,36)       -179.9284         estimate D2E/DX2                !
 ! D101  D(19,32,34,37)        179.8865         estimate D2E/DX2                !
 ! D102  D(19,32,34,38)          0.0723         estimate D2E/DX2                !
 ! D103  D(33,32,34,37)         -0.1161         estimate D2E/DX2                !
 ! D104  D(33,32,34,38)       -179.9304         estimate D2E/DX2                !
 ! D105  D(32,33,35,39)          0.2281         estimate D2E/DX2                !
 ! D106  D(32,33,35,40)        179.8684         estimate D2E/DX2                !
 ! D107  D(36,33,35,39)       -179.9601         estimate D2E/DX2                !
 ! D108  D(36,33,35,40)         -0.3198         estimate D2E/DX2                !
 ! D109  D(32,34,37,39)          0.2288         estimate D2E/DX2                !
 ! D110  D(32,34,37,41)        179.8687         estimate D2E/DX2                !
 ! D111  D(38,34,37,39)       -179.9586         estimate D2E/DX2                !
 ! D112  D(38,34,37,41)         -0.3188         estimate D2E/DX2                !
 ! D113  D(33,35,39,37)         -0.1145         estimate D2E/DX2                !
 ! D114  D(33,35,39,44)        179.8855         estimate D2E/DX2                !
 ! D115  D(40,35,39,37)       -179.7571         estimate D2E/DX2                !
 ! D116  D(40,35,39,44)          0.2429         estimate D2E/DX2                !
 ! D117  D(34,37,39,35)         -0.1145         estimate D2E/DX2                !
 ! D118  D(34,37,39,44)        179.8855         estimate D2E/DX2                !
 ! D119  D(41,37,39,35)       -179.7568         estimate D2E/DX2                !
 ! D120  D(41,37,39,44)          0.2433         estimate D2E/DX2                !
 --------------------------------------------------------------------------------
 Trust Radius=3.00D-01 FncErr=1.00D-07 GrdErr=1.00D-06
 Number of steps in this run=    262 maximum allowed number of steps=    276.
 GradGradGradGradGradGradGradGradGradGradGradGradGradGradGradGradGradGrad

 Leave Link  103 at Mon Nov 29 10:43:09 2021, MaxMem=  5242880000 cpu:         0.5
 (Enter /opt/nce/packages/global/g09/l202.exe)
                          Input orientation:                          
 ---------------------------------------------------------------------
 Center     Atomic      Atomic             Coordinates (Angstroms)
 Number     Number       Type             X           Y           Z
 ---------------------------------------------------------------------
      1          6           0        0.684400    3.645209    0.039181
      2          6           0        1.376743    2.436819    0.040702
      3          6           0        0.704987    1.221672    0.004225
      4          6           0       -0.703614    1.220267   -0.005885
      5          6           0       -1.381712    2.432741   -0.010347
      6          6           0       -0.694151    3.643422    0.007394
      7          6           0       -0.703626   -1.220352    0.005977
      8          6           0        0.704980   -1.221788   -0.003746
      9          6           0        1.376719   -2.436965   -0.039475
     10          1           0        2.457409   -2.443463   -0.071654
     11          6           0        0.684351   -3.645339   -0.037670
     12          6           0       -0.694208   -3.643515   -0.006290
     13          6           0       -1.381748   -2.432813    0.010776
     14          1           0        2.457425    2.443272    0.073195
     15          1           0       -2.463118    2.432494   -0.024594
     16          1           0       -1.251311    4.570973    0.002166
     17          1           0        1.238558   -4.574315   -0.063017
     18          1           0       -1.251388   -4.571054   -0.000867
     19          7           0        1.390951   -0.000060   -0.000022
     20          6           0       -2.811986   -0.000023   -0.000433
     21          6           0       -3.501091   -0.017330   -1.206762
     22          6           0       -3.501173    0.017313    1.205858
     23          6           0       -4.882341   -0.017544   -1.212492
     24          6           0       -4.882419    0.017580    1.211497
     25          6           0       -5.577654    0.000032   -0.000523
     26          1           0       -5.428516   -0.030894   -2.145675
     27          1           0       -5.428657    0.030954    2.144643
     28          1           0       -2.947132   -0.030611   -2.136512
     29          1           0       -2.947278    0.030576    2.135648
     30          1           0        1.238614    4.574166    0.065057
     31          7           0       -1.386384   -0.000039   -0.000409
     32          6           0        2.814179   -0.000020   -0.000188
     33          6           0        3.505978    0.290286   -1.170908
     34          6           0        3.506343   -0.290223    1.170344
     35          6           0        4.886672    0.294053   -1.175922
     36          1           0        2.954280    0.515515   -2.074477
     37          6           0        4.887041   -0.293809    1.174971
     38          1           0        2.954931   -0.515503    2.074075
     39          6           0        5.583603    0.000168   -0.000573
     40          1           0        5.431491    0.516836   -2.083170
     41          1           0        5.432142   -0.516515    2.082068
     42          1           0       -2.463158   -2.432539    0.024672
     43          6           0       -6.997801    0.000062   -0.000569
     44          6           0        7.003137    0.000262   -0.000777
     45          7           0       -8.154723    0.000087   -0.000599
     46          7           0        8.160286    0.000337   -0.000938
 ---------------------------------------------------------------------
                    Distance matrix (angstroms):
                    1          2          3          4          5
     1  C    0.000000
     2  C    1.392676   0.000000
     3  C    2.423877   1.388945   0.000000
     4  C    2.794451   2.410405   1.408638   0.000000
     5  C    2.396112   2.758930   2.412719   1.389219   0.000000
     6  C    1.378919   2.396999   2.796868   2.423210   1.392409
     7  C    5.059783   4.207617   2.819162   2.440648   3.715529
     8  C    4.867230   3.720033   2.443473   2.819180   4.208314
     9  C    6.121955   4.874443   3.720048   4.207643   5.596769
    10  H    6.342537   4.999762   4.063244   4.839350   6.206446
    11  C    7.290953   6.121944   4.867235   5.059800   6.419690
    12  C    7.418094   6.423512   5.062401   4.863791   6.115028
    13  C    6.419667   5.596739   4.208297   3.715526   4.865600
    14  H    2.142295   1.081190   2.137312   3.390304   3.840060
    15  H    3.373665   3.840419   3.391727   2.136750   1.081500
    16  H    2.146016   3.385671   3.878779   3.395183   2.142241
    17  H    8.238817   7.013263   5.820884   6.111667   7.481138
    18  H    8.441318   7.484590   6.114172   5.817171   7.005014
    19  N    3.713319   2.437261   1.401140   2.424136   3.688670
    20  C    5.051139   4.846168   3.723125   2.436056   2.822078
    21  C    5.699553   5.601096   4.548924   3.286279   3.453408
    22  C    5.660546   5.568273   4.537200   3.277462   3.435922
    23  C    6.780195   6.838898   5.851008   4.522149   4.438857
    24  C    6.747110   6.811798   5.841785   4.515627   4.425026
    25  C    7.245841   7.369075   6.400313   5.024467   4.850165
    26  H    7.460233   7.561839   6.618977   5.335617   5.196705
    27  H    7.407110   7.518525   6.604603   5.325905   5.175937
    28  H    5.606542   5.433633   4.414628   3.337310   3.610986
    29  H    5.536229   5.373636   4.393258   3.321981   3.581437
    30  H    1.082028   2.141944   3.395243   3.876328   3.384892
    31  N    4.192558   3.684405   2.422072   1.398339   2.432805
    32  C    4.221990   2.829501   2.437466   3.723439   4.850147
    33  C    4.547651   3.257184   3.177101   4.465737   5.461367
    34  C    4.972979   3.639786   3.390170   4.624806   5.718535
    35  C    5.510518   4.288499   4.442940   5.786031   6.724968
    36  H    4.406233   3.264049   3.143084   4.260978   5.170804
    37  C    5.870952   4.589672   4.599664   5.911199   6.938034
    38  H    5.158258   3.916821   3.516291   4.552371   5.642998
    39  C    6.106562   4.861753   5.029214   6.404511   7.377880
    40  H    6.068440   4.963683   5.214772   6.515324   7.374756
    41  H    6.635841   5.416237   5.448369   6.709952   7.713943
    42  H    6.844440   6.201270   4.836406   4.054617   4.984145
    43  C    8.503228   8.721954   7.799057   6.411374   6.120333
    44  C    7.294770   6.131463   6.415494   7.802721   8.730563
    45  N    9.561307   9.838100   8.943531   7.550357   7.196637
    46  N    8.317185   7.207956   7.554679   8.947456   9.847152
                    6          7          8          9         10
     6  C    0.000000
     7  C    4.863783   0.000000
     8  C    5.062407   1.408640   0.000000
     9  C    6.423535   2.410404   1.388944   0.000000
    10  H    6.854834   3.390305   2.137313   1.081189   0.000000
    11  C    7.418109   2.794449   2.423876   1.392675   2.142287
    12  C    7.286950   2.423212   2.796872   2.396999   3.372994
    13  C    6.115017   1.389221   2.412722   2.758928   3.840057
    14  H    3.372999   4.839308   4.063207   4.999733   4.888881
    15  H    2.143972   4.054631   4.836430   6.201306   6.927392
    16  H    1.082038   5.817166   6.114179   7.484616   7.934883
    17  H    8.442246   3.876326   3.395240   2.141940   2.454833
    18  H    8.233359   3.395187   3.878784   3.385672   4.276310
    19  N    4.197936   2.424129   1.401139   2.437266   2.666961
    20  C    4.214259   2.436068   3.723140   4.846180   5.808786
    21  C    4.770135   3.277775   4.537510   5.568682   6.532864
    22  C    4.739658   3.286000   4.548652   5.600729   6.572074
    23  C    5.694886   4.515869   5.842040   6.812151   7.813995
    24  C    5.669055   4.521954   5.850801   6.838606   7.847056
    25  C    6.092861   5.024493   6.400339   7.369110   8.398688
    26  H    6.367929   5.326256   6.604988   7.519074   8.503521
    27  H    6.327188   5.335314   6.618643   7.561358   8.557146
    28  H    4.813603   3.322508   4.393804   5.374364   6.268537
    29  H    4.760116   3.336809   4.414115   5.432943   6.340638
    30  H    2.145971   6.111647   5.820875   7.013270   7.123992
    31  N    3.708646   1.398343   2.422083   3.684409   4.555232
    32  C    5.057975   3.723466   2.437509   2.829582   2.470386
    33  C    5.502091   4.624700   3.390313   3.640300   3.127497
    34  C    5.871130   4.465952   3.177095   3.256910   2.698011
    35  C    6.615444   5.911154   4.599817   4.590179   3.822920
    36  H    5.237274   4.552120   3.516461   3.917534   3.607455
    37  C    6.929266   5.786241   4.442989   4.288398   3.475370
    38  H    5.906236   4.261324   3.143001   3.263413   2.927236
    39  C    7.258344   6.404605   5.029329   4.861996   3.968561
    40  H    7.188149   6.709845   5.448552   5.416900   4.653464
    41  H    7.690306   6.515611   5.214795   4.963419   4.147371
    42  H    6.328269   2.136750   3.391729   3.840415   4.921522
    43  C    7.280806   6.411403   7.799087   8.721995   9.766108
    44  C    8.515922   7.802829   6.415621   6.131733   5.161440
    45  N    8.302656   7.550388   8.943563   9.838146  10.890057
    46  N    9.574612   8.947573   7.554812   7.208239   6.204834
                   11         12         13         14         15
    11  C    0.000000
    12  C    1.378917   0.000000
    13  C    2.396108   1.392409   0.000000
    14  H    6.342497   6.854786   6.206396   0.000000
    15  H    6.844471   6.328291   4.984157   4.921526   0.000000
    16  H    8.441336   8.233362   7.005006   4.276316   2.458106
    17  H    1.082028   2.145971   3.384890   7.123954   7.924598
    18  H    2.146017   1.082039   2.142243   7.934831   7.107639
    19  N    3.713322   4.197939   3.688667   2.666946   4.557606
    20  C    5.051147   4.214268   2.822087   5.808770   2.457526
    21  C    5.661020   4.740142   3.436360   6.572425   2.911451
    22  C    5.699122   4.769698   3.453013   6.532465   2.902528
    23  C    6.747530   5.669484   4.425388   7.847342   3.642311
    24  C    6.779847   5.694535   4.438564   7.813643   3.634934
    25  C    7.245883   6.092907   4.850205   8.398652   3.951934
    26  H    7.407769   6.327849   5.176469   8.557625   4.400097
    27  H    7.459657   6.367358   5.196249   8.502968   4.389465
    28  H    5.537063   4.760944   3.582157   6.341304   3.280450
    29  H    5.605746   4.812813   3.610298   6.267825   3.266537
    30  H    8.238812   8.442226   7.481109   2.454847   4.277571
    31  N    4.192558   3.708647   2.432804   4.555223   2.660293
    32  C    4.222076   5.058050   4.850196   2.470290   5.810988
    33  C    4.973425   5.871345   5.718523   2.698630   6.444626
    34  C    4.547498   5.502151   5.461568   3.126653   6.668998
    35  C    5.871450   6.929553   6.938093   3.475727   7.740665
    36  H    5.158863   5.906470   5.642877   2.928414   6.101232
    37  C    5.510522   6.615606   6.725207   3.822114   7.930733
    38  H    4.405777   5.237231   5.171080   3.606298   6.515394
    39  C    6.106862   7.258607   7.378051   3.968273   8.406337
    40  H    6.636498   7.690653   7.713966   4.148028   8.380473
    41  H    6.068307   7.188291   7.375062   4.652403   8.687336
    42  H    3.373660   2.143970   1.081499   6.927339   4.865282
    43  C    8.503281   7.280863   6.120381   9.766064   5.145936
    44  C    7.295123   8.516235   8.730767   5.161130   9.773756
    45  N    9.561367   8.302720   7.196688  10.890008   6.189632
    46  N    8.317566   9.574954   9.847374   6.204519  10.898287
                   16         17         18         19         20
    16  H    0.000000
    17  H    9.478396   0.000000
    18  H    9.142028   2.490724   0.000000
    19  N    5.279763   4.577226   5.279767   0.000000
    20  C    4.830085   6.110235   4.830092   4.202937   0.000000
    21  C    5.251242   6.673720   5.220321   5.038710   1.389387
    22  C    5.219825   6.719981   5.250793   5.038584   1.389395
    23  C    5.976141   7.716920   5.948639   6.389412   2.399117
    24  C    5.948177   7.757335   5.975766   6.389308   2.399120
    25  C    6.293707   8.209099   6.293759   6.968605   2.765668
    26  H    6.575670   8.332467   6.531589   7.149119   3.383673
    27  H    6.530865   8.398453   6.575049   7.148958   3.383678
    28  H    5.350171   6.516489   5.296428   4.835751   2.140569
    29  H    5.295588   6.600028   5.349368   4.835520   2.140580
    30  H    2.490721   9.149377   9.478370   4.577225   6.110225
    31  N    4.573008   5.274300   4.573008   2.777335   1.425602
    32  C    6.117368   4.838461   6.117449   1.423228   5.626165
    33  C    6.506319   5.480233   6.901750   2.434875   6.432026
    34  C    6.901532   5.001747   6.506401   2.434920   6.432435
    35  C    7.573293   6.184521   7.919962   3.699907   7.793432
    36  H    6.200498   5.735507   6.918142   2.648241   6.149574
    37  C    7.919655   5.759060   7.573489   3.699938   7.793773
    38  H    6.917913   4.897658   6.200484   2.648319   6.150336
    39  C    8.222428   6.309454   8.222723   4.192652   8.395589
    40  H    8.089777   6.897936   8.653524   4.575221   8.518207
    41  H    8.653154   6.217176   8.089962   4.575265   8.518757
    42  H    7.107620   4.277569   2.458106   4.557600   2.457528
    43  C    7.342709   9.421594   7.342776   8.388752   4.185815
    44  C    9.435429   7.359416   9.435789   5.612186   9.815123
    45  N    8.279499  10.448099   8.279575   9.545674   5.342737
    46  N   10.462738   8.297085  10.463136   6.769335  10.972272
                   21         22         23         24         25
    21  C    0.000000
    22  C    2.412869   0.000000
    23  C    1.381262   2.785185   0.000000
    24  C    2.785186   1.381258   2.424243   0.000000
    25  C    2.401547   2.401547   1.397368   1.397373   0.000000
    26  H    2.143994   3.866490   1.081349   3.401643   2.150552
    27  H    3.866492   2.143991   3.401642   1.081349   2.150557
    28  H    1.082350   3.388317   2.144532   3.867405   3.388663
    29  H    3.388319   1.082352   3.867406   2.144527   3.388663
    30  H    6.720429   6.673224   7.757707   7.716466   8.209051
    31  N    2.434661   2.434690   3.700158   3.700174   4.191270
    32  C    6.429522   6.429504   7.791432   7.791413   8.391833
    33  C    7.013910   7.404303   8.394068   8.724416   9.163319
    34  C    7.404677   7.014351   8.724808   8.394508   9.163743
    35  C    8.393597   8.723841   9.774050  10.060385  10.534236
    36  H    6.535187   7.258214   7.901886   8.512310   8.795505
    37  C    8.724096   8.394039  10.060672   9.774490  10.534608
    38  H    7.258945   6.535975   8.513067   7.902675   8.796291
    39  C    9.164435   9.164547  10.535893  10.535988  11.161257
    40  H    8.991354   9.532036  10.364303  10.838857  11.216318
    41  H    9.532483   8.992043  10.839357  10.365005  11.216934
    42  H    2.902924   2.911091   3.635275   3.642041   3.951977
    43  C    3.698944   3.698942   2.438081   2.438084   1.420147
    44  C   10.573245  10.573400  11.947098  11.947232  12.580791
    45  N    4.807434   4.807428   3.489625   3.489621   2.577069
    46  N   11.723568  11.723748  13.098790  13.098948  13.737940
                   26         27         28         29         30
    26  H    0.000000
    27  H    4.290764   0.000000
    28  H    2.481401   4.948742   0.000000
    29  H    4.948742   2.481395   4.272598   0.000000
    30  H    8.399079   8.331744   6.600860   6.515616   0.000000
    31  N    4.576237   4.576263   2.645714   2.645764   5.274301
    32  C    8.517399   8.517371   6.144715   6.144682   4.838372
    33  C    8.993248   9.533511   6.532840   7.255706   5.002017
    34  C    9.533884   8.993700   7.256034   6.533295   5.479647
    35  C   10.365766  10.839806   7.899153   8.509212   5.759143
    36  H    8.400887   9.397308   5.926952   7.265584   4.898343
    37  C   10.840043  10.366261   8.509375   7.899663   6.183859
    38  H    9.398049   8.401675   7.266258   5.927737   5.734686
    39  C   11.219144  11.219303   8.794124   8.794333   6.309096
    40  H   10.873990  11.664189   8.396658   9.393543   6.217477
    41  H   11.664627  10.874769   9.393868   8.397432   6.897031
    42  H    4.389949   4.399689   3.267140   3.279867   7.924561
    43  C    2.658024   2.658026   4.579423   4.579420   9.421532
    44  C   12.615370  12.615596  10.176943  10.177229   7.358985
    45  N    3.469080   3.469071   5.628683   5.628673  10.448028
    46  N   13.757050  13.757319  11.310896  11.311229   8.296614
                   31         32         33         34         35
    31  N    0.000000
    32  C    4.200563   0.000000
    33  C    5.038806   1.390485   0.000000
    34  C    5.039211   1.390487   2.412147   0.000000
    35  C    6.389018   2.400845   1.380708   2.784179   0.000000
    36  H    4.838276   2.141980   1.082375   3.388636   2.142565
    37  C    6.389341   2.400847   2.784179   1.380710   2.423279
    38  H    4.839029   2.141985   3.388637   1.082375   3.866456
    39  C    6.969987   2.769424   2.402161   2.402162   1.397686
    40  H    7.147620   3.384712   2.142696   3.865604   1.081461
    41  H    7.148129   3.384714   3.865603   2.142697   3.401332
    42  H    2.660287   5.811029   6.668866   6.444922   7.930683
    43  C    5.611417   9.811980  10.572762  10.573190  11.946070
    44  C    8.389521   4.188958   3.699114   3.699118   2.438586
    45  N    6.768339  10.968902  11.722874  11.723304  13.097549
    46  N    9.546670   5.346107   4.807856   4.807859   3.490473
                   36         37         38         39         40
    36  H    0.000000
    37  C    3.866456   0.000000
    38  H    4.274749   2.142565   0.000000
    39  C    3.388215   1.397686   3.388214   0.000000
    40  H    2.477227   3.401331   4.947905   2.151115   0.000000
    41  H    4.947904   1.081461   2.477224   2.151115   4.291506
    42  H    6.515066   7.740981   6.101702   8.406489   8.687191
    43  C   10.178934  11.946452  10.179726  12.581404  12.613151
    44  C    4.578096   2.438590   4.578100   1.419534   2.659564
    45  N   11.312674  13.097937  11.313466  13.738326  13.754612
    46  N    5.627386   3.490475   5.627388   2.576683   3.471136
                   41         42         43         44         45
    41  H    0.000000
    42  H    8.380918   0.000000
    43  C   12.613791   5.145986   0.000000
    44  C    2.659573   9.773940  14.000938   0.000000
    45  N   13.755264   6.189687   1.156922  15.157860   0.000000
    46  N    3.471141  10.898491  15.158087   1.157149  16.315009
                   46
    46  N    0.000000
 Symmetry turned off by external request.
 Stoichiometry    C26H16N4
 Framework group  C1[X(C26H16N4)]
 Deg. of freedom   132
 Full point group                 C1      NOp   1
 Rotational constants (GHZ):      0.3950468      0.0807281      0.0702356
 Leave Link  202 at Mon Nov 29 10:43:09 2021, MaxMem=  5242880000 cpu:         0.6
 (Enter /opt/nce/packages/global/g09/l301.exe)
 Standard basis: def2TZVP (5D, 7F)
 Ernie: Thresh=  0.10000D-02 Tol=  0.10000D-05 Strict=F.
  1026 basis functions,  1658 primitive gaussians,  1176 cartesian basis functions
   100 alpha electrons      100 beta electrons
       nuclear repulsion energy      2545.9827763655 Hartrees.
 IExCor= 4134 DFT=T Ex+Corr=M06L ExCW=0 ScaHFX=  0.000000
 ScaDFX=  1.000000  1.000000  1.000000  1.000000 ScalE2=  1.000000  1.000000
 IRadAn=      5 IRanWt=     -1 IRanGd=            0 ICorTp=0 IEmpDi=  4
 NAtoms=   46 NActive=   46 NUniq=   46 SFac= 1.00D+00 NAtFMM=   60 NAOKFM=F Big=F
 Integral buffers will be    131072 words long.
 Raffenetti 2 integral format.
 Two-electron integral symmetry is turned off.
 ------------------------------------------------------------------------------
 Polarizable Continuum Model (PCM)
 =================================
 Model                : PCM (using non-symmetric T matrix).
 Atomic radii         : SMD-Coulomb.
 Polarization charges : Total charges.
 Charge compensation  : None.
 Solution method      : On-the-fly selection.
 Cavity type          : VdW (van der Waals Surface) (Alpha=1.000).
 Cavity algorithm     : GePol (No added spheres)
                        Default sphere list used, NSphG=   46.
                        Lebedev-Laikov grids with approx.  5.0 points / Ang**2.
                        Smoothing algorithm: York/Karplus (Gamma=1.0000).
                        Polarization charges: spherical gaussians, with
                                              point-specific exponents (IZeta= 3).
                        Self-potential: point-specific (ISelfS= 7).
                        Self-field    : sphere-specific E.n sum rule (ISelfD= 2).
 1st derivatives      : Analytical E(r).r(x)/FMM algorithm (CHGder, D1EAlg=3).
                        Cavity 1st derivative terms included.
 Solvent              : n,n-DiMethylFormamide, Eps=  37.219000 Eps(inf)=   2.046330
 ------------------------------------------------------------------------------
 GePol: Number of generator spheres                  =      46
 GePol: Total number of spheres                      =      46
 GePol: Number of exposed spheres                    =      46 (100.00%)
 GePol: Number of points                             =    3740
 GePol: Average weight of points                     =       0.11
 GePol: Minimum weight of points                     =   0.16D-07
 GePol: Maximum weight of points                     =    0.17992
 GePol: Number of points with low weight             =     167
 GePol: Fraction of low-weight points (<1% of avg)   =       4.47%
 GePol: Cavity surface area                          =    407.840 Ang**2
 GePol: Cavity volume                                =    395.632 Ang**3
 ------------------------------------------------------------------------------
 Atomic radii for non-electrostatic terms: SMD-CDS.
 ------------------------------------------------------------------------------
 PCM non-electrostatic energy =        -0.0014595950 Hartrees.
 Nuclear repulsion after PCM non-electrostatic terms =     2545.9813167706 Hartrees.
 Leave Link  301 at Mon Nov 29 10:43:10 2021, MaxMem=  5242880000 cpu:         5.5
 (Enter /opt/nce/packages/global/g09/l302.exe)
 NPDir=0 NMtPBC=     1 NCelOv=     1 NCel=       1 NClECP=     1 NCelD=      1
         NCelK=      1 NCelE2=     1 NClLst=     1 CellRange=     0.0.
 One-electron integrals computed using PRISM.
   1 Symmetry operations used in ECPInt.
 ECPInt:  NShTT=   77815 NPrTT=  243264 LenC2=   62796 LenP2D=  134429.
 LDataN:  DoStor=T MaxTD1= 6 Len=  172
 NBasis=  1026 RedAO= T EigKep=  3.45D-06  NBF=  1026
 NBsUse=  1026 1.00D-06 EigRej= -1.00D+00 NBFU=  1026
 Precomputing XC quadrature grid using
 IXCGrd= 4 IRadAn=           5 IRanWt=          -1 IRanGd=           0 AccXCQ= 0.00D+00.
 Generated NRdTot=       0 NPtTot=           0 NUsed=           0 NTot=          32
 NSgBfM=  1085  1085  1085  1085  1085 MxSgAt=    46 MxSgA2=    46.
 Leave Link  302 at Mon Nov 29 10:43:12 2021, MaxMem=  5242880000 cpu:        28.1
 (Enter /opt/nce/packages/global/g09/l303.exe)
 DipDrv:  MaxL=1.
 Leave Link  303 at Mon Nov 29 10:43:14 2021, MaxMem=  5242880000 cpu:         6.2
 (Enter /opt/nce/packages/global/g09/l401.exe)
 ExpMin= 9.52D-02 ExpMax= 1.97D+04 ExpMxC= 6.73D+02 IAcc=3 IRadAn=         5 AccDes= 0.00D+00
 Harris functional with IExCor= 1009 and IRadAn=       5 diagonalized for initial guess.
 HarFok:  IExCor= 1009 AccDes= 0.00D+00 IRadAn=         5 IDoV= 1 UseB2=F ITyADJ=14
 ICtDFT=  3500011 ScaDFX=  1.000000  1.000000  1.000000  1.000000
 FoFCou: FMM=F IPFlag=           0 FMFlag=      100000 FMFlg1=           0
         NFxFlg=           0 DoJE=T BraDBF=F KetDBF=T FulRan=T
         wScrn=  0.000000 ICntrl=     500 IOpCl=  0 I1Cent=   200000004 NGrid=           0
         NMat0=    1 NMatS0=      1 NMatT0=    0 NMatD0=    1 NMtDS0=    0 NMtDT0=    0
 Symmetry not used in FoFCou.
 Harris En= -1218.72649334504    
 JPrj=0 DoOrth=F DoCkMO=F.
 Leave Link  401 at Mon Nov 29 10:43:26 2021, MaxMem=  5242880000 cpu:       129.7
 (Enter /opt/nce/packages/global/g09/l502.exe)
 Closed shell SCF:
 Using DIIS extrapolation, IDIIS=  1040.
 Two-electron integral symmetry not used.
 IVT=     4188738 IEndB=     4188738 NGot=  5242880000 MDV=  5240092055
 LenX=  5240092055 LenY=  5238707903
 Requested convergence on RMS density matrix=1.00D-08 within 128 cycles.
 Requested convergence on MAX density matrix=1.00D-06.
 Requested convergence on             energy=1.00D-06.
 No special actions if energy rises.
 Fock matrices will be formed incrementally for  20 cycles.

 Cycle   1  Pass 1  IDiag  1:
 FoFJK:  IHMeth= 1 ICntrl=     500 DoSepK=F KAlg= 0 I1Cent=   0 FoldK=F
 IRaf= 690000000 NMat=   1 IRICut=       1 DoRegI=T DoRafI=F ISym2E= 0.
 FoFCou: FMM=F IPFlag=           0 FMFlag=      100000 FMFlg1=           0
         NFxFlg=           0 DoJE=T BraDBF=F KetDBF=F FulRan=T
         wScrn=  0.000000 ICntrl=     500 IOpCl=  0 I1Cent=           0 NGrid=           0
         NMat0=    1 NMatS0=      1 NMatT0=    0 NMatD0=    1 NMtDS0=    0 NMtDT0=    0
 Symmetry not used in FoFCou.
 Inv3:  Mode=1 IEnd=    41962800.
 Iteration    1 A*A^-1 deviation from unit magnitude is 6.66D-15 for   3729.
 Iteration    1 A*A^-1 deviation from orthogonality  is 6.44D-15 for   3723    859.
 Iteration    1 A^-1*A deviation from unit magnitude is 6.11D-15 for   3729.
 Iteration    1 A^-1*A deviation from orthogonality  is 2.54D-12 for   1821   1754.
 E= -1219.07965691833    
 DIIS: error= 2.41D-02 at cycle   1 NSaved=   1.
 NSaved= 1 IEnMin= 1 EnMin= -1219.07965691833     IErMin= 1 ErrMin= 2.41D-02
 ErrMax= 2.41D-02  0.00D+00 EMaxC= 1.00D-01 BMatC= 7.36D-01 BMatP= 7.36D-01
 IDIUse=3 WtCom= 7.59D-01 WtEn= 2.41D-01
 Coeff-Com:  0.100D+01
 Coeff-En:   0.100D+01
 Coeff:      0.100D+01
 Gap=     0.076 Goal=   None    Shift=    0.000
 GapD=    0.076 DampG=0.500 DampE=0.500 DampFc=0.2500 IDamp=-1.
 Damping current iteration by 2.50D-01
 RMSDP=2.93D-03 MaxDP=2.02D-01              OVMax= 4.09D-01

 Cycle   2  Pass 1  IDiag  1:
 RMSU=  7.33D-04    CP:  9.94D-01
 E= -1219.28703664495     Delta-E=       -0.207379726624 Rises=F Damp=T
 DIIS: error= 1.09D-02 at cycle   2 NSaved=   2.
 NSaved= 2 IEnMin= 2 EnMin= -1219.28703664495     IErMin= 2 ErrMin= 1.09D-02
 ErrMax= 1.09D-02  0.00D+00 EMaxC= 1.00D-01 BMatC= 2.24D-01 BMatP= 7.36D-01
 IDIUse=3 WtCom= 8.91D-01 WtEn= 1.09D-01
 Coeff-Com: -0.702D+00 0.170D+01
 Coeff-En:   0.000D+00 0.100D+01
 Coeff:     -0.625D+00 0.162D+01
 Gap=     0.067 Goal=   None    Shift=    0.000
 RMSDP=1.63D-03 MaxDP=8.16D-02 DE=-2.07D-01 OVMax= 4.76D-01

 Cycle   3  Pass 1  IDiag  1:
 RMSU=  1.42D-03    CP:  9.44D-01  2.04D+00
 E= -1219.50216204951     Delta-E=       -0.215125404558 Rises=F Damp=F
 DIIS: error= 1.59D-02 at cycle   3 NSaved=   3.
 NSaved= 3 IEnMin= 3 EnMin= -1219.50216204951     IErMin= 2 ErrMin= 1.09D-02
 ErrMax= 1.59D-02  0.00D+00 EMaxC= 1.00D-01 BMatC= 1.63D-01 BMatP= 2.24D-01
 IDIUse=3 WtCom= 8.41D-01 WtEn= 1.59D-01
 Coeff-Com: -0.583D+00 0.108D+01 0.503D+00
 Coeff-En:   0.000D+00 0.000D+00 0.100D+01
 Coeff:     -0.491D+00 0.909D+00 0.582D+00
 Gap=     0.077 Goal=   None    Shift=    0.000
 RMSDP=7.06D-04 MaxDP=4.85D-02 DE=-2.15D-01 OVMax= 3.16D-01

 Cycle   4  Pass 1  IDiag  1:
 RMSU=  6.44D-04    CP:  9.47D-01  1.98D+00  7.99D-01
 E= -1219.59960509506     Delta-E=       -0.097443045550 Rises=F Damp=F
 DIIS: error= 1.11D-02 at cycle   4 NSaved=   4.
 NSaved= 4 IEnMin= 4 EnMin= -1219.59960509506     IErMin= 2 ErrMin= 1.09D-02
 ErrMax= 1.11D-02  0.00D+00 EMaxC= 1.00D-01 BMatC= 7.46D-02 BMatP= 1.63D-01
 IDIUse=3 WtCom= 8.89D-01 WtEn= 1.11D-01
 Coeff-Com: -0.113D+00 0.194D+00 0.413D+00 0.506D+00
 Coeff-En:   0.000D+00 0.000D+00 0.363D+00 0.637D+00
 Coeff:     -0.101D+00 0.173D+00 0.408D+00 0.520D+00
 Gap=     0.066 Goal=   None    Shift=    0.000
 RMSDP=3.19D-04 MaxDP=1.90D-02 DE=-9.74D-02 OVMax= 1.23D-01

 Cycle   5  Pass 1  IDiag  1:
 RMSU=  1.67D-04    CP:  9.45D-01  1.95D+00  8.36D-01  5.88D-01
 E= -1219.68069480358     Delta-E=       -0.081089708516 Rises=F Damp=F
 DIIS: error= 1.59D-03 at cycle   5 NSaved=   5.
 NSaved= 5 IEnMin= 5 EnMin= -1219.68069480358     IErMin= 5 ErrMin= 1.59D-03
 ErrMax= 1.59D-03  0.00D+00 EMaxC= 1.00D-01 BMatC= 1.66D-03 BMatP= 7.46D-02
 IDIUse=3 WtCom= 9.84D-01 WtEn= 1.59D-02
 Coeff-Com: -0.293D-01 0.428D-01 0.194D+00 0.275D+00 0.518D+00
 Coeff-En:   0.000D+00 0.000D+00 0.000D+00 0.000D+00 0.100D+01
 Coeff:     -0.289D-01 0.421D-01 0.191D+00 0.271D+00 0.525D+00
 Gap=     0.066 Goal=   None    Shift=    0.000
 RMSDP=6.98D-05 MaxDP=6.10D-03 DE=-8.11D-02 OVMax= 1.79D-02

 Cycle   6  Pass 1  IDiag  1:
 RMSU=  6.29D-05    CP:  9.45D-01  1.95D+00  8.17D-01  5.84D-01  9.31D-01
 E= -1219.68171076553     Delta-E=       -0.001015961950 Rises=F Damp=F
 DIIS: error= 9.83D-04 at cycle   6 NSaved=   6.
 NSaved= 6 IEnMin= 6 EnMin= -1219.68171076553     IErMin= 6 ErrMin= 9.83D-04
 ErrMax= 9.83D-04  0.00D+00 EMaxC= 1.00D-01 BMatC= 6.12D-04 BMatP= 1.66D-03
 IDIUse=3 WtCom= 9.90D-01 WtEn= 9.83D-03
 Coeff-Com: -0.679D-02 0.667D-02 0.640D-01 0.952D-01 0.373D+00 0.468D+00
 Coeff-En:   0.000D+00 0.000D+00 0.000D+00 0.000D+00 0.292D+00 0.708D+00
 Coeff:     -0.673D-02 0.660D-02 0.634D-01 0.942D-01 0.372D+00 0.471D+00
 Gap=     0.067 Goal=   None    Shift=    0.000
 RMSDP=3.24D-05 MaxDP=2.66D-03 DE=-1.02D-03 OVMax= 7.15D-03

 Cycle   7  Pass 1  IDiag  1:
 RMSU=  2.62D-05    CP:  9.45D-01  1.96D+00  8.15D-01  5.81D-01  1.01D+00
                    CP:  8.04D-01
 E= -1219.68216713312     Delta-E=       -0.000456367591 Rises=F Damp=F
 DIIS: error= 3.89D-04 at cycle   7 NSaved=   7.
 NSaved= 7 IEnMin= 7 EnMin= -1219.68216713312     IErMin= 7 ErrMin= 3.89D-04
 ErrMax= 3.89D-04  0.00D+00 EMaxC= 1.00D-01 BMatC= 9.75D-05 BMatP= 6.12D-04
 IDIUse=3 WtCom= 9.96D-01 WtEn= 3.89D-03
 Coeff-Com: -0.297D-02 0.261D-02 0.151D-01 0.202D-01 0.167D+00 0.330D+00
 Coeff-Com:  0.468D+00
 Coeff-En:   0.000D+00 0.000D+00 0.000D+00 0.000D+00 0.000D+00 0.157D+00
 Coeff-En:   0.843D+00
 Coeff:     -0.296D-02 0.260D-02 0.150D-01 0.201D-01 0.167D+00 0.329D+00
 Coeff:      0.469D+00
 Gap=     0.067 Goal=   None    Shift=    0.000
 RMSDP=1.13D-05 MaxDP=7.93D-04 DE=-4.56D-04 OVMax= 2.86D-03

 Cycle   8  Pass 1  IDiag  1:
 RMSU=  9.98D-06    CP:  9.45D-01  1.96D+00  8.15D-01  5.75D-01  1.02D+00
                    CP:  8.41D-01  9.46D-01
 E= -1219.68225393380     Delta-E=       -0.000086800682 Rises=F Damp=F
 DIIS: error= 1.34D-04 at cycle   8 NSaved=   8.
 NSaved= 8 IEnMin= 8 EnMin= -1219.68225393380     IErMin= 8 ErrMin= 1.34D-04
 ErrMax= 1.34D-04  0.00D+00 EMaxC= 1.00D-01 BMatC= 1.13D-05 BMatP= 9.75D-05
 IDIUse=3 WtCom= 9.99D-01 WtEn= 1.34D-03
 Coeff-Com: -0.157D-02 0.163D-02 0.190D-03-0.216D-02 0.508D-01 0.147D+00
 Coeff-Com:  0.308D+00 0.496D+00
 Coeff-En:   0.000D+00 0.000D+00 0.000D+00 0.000D+00 0.000D+00 0.000D+00
 Coeff-En:   0.914D-01 0.909D+00
 Coeff:     -0.157D-02 0.163D-02 0.189D-03-0.216D-02 0.507D-01 0.147D+00
 Coeff:      0.307D+00 0.497D+00
 Gap=     0.067 Goal=   None    Shift=    0.000
 RMSDP=4.63D-06 MaxDP=2.83D-04 DE=-8.68D-05 OVMax= 1.20D-03

 Cycle   9  Pass 1  IDiag  1:
 RMSU=  3.49D-06    CP:  9.45D-01  1.96D+00  8.14D-01  5.74D-01  1.03D+00
                    CP:  8.61D-01  1.03D+00  8.90D-01
 E= -1219.68226459027     Delta-E=       -0.000010656473 Rises=F Damp=F
 DIIS: error= 3.40D-05 at cycle   9 NSaved=   9.
 NSaved= 9 IEnMin= 9 EnMin= -1219.68226459027     IErMin= 9 ErrMin= 3.40D-05
 ErrMax= 3.40D-05  0.00D+00 EMaxC= 1.00D-01 BMatC= 9.39D-07 BMatP= 1.13D-05
 IDIUse=1 WtCom= 1.00D+00 WtEn= 0.00D+00
 Coeff-Com: -0.854D-03 0.101D-02-0.130D-02-0.354D-02 0.109D-01 0.524D-01
 Coeff-Com:  0.133D+00 0.287D+00 0.521D+00
 Coeff:     -0.854D-03 0.101D-02-0.130D-02-0.354D-02 0.109D-01 0.524D-01
 Coeff:      0.133D+00 0.287D+00 0.521D+00
 Gap=     0.067 Goal=   None    Shift=    0.000
 RMSDP=2.05D-06 MaxDP=2.60D-04 DE=-1.07D-05 OVMax= 2.57D-04

 Cycle  10  Pass 1  IDiag  1:
 RMSU=  1.14D-06    CP:  9.45D-01  1.96D+00  8.14D-01  5.74D-01  1.03D+00
                    CP:  8.71D-01  1.06D+00  9.67D-01  9.51D-01
 E= -1219.68226543401     Delta-E=       -0.000000843740 Rises=F Damp=F
 DIIS: error= 1.00D-05 at cycle  10 NSaved=  10.
 NSaved=10 IEnMin=10 EnMin= -1219.68226543401     IErMin=10 ErrMin= 1.00D-05
 ErrMax= 1.00D-05  0.00D+00 EMaxC= 1.00D-01 BMatC= 9.78D-08 BMatP= 9.39D-07
 IDIUse=1 WtCom= 1.00D+00 WtEn= 0.00D+00
 Coeff-Com: -0.368D-03 0.494D-03-0.531D-03-0.149D-02-0.152D-02 0.688D-02
 Coeff-Com:  0.265D-01 0.780D-01 0.277D+00 0.615D+00
 Coeff:     -0.368D-03 0.494D-03-0.531D-03-0.149D-02-0.152D-02 0.688D-02
 Coeff:      0.265D-01 0.780D-01 0.277D+00 0.615D+00
 Gap=     0.067 Goal=   None    Shift=    0.000
 RMSDP=1.06D-06 MaxDP=7.15D-05 DE=-8.44D-07 OVMax= 8.54D-05

 Cycle  11  Pass 1  IDiag  1:
 RMSU=  4.99D-07    CP:  9.45D-01  1.96D+00  8.14D-01  5.73D-01  1.04D+00
                    CP:  8.76D-01  1.07D+00  9.85D-01  1.02D+00  1.10D+00
 E= -1219.68226551924     Delta-E=       -0.000000085232 Rises=F Damp=F
 DIIS: error= 3.32D-06 at cycle  11 NSaved=  11.
 NSaved=11 IEnMin=11 EnMin= -1219.68226551924     IErMin=11 ErrMin= 3.32D-06
 ErrMax= 3.32D-06  0.00D+00 EMaxC= 1.00D-01 BMatC= 1.27D-08 BMatP= 9.78D-08
 IDIUse=1 WtCom= 1.00D+00 WtEn= 0.00D+00
 Coeff-Com: -0.850D-04 0.134D-03-0.767D-04-0.246D-03-0.286D-02-0.579D-02
 Coeff-Com: -0.943D-02-0.966D-02 0.540D-01 0.317D+00 0.657D+00
 Coeff:     -0.850D-04 0.134D-03-0.767D-04-0.246D-03-0.286D-02-0.579D-02
 Coeff:     -0.943D-02-0.966D-02 0.540D-01 0.317D+00 0.657D+00
 Gap=     0.067 Goal=   None    Shift=    0.000
 RMSDP=6.03D-07 MaxDP=5.68D-05 DE=-8.52D-08 OVMax= 2.30D-05

 Cycle  12  Pass 1  IDiag  1:
 RMSU=  1.89D-07    CP:  9.45D-01  1.96D+00  8.13D-01  5.73D-01  1.04D+00
                    CP:  8.79D-01  1.08D+00  1.00D+00  1.04D+00  1.23D+00
                    CP:  1.25D+00
 E= -1219.68226553007     Delta-E=       -0.000000010828 Rises=F Damp=F
 DIIS: error= 8.96D-07 at cycle  12 NSaved=  12.
 NSaved=12 IEnMin=12 EnMin= -1219.68226553007     IErMin=12 ErrMin= 8.96D-07
 ErrMax= 8.96D-07  0.00D+00 EMaxC= 1.00D-01 BMatC= 1.17D-09 BMatP= 1.27D-08
 IDIUse=1 WtCom= 1.00D+00 WtEn= 0.00D+00
 Coeff-Com: -0.342D-04 0.562D-04-0.900D-06-0.375D-04-0.141D-02-0.345D-02
 Coeff-Com: -0.641D-02-0.922D-02 0.139D-01 0.133D+00 0.346D+00 0.529D+00
 Coeff:     -0.342D-04 0.562D-04-0.900D-06-0.375D-04-0.141D-02-0.345D-02
 Coeff:     -0.641D-02-0.922D-02 0.139D-01 0.133D+00 0.346D+00 0.529D+00
 Gap=     0.067 Goal=   None    Shift=    0.000
 RMSDP=1.01D-07 MaxDP=5.39D-06 DE=-1.08D-08 OVMax= 1.43D-05

 Cycle  13  Pass 1  IDiag  1:
 RMSU=  5.27D-08    CP:  9.45D-01  1.96D+00  8.13D-01  5.73D-01  1.04D+00
                    CP:  8.79D-01  1.08D+00  1.01D+00  1.05D+00  1.25D+00
                    CP:  1.30D+00  1.03D+00
 E= -1219.68226553090     Delta-E=       -0.000000000824 Rises=F Damp=F
 DIIS: error= 5.66D-07 at cycle  13 NSaved=  13.
 NSaved=13 IEnMin=13 EnMin= -1219.68226553090     IErMin=13 ErrMin= 5.66D-07
 ErrMax= 5.66D-07  0.00D+00 EMaxC= 1.00D-01 BMatC= 3.07D-10 BMatP= 1.17D-09
 IDIUse=1 WtCom= 1.00D+00 WtEn= 0.00D+00
 Coeff-Com: -0.709D-05 0.118D-04 0.928D-05 0.175D-04-0.335D-03-0.107D-02
 Coeff-Com: -0.216D-02-0.393D-02-0.196D-02 0.184D-01 0.824D-01 0.347D+00
 Coeff-Com:  0.562D+00
 Coeff:     -0.709D-05 0.118D-04 0.928D-05 0.175D-04-0.335D-03-0.107D-02
 Coeff:     -0.216D-02-0.393D-02-0.196D-02 0.184D-01 0.824D-01 0.347D+00
 Coeff:      0.562D+00
 Gap=     0.067 Goal=   None    Shift=    0.000
 RMSDP=5.18D-08 MaxDP=6.33D-06 DE=-8.24D-10 OVMax= 8.21D-06

 Cycle  14  Pass 1  IDiag  1:
 RMSU=  2.42D-08    CP:  9.45D-01  1.96D+00  8.13D-01  5.73D-01  1.04D+00
                    CP:  8.79D-01  1.09D+00  1.01D+00  1.05D+00  1.27D+00
                    CP:  1.33D+00  1.09D+00  8.67D-01
 E= -1219.68226553121     Delta-E=       -0.000000000312 Rises=F Damp=F
 DIIS: error= 2.39D-07 at cycle  14 NSaved=  14.
 NSaved=14 IEnMin=14 EnMin= -1219.68226553121     IErMin=14 ErrMin= 2.39D-07
 ErrMax= 2.39D-07  0.00D+00 EMaxC= 1.00D-01 BMatC= 6.33D-11 BMatP= 3.07D-10
 IDIUse=1 WtCom= 1.00D+00 WtEn= 0.00D+00
 Coeff-Com: -0.142D-05 0.216D-05 0.477D-05 0.129D-04-0.614D-04-0.309D-03
 Coeff-Com: -0.662D-03-0.150D-02-0.283D-02-0.364D-02 0.130D-01 0.167D+00
 Coeff-Com:  0.383D+00 0.446D+00
 Coeff:     -0.142D-05 0.216D-05 0.477D-05 0.129D-04-0.614D-04-0.309D-03
 Coeff:     -0.662D-03-0.150D-02-0.283D-02-0.364D-02 0.130D-01 0.167D+00
 Coeff:      0.383D+00 0.446D+00
 Gap=     0.067 Goal=   None    Shift=    0.000
 RMSDP=1.42D-08 MaxDP=1.19D-06 DE=-3.12D-10 OVMax= 2.78D-06

 Cycle  15  Pass 1  IDiag  1:
 RMSU=  1.03D-08    CP:  9.45D-01  1.96D+00  8.13D-01  5.73D-01  1.04D+00
                    CP:  8.79D-01  1.09D+00  1.01D+00  1.05D+00  1.27D+00
                    CP:  1.33D+00  1.09D+00  9.21D-01  9.91D-01
 E= -1219.68226553128     Delta-E=       -0.000000000073 Rises=F Damp=F
 DIIS: error= 5.12D-08 at cycle  15 NSaved=  15.
 NSaved=15 IEnMin=15 EnMin= -1219.68226553128     IErMin=15 ErrMin= 5.12D-08
 ErrMax= 5.12D-08  0.00D+00 EMaxC= 1.00D-01 BMatC= 3.16D-12 BMatP= 6.33D-11
 IDIUse=1 WtCom= 1.00D+00 WtEn= 0.00D+00
 Coeff-Com: -0.399D-06 0.379D-06 0.186D-05 0.348D-05 0.281D-04 0.361D-04
 Coeff-Com:  0.572D-04-0.309D-04-0.919D-03-0.461D-02-0.701D-02 0.229D-01
 Coeff-Com:  0.975D-01 0.220D+00 0.672D+00
 Coeff:     -0.399D-06 0.379D-06 0.186D-05 0.348D-05 0.281D-04 0.361D-04
 Coeff:      0.572D-04-0.309D-04-0.919D-03-0.461D-02-0.701D-02 0.229D-01
 Coeff:      0.975D-01 0.220D+00 0.672D+00
 Gap=     0.067 Goal=   None    Shift=    0.000
 RMSDP=5.91D-09 MaxDP=5.96D-07 DE=-7.28D-11 OVMax= 4.08D-07

 Error on total polarization charges =  0.05340
 SCF Done:  E(RM06L) =  -1219.68226553     A.U. after   15 cycles
            NFock= 15  Conv=0.59D-08     -V/T= 2.0042
 KE= 1.214637373122D+03 PE=-7.922575173762D+03 EE= 2.942274218339D+03
 SMD-CDS (non-electrostatic) energy       (kcal/mol) =      -0.92
 (included in total energy above)
 Leave Link  502 at Mon Nov 29 10:59:03 2021, MaxMem=  5242880000 cpu:     11158.0
 (Enter /opt/nce/packages/global/g09/l601.exe)
 Copying SCF densities to generalized density rwf, IOpCl= 0 IROHF=0.

 **********************************************************************

            Population analysis using the SCF density.

 **********************************************************************

 Alpha  occ. eigenvalues --  -14.21756 -14.21642 -14.17423 -14.17352 -10.10611
 Alpha  occ. eigenvalues --  -10.10610 -10.09861 -10.09860 -10.09822 -10.09822
 Alpha  occ. eigenvalues --  -10.09689 -10.09568 -10.09484 -10.09423 -10.07379
 Alpha  occ. eigenvalues --  -10.07379 -10.07309 -10.07308 -10.06545 -10.06545
 Alpha  occ. eigenvalues --  -10.06485 -10.06485 -10.04408 -10.04408 -10.04404
 Alpha  occ. eigenvalues --  -10.04403 -10.04081 -10.04081 -10.04029 -10.04029
 Alpha  occ. eigenvalues --   -0.96705  -0.93085  -0.87754  -0.87677  -0.84408
 Alpha  occ. eigenvalues --   -0.83710  -0.82920  -0.80002  -0.75784  -0.74369
 Alpha  occ. eigenvalues --   -0.73518  -0.73512  -0.72762  -0.72353  -0.69559
 Alpha  occ. eigenvalues --   -0.68142  -0.62956  -0.61970  -0.60573  -0.59693
 Alpha  occ. eigenvalues --   -0.59549  -0.57040  -0.56534  -0.52821  -0.52801
 Alpha  occ. eigenvalues --   -0.52567  -0.52519  -0.49756  -0.49341  -0.46152
 Alpha  occ. eigenvalues --   -0.45723  -0.45421  -0.43059  -0.42893  -0.42312
 Alpha  occ. eigenvalues --   -0.41772  -0.40600  -0.40569  -0.40320  -0.40205
 Alpha  occ. eigenvalues --   -0.39701  -0.39661  -0.39375  -0.37895  -0.37397
 Alpha  occ. eigenvalues --   -0.37363  -0.36711  -0.35000  -0.34713  -0.34004
 Alpha  occ. eigenvalues --   -0.33906  -0.33878  -0.33794  -0.33236  -0.32670
 Alpha  occ. eigenvalues --   -0.31758  -0.31628  -0.31562  -0.31287  -0.30807
 Alpha  occ. eigenvalues --   -0.30742  -0.29305  -0.25725  -0.25489  -0.24842
 Alpha  occ. eigenvalues --   -0.24737  -0.23897  -0.23770  -0.20523  -0.14697
 Alpha virt. eigenvalues --   -0.08010  -0.07953  -0.05323  -0.05219  -0.03475
 Alpha virt. eigenvalues --   -0.02463  -0.01924   0.00250   0.00299   0.01215
 Alpha virt. eigenvalues --    0.03754   0.03875   0.04746   0.05315   0.05737
 Alpha virt. eigenvalues --    0.07282   0.07950   0.08035   0.08612   0.09024
 Alpha virt. eigenvalues --    0.09696   0.10144   0.10216   0.10936   0.11740
 Alpha virt. eigenvalues --    0.11903   0.12049   0.12296   0.12469   0.12868
 Alpha virt. eigenvalues --    0.12959   0.13087   0.13174   0.14265   0.14580
 Alpha virt. eigenvalues --    0.15611   0.15628   0.17696   0.17985   0.18290
 Alpha virt. eigenvalues --    0.19299   0.19575   0.20297   0.20320   0.20857
 Alpha virt. eigenvalues --    0.21250   0.21487   0.21794   0.21899   0.22275
 Alpha virt. eigenvalues --    0.22310   0.22435   0.22942   0.23078   0.23239
 Alpha virt. eigenvalues --    0.23362   0.23795   0.23866   0.24108   0.24595
 Alpha virt. eigenvalues --    0.24871   0.25499   0.25946   0.26200   0.26493
 Alpha virt. eigenvalues --    0.27013   0.27026   0.27291   0.27389   0.27913
 Alpha virt. eigenvalues --    0.28011   0.28275   0.28318   0.29229   0.29851
 Alpha virt. eigenvalues --    0.29912   0.30273   0.30692   0.30927   0.31219
 Alpha virt. eigenvalues --    0.31439   0.31714   0.31724   0.32365   0.33149
 Alpha virt. eigenvalues --    0.33422   0.33679   0.34149   0.34286   0.34537
 Alpha virt. eigenvalues --    0.34866   0.34971   0.35104   0.35309   0.35634
 Alpha virt. eigenvalues --    0.35913   0.36729   0.36734   0.37121   0.37723
 Alpha virt. eigenvalues --    0.38403   0.38405   0.38703   0.39172   0.39196
 Alpha virt. eigenvalues --    0.39918   0.40064   0.40364   0.40695   0.40893
 Alpha virt. eigenvalues --    0.41336   0.41553   0.41818   0.42104   0.42933
 Alpha virt. eigenvalues --    0.42966   0.43209   0.43712   0.43719   0.43982
 Alpha virt. eigenvalues --    0.44390   0.44693   0.44838   0.45139   0.45889
 Alpha virt. eigenvalues --    0.46023   0.46027   0.46428   0.46881   0.47525
 Alpha virt. eigenvalues --    0.47949   0.48395   0.48398   0.49530   0.49594
 Alpha virt. eigenvalues --    0.49707   0.50972   0.51086   0.51286   0.51621
 Alpha virt. eigenvalues --    0.52083   0.52283   0.53068   0.53685   0.54712
 Alpha virt. eigenvalues --    0.54889   0.55060   0.55304   0.55755   0.56851
 Alpha virt. eigenvalues --    0.57348   0.58383   0.58516   0.58768   0.59009
 Alpha virt. eigenvalues --    0.59175   0.59303   0.59933   0.60380   0.61131
 Alpha virt. eigenvalues --    0.61586   0.62939   0.63427   0.63532   0.63846
 Alpha virt. eigenvalues --    0.64075   0.64331   0.65002   0.65021   0.65552
 Alpha virt. eigenvalues --    0.65903   0.66066   0.66205   0.66832   0.67321
 Alpha virt. eigenvalues --    0.67550   0.68063   0.68910   0.68945   0.69594
 Alpha virt. eigenvalues --    0.69742   0.69867   0.70229   0.70747   0.70946
 Alpha virt. eigenvalues --    0.71639   0.72538   0.72775   0.73273   0.73498
 Alpha virt. eigenvalues --    0.73630   0.73785   0.75091   0.75150   0.75871
 Alpha virt. eigenvalues --    0.76426   0.76831   0.77101   0.77440   0.77633
 Alpha virt. eigenvalues --    0.78465   0.78845   0.79044   0.79479   0.79705
 Alpha virt. eigenvalues --    0.81015   0.81428   0.82492   0.82584   0.82742
 Alpha virt. eigenvalues --    0.84257   0.85337   0.85775   0.86229   0.86463
 Alpha virt. eigenvalues --    0.86996   0.87191   0.87776   0.88160   0.88295
 Alpha virt. eigenvalues --    0.88581   0.88673   0.89676   0.89971   0.90398
 Alpha virt. eigenvalues --    0.90806   0.91760   0.91940   0.92125   0.92851
 Alpha virt. eigenvalues --    0.94529   0.95138   0.95340   0.96190   0.97906
 Alpha virt. eigenvalues --    0.98666   0.99351   1.00495   1.00975   1.02192
 Alpha virt. eigenvalues --    1.02366   1.03088   1.04116   1.04311   1.05798
 Alpha virt. eigenvalues --    1.06262   1.06731   1.07050   1.07816   1.08022
 Alpha virt. eigenvalues --    1.08370   1.09332   1.09509   1.10018   1.10133
 Alpha virt. eigenvalues --    1.10452   1.10881   1.11391   1.12238   1.12496
 Alpha virt. eigenvalues --    1.14760   1.15291   1.16011   1.16264   1.16474
 Alpha virt. eigenvalues --    1.17468   1.18081   1.18381   1.19664   1.20373
 Alpha virt. eigenvalues --    1.21098   1.21172   1.21810   1.22223   1.23092
 Alpha virt. eigenvalues --    1.23694   1.23748   1.24478   1.25345   1.26070
 Alpha virt. eigenvalues --    1.26226   1.26506   1.26904   1.27215   1.27436
 Alpha virt. eigenvalues --    1.27805   1.27945   1.28269   1.28801   1.29199
 Alpha virt. eigenvalues --    1.29612   1.30192   1.32018   1.32384   1.32685
 Alpha virt. eigenvalues --    1.33393   1.34111   1.34317   1.35191   1.35580
 Alpha virt. eigenvalues --    1.36426   1.36602   1.37631   1.38205   1.38950
 Alpha virt. eigenvalues --    1.38983   1.39080   1.39530   1.41093   1.42821
 Alpha virt. eigenvalues --    1.42872   1.43237   1.43279   1.44491   1.44554
 Alpha virt. eigenvalues --    1.45106   1.47253   1.47956   1.48611   1.48861
 Alpha virt. eigenvalues --    1.49389   1.50099   1.50391   1.51253   1.51411
 Alpha virt. eigenvalues --    1.52288   1.53051   1.53620   1.54276   1.54950
 Alpha virt. eigenvalues --    1.55305   1.55442   1.55958   1.56090   1.56502
 Alpha virt. eigenvalues --    1.56604   1.57690   1.58845   1.59449   1.59677
 Alpha virt. eigenvalues --    1.60413   1.60901   1.61079   1.61222   1.61595
[...]
    42  H   -0.000034   0.010966  -0.017993  -0.008181   0.001281   0.001837
    43  C   -0.000000  -0.006466   0.000795   0.000794  -0.102549  -0.102549
    44  C    0.000002  -0.000000   0.000000   0.000000  -0.000000  -0.000000
    45  N   -0.000000   0.000241  -0.000847  -0.000847  -0.002567  -0.002567
    46  N    0.000000   0.000000  -0.000000  -0.000000  -0.000000  -0.000000
              25         26         27         28         29         30
     1  C   -0.000008  -0.000000   0.000000  -0.000014  -0.000038   0.479623
     2  C    0.000005   0.000000   0.000000   0.000032   0.000033  -0.072127
     3  C    0.000213  -0.000000  -0.000003   0.000201   0.000796   0.011935
     4  C    0.002304  -0.000019  -0.000057   0.000434   0.003536  -0.001991
     5  C   -0.003085   0.000076   0.000069  -0.000799  -0.003717   0.013106
     6  C   -0.000069  -0.000001  -0.000008  -0.000044   0.000038  -0.074719
     7  C    0.002303  -0.000057  -0.000019   0.003535   0.000433  -0.000004
     8  C    0.000213  -0.000003  -0.000000   0.000795   0.000201   0.000018
     9  C    0.000005   0.000000   0.000000   0.000033   0.000032   0.000001
    10  H   -0.000000   0.000000  -0.000000  -0.000000  -0.000000   0.000000
    11  C   -0.000008   0.000000  -0.000000  -0.000038  -0.000014  -0.000000
    12  C   -0.000069  -0.000008  -0.000001   0.000038  -0.000044   0.000000
    13  C   -0.003084   0.000069   0.000076  -0.003716  -0.000799   0.000000
    14  H   -0.000000  -0.000000   0.000000  -0.000000  -0.000000  -0.002314
    15  H   -0.001576   0.000005  -0.000000  -0.000180  -0.000387  -0.000129
    16  H    0.000004   0.000000  -0.000000   0.000000   0.000007  -0.005459
    17  H    0.000000   0.000000  -0.000000  -0.000000   0.000000  -0.000000
    18  H    0.000004  -0.000000   0.000000   0.000007   0.000000   0.000000
    19  N   -0.000000  -0.000000  -0.000000  -0.000046  -0.000046  -0.000205
    20  C   -0.213894   0.015327   0.015328  -0.066408  -0.066413  -0.000006
    21  C    0.154721  -0.060143  -0.005160   0.487078   0.014145   0.000001
    22  C    0.154717  -0.005159  -0.060144   0.014146   0.487077   0.000000
    23  C    0.242441   0.471876   0.014433  -0.065673  -0.005176  -0.000000
    24  C    0.242448   0.014432   0.471878  -0.005176  -0.065670  -0.000000
    25  C    4.906500  -0.062179  -0.062181   0.014643   0.014644   0.000000
    26  H   -0.062179   0.539797  -0.000006  -0.005182   0.000011  -0.000000
    27  H   -0.062181  -0.000006   0.539799   0.000011  -0.005182   0.000000
    28  H    0.014643  -0.005182   0.000011   0.525704   0.000024   0.000000
    29  H    0.014644   0.000011  -0.005182   0.000024   0.525704  -0.000000
    30  H    0.000000  -0.000000   0.000000   0.000000  -0.000000   0.564418
    31  N    0.001461  -0.000235  -0.000235  -0.007203  -0.007200   0.000030
    32  C    0.000001  -0.000000  -0.000000  -0.000003  -0.000003   0.000216
    33  C    0.000000  -0.000000   0.000000   0.000001  -0.000000   0.000103
    34  C    0.000000   0.000000  -0.000000  -0.000000   0.000001   0.000002
    35  C   -0.000000  -0.000000   0.000000   0.000000  -0.000000   0.000002
    36  H    0.000000   0.000000  -0.000000  -0.000000   0.000000   0.000005
    37  C   -0.000000   0.000000  -0.000000  -0.000000   0.000000  -0.000001
    38  H    0.000000  -0.000000   0.000000   0.000000  -0.000000   0.000001
    39  C    0.000000  -0.000000  -0.000000   0.000000   0.000000   0.000003
    40  H   -0.000000   0.000000  -0.000000   0.000000  -0.000000  -0.000000
    41  H   -0.000000  -0.000000   0.000000  -0.000000   0.000000   0.000000
    42  H   -0.001576  -0.000000   0.000005  -0.000387  -0.000180   0.000000
    43  C    0.286766  -0.010181  -0.010181  -0.000203  -0.000203   0.000000
    44  C    0.000000  -0.000000  -0.000000   0.000000   0.000000   0.000000
    45  N   -0.094582   0.001073   0.001073  -0.000004  -0.000004   0.000000
    46  N    0.000000   0.000000   0.000000   0.000000   0.000000   0.000000
              31         32         33         34         35         36
     1  C    0.001211  -0.008023   0.001633  -0.000981   0.000462  -0.000096
     2  C   -0.000845  -0.010431  -0.055772  -0.037881   0.004422  -0.002670
     3  C   -0.041540  -0.057821   0.023624   0.007439  -0.006198   0.003280
     4  C    0.402485   0.014756   0.006308   0.000446  -0.000605   0.000715
     5  C   -0.049979  -0.000834   0.000501   0.000313   0.000000   0.000020
     6  C    0.002890  -0.000222  -0.000399  -0.000122   0.000019  -0.000023
     7  C    0.402489   0.014759   0.000448   0.006308  -0.000542   0.000355
     8  C   -0.041537  -0.057813   0.007441   0.023625  -0.003852   0.000940
     9  C   -0.000846  -0.010425  -0.037889  -0.055772   0.005531  -0.001117
    10  H   -0.000043   0.014088  -0.009505  -0.015281   0.001506  -0.000117
    11  C    0.001212  -0.008023  -0.000981   0.001632   0.000157  -0.000102
    12  C    0.002889  -0.000221  -0.000122  -0.000399   0.000012  -0.000014
    13  C   -0.049980  -0.000835   0.000313   0.000501  -0.000012   0.000030
    14  H   -0.000043   0.014086  -0.015282  -0.009504   0.001167  -0.000111
    15  H   -0.005526   0.000024  -0.000004  -0.000001   0.000000  -0.000000
    16  H   -0.000193  -0.000007   0.000000   0.000001  -0.000000  -0.000000
    17  H    0.000030   0.000216   0.000002   0.000103  -0.000001   0.000001
    18  H   -0.000193  -0.000007   0.000001   0.000000  -0.000000  -0.000000
    19  N   -0.011545  -0.015322  -0.066522  -0.066513   0.013147  -0.010310
    20  C    0.035693  -0.000601  -0.000021  -0.000021  -0.000001  -0.000005
    21  C   -0.056785   0.000008   0.000017  -0.000012   0.000001   0.000002
    22  C   -0.056779   0.000008  -0.000012   0.000017  -0.000000  -0.000000
    23  C    0.008128  -0.000002   0.000001  -0.000000   0.000000   0.000000
    24  C    0.008125  -0.000002  -0.000000   0.000001   0.000000  -0.000000
    25  C    0.001461   0.000001   0.000000   0.000000  -0.000000   0.000000
    26  H   -0.000235  -0.000000  -0.000000   0.000000  -0.000000   0.000000
    27  H   -0.000235  -0.000000   0.000000  -0.000000   0.000000  -0.000000
    28  H   -0.007203  -0.000003   0.000001  -0.000000   0.000000  -0.000000
    29  H   -0.007200  -0.000003  -0.000000   0.000001  -0.000000   0.000000
    30  H    0.000030   0.000216   0.000103   0.000002   0.000002   0.000005
    31  N    6.659588  -0.005198   0.000272   0.000272   0.000017  -0.000051
    32  C   -0.005198   5.582770   0.245973   0.245955   0.119218  -0.065192
    33  C    0.000272   0.245973   5.281749   0.170699   0.203104   0.491711
    34  C    0.000272   0.245955   0.170699   5.281705  -0.128123   0.015697
    35  C    0.000017   0.119218   0.203104  -0.128123   5.239836  -0.071570
    36  H   -0.000051  -0.065192   0.491711   0.015697  -0.071570   0.528055
    37  C    0.000017   0.119205  -0.128114   0.203131   0.109359  -0.005839
    38  H   -0.000051  -0.065194   0.015697   0.491709  -0.005840   0.000043
    39  C   -0.000001  -0.210978   0.156910   0.156906   0.239881   0.015949
    40  H   -0.000000   0.014929  -0.059657  -0.004999   0.471557  -0.005260
    41  H   -0.000000   0.014930  -0.004999  -0.059658   0.014177   0.000010
    42  H   -0.005526   0.000024  -0.000001  -0.000004   0.000000  -0.000000
    43  C    0.000037  -0.000000   0.000000   0.000000  -0.000000   0.000000
    44  C   -0.000000  -0.006271   0.000301   0.000301  -0.100116  -0.000169
    45  N    0.000000   0.000000  -0.000000  -0.000000  -0.000000   0.000000
    46  N   -0.000000   0.000224  -0.000812  -0.000812  -0.002609  -0.000003
              37         38         39         40         41         42
     1  C    0.000156  -0.000102  -0.000158  -0.000004  -0.000001   0.000000
     2  C    0.005530  -0.001117  -0.003640   0.000088   0.000090  -0.000003
     3  C   -0.003851   0.000939   0.002350  -0.000062  -0.000025   0.000365
     4  C   -0.000542   0.000355   0.000191  -0.000003  -0.000001  -0.000505
     5  C   -0.000011   0.000030   0.000006   0.000000  -0.000000  -0.000152
     6  C    0.000012  -0.000014  -0.000007   0.000000   0.000000  -0.000004
     7  C   -0.000605   0.000715   0.000191  -0.000001  -0.000003  -0.079291
     8  C   -0.006198   0.003280   0.002350  -0.000025  -0.000062   0.015690
     9  C    0.004423  -0.002670  -0.003641   0.000090   0.000088  -0.003048
    10  H    0.001167  -0.000111  -0.001403   0.000005  -0.000006   0.000003
    11  C    0.000462  -0.000096  -0.000158  -0.000001  -0.000004   0.006722
    12  C    0.000019  -0.000023  -0.000007   0.000000   0.000000  -0.022831
    13  C    0.000000   0.000020   0.000006  -0.000000   0.000000   0.450720
    14  H    0.001506  -0.000117  -0.001403  -0.000006   0.000005   0.000000
    15  H    0.000000  -0.000000  -0.000000   0.000000  -0.000000  -0.000006
    16  H   -0.000000  -0.000000   0.000000   0.000000  -0.000000   0.000000
    17  H    0.000002   0.000005   0.000003   0.000000  -0.000000  -0.000129
    18  H   -0.000000  -0.000000   0.000000  -0.000000   0.000000  -0.002294
    19  N    0.013146  -0.010307  -0.000927  -0.000207  -0.000208  -0.000034
    20  C   -0.000001  -0.000005   0.000000   0.000000   0.000000   0.010966
    21  C   -0.000000  -0.000000   0.000000  -0.000000   0.000000  -0.017993
    22  C    0.000001   0.000002   0.000000   0.000000  -0.000000  -0.008181
    23  C    0.000000  -0.000000  -0.000000  -0.000000   0.000000   0.001281
    24  C    0.000000   0.000000  -0.000000   0.000000  -0.000000   0.001837
    25  C   -0.000000   0.000000   0.000000  -0.000000  -0.000000  -0.001576
    26  H    0.000000  -0.000000  -0.000000   0.000000  -0.000000  -0.000000
    27  H   -0.000000   0.000000  -0.000000  -0.000000   0.000000   0.000005
    28  H   -0.000000   0.000000   0.000000   0.000000  -0.000000  -0.000387
    29  H    0.000000  -0.000000   0.000000  -0.000000   0.000000  -0.000180
    30  H   -0.000001   0.000001   0.000003  -0.000000   0.000000   0.000000
    31  N    0.000017  -0.000051  -0.000001  -0.000000  -0.000000  -0.005526
    32  C    0.119205  -0.065194  -0.210978   0.014929   0.014930   0.000024
    33  C   -0.128114   0.015697   0.156910  -0.059657  -0.004999  -0.000001
    34  C    0.203131   0.491709   0.156906  -0.004999  -0.059658  -0.000004
    35  C    0.109359  -0.005840   0.239881   0.471557   0.014177   0.000000
    36  H   -0.005839   0.000043   0.015949  -0.005260   0.000010  -0.000000
    37  C    5.239804  -0.071568   0.239889   0.014176   0.471558   0.000000
    38  H   -0.071568   0.528057   0.015949   0.000010  -0.005260  -0.000000
    39  C    0.239889   0.015949   4.904434  -0.061475  -0.061477  -0.000000
    40  H    0.014176   0.000010  -0.061475   0.539042  -0.000011  -0.000000
    41  H    0.471558  -0.005260  -0.061477  -0.000011   0.539043   0.000000
    42  H    0.000000  -0.000000  -0.000000  -0.000000   0.000000   0.531182
    43  C   -0.000000   0.000000   0.000000  -0.000000  -0.000000   0.000073
    44  C   -0.100114  -0.000169   0.286506  -0.009966  -0.009966  -0.000000
    45  N   -0.000000   0.000000   0.000000   0.000000   0.000000  -0.000000
    46  N   -0.002609  -0.000003  -0.095021   0.001070   0.001070  -0.000000
              43         44         45         46
     1  C   -0.000000   0.000000  -0.000000   0.000000
     2  C   -0.000000   0.000032  -0.000000  -0.000000
     3  C    0.000003  -0.000006   0.000000   0.000000
     4  C   -0.000001   0.000003   0.000000   0.000000
     5  C    0.000020   0.000000  -0.000000  -0.000000
     6  C   -0.000000  -0.000000   0.000000  -0.000000
     7  C   -0.000001   0.000003   0.000000   0.000000
     8  C    0.000003  -0.000006   0.000000   0.000000
     9  C   -0.000000   0.000032  -0.000000  -0.000000
    10  H   -0.000000   0.000071  -0.000000  -0.000000
    11  C   -0.000000   0.000000  -0.000000   0.000000
    12  C   -0.000000  -0.000000   0.000000  -0.000000
    13  C    0.000020   0.000000  -0.000000  -0.000000
    14  H   -0.000000   0.000071  -0.000000  -0.000000
    15  H    0.000073  -0.000000  -0.000000  -0.000000
    16  H    0.000000   0.000000   0.000000   0.000000
    17  H    0.000000   0.000000   0.000000   0.000000
    18  H    0.000000   0.000000   0.000000   0.000000
    19  N   -0.000000   0.000002  -0.000000   0.000000
    20  C   -0.006466  -0.000000   0.000241   0.000000
    21  C    0.000795   0.000000  -0.000847  -0.000000
    22  C    0.000794   0.000000  -0.000847  -0.000000
    23  C   -0.102549  -0.000000  -0.002567  -0.000000
    24  C   -0.102549  -0.000000  -0.002567  -0.000000
    25  C    0.286766   0.000000  -0.094582   0.000000
    26  H   -0.010181  -0.000000   0.001073   0.000000
    27  H   -0.010181  -0.000000   0.001073   0.000000
    28  H   -0.000203   0.000000  -0.000004   0.000000
    29  H   -0.000203   0.000000  -0.000004   0.000000
    30  H    0.000000   0.000000   0.000000   0.000000
    31  N    0.000037  -0.000000   0.000000  -0.000000
    32  C   -0.000000  -0.006271   0.000000   0.000224
    33  C    0.000000   0.000301  -0.000000  -0.000812
    34  C    0.000000   0.000301  -0.000000  -0.000812
    35  C   -0.000000  -0.100116  -0.000000  -0.002609
    36  H    0.000000  -0.000169   0.000000  -0.000003
    37  C   -0.000000  -0.100114  -0.000000  -0.002609
    38  H    0.000000  -0.000169   0.000000  -0.000003
    39  C    0.000000   0.286506   0.000000  -0.095021
    40  H   -0.000000  -0.009966   0.000000   0.001070
    41  H   -0.000000  -0.009966   0.000000   0.001070
    42  H    0.000073  -0.000000  -0.000000  -0.000000
    43  C    5.151056   0.000000   0.582534  -0.000000
    44  C    0.000000   5.148744  -0.000000   0.581643
    45  N    0.582534  -0.000000   7.019973   0.000000
    46  N   -0.000000   0.581643   0.000000   7.020526
 Mulliken charges:
               1
     1  C   -0.153818
     2  C   -0.157067
     3  C    0.198594
     4  C    0.177926
     5  C   -0.168125
     6  C   -0.147258
     7  C    0.177937
     8  C    0.198584
     9  C   -0.157057
    10  H    0.121514
    11  C   -0.153824
    12  C   -0.147249
    13  C   -0.168139
    14  H    0.121515
    15  H    0.123275
    16  H    0.087771
    17  H    0.087492
    18  H    0.087771
    19  N   -0.169278
    20  C    0.143786
    21  C   -0.221383
    22  C   -0.221359
    23  C   -0.114580
    24  C   -0.114586
    25  C    0.418921
    26  H    0.100506
    27  H    0.100506
    28  H    0.108393
    29  H    0.108393
    30  H    0.087492
    31  N   -0.185312
    32  C    0.122040
    33  C   -0.226718
    34  C   -0.226684
    35  C   -0.104106
    36  H    0.105838
    37  C   -0.104110
    38  H    0.105836
    39  C    0.418769
    40  H    0.100710
    41  H    0.100709
    42  H    0.123277
    43  C    0.210160
    44  C    0.209076
    45  N   -0.503476
    46  N   -0.502665
 Sum of Mulliken charges =  -0.00000
 Mulliken charges with hydrogens summed into heavy atoms:
               1
     1  C   -0.066326
     2  C   -0.035551
     3  C    0.198594
     4  C    0.177926
     5  C   -0.044850
     6  C   -0.059486
     7  C    0.177937
     8  C    0.198584
     9  C   -0.035543
    11  C   -0.066333
    12  C   -0.059478
    13  C   -0.044862
    19  N   -0.169278
    20  C    0.143786
    21  C   -0.112990
    22  C   -0.112966
    23  C   -0.014074
    24  C   -0.014080
    25  C    0.418921
    31  N   -0.185312
    32  C    0.122040
    33  C   -0.120879
    34  C   -0.120848
    35  C   -0.003396
    37  C   -0.003400
    39  C    0.418769
    43  C    0.210160
    44  C    0.209076
    45  N   -0.503476
    46  N   -0.502665
 Electronic spatial extent (au):  <R**2>=          14196.1251
 Charge=              0.0000 electrons
 Dipole moment (field-independent basis, Debye):
    X=             -0.1452    Y=              0.0000    Z=             -0.0002  Tot=              0.1452
 Quadrupole moment (field-independent basis, Debye-Ang):
   XX=           -292.6623   YY=           -169.9363   ZZ=           -158.4807
   XY=              0.0002   XZ=             -0.0007   YZ=             -0.7618
 Traceless Quadrupole moment (field-independent basis, Debye-Ang):
   XX=            -85.6359   YY=             37.0901   ZZ=             48.5457
   XY=              0.0002   XZ=             -0.0007   YZ=             -0.7618
 Octapole moment (field-independent basis, Debye-Ang**2):
  XXX=             -6.6697  YYY=              0.0002  ZZZ=              0.0040  XYY=              1.3079
  XXY=              0.0021  XXZ=             -0.0232  XZZ=             -1.6003  YZZ=             -0.0002
  YYZ=             -0.0017  XYZ=            -14.3890
 Hexadecapole moment (field-independent basis, Debye-Ang**3):
 XXXX=         -29709.8889 YYYY=          -3004.9899 ZZZZ=           -584.5326 XXXY=              0.0046
 XXXZ=             -0.0394 YYYX=              0.0002 YYYZ=              3.9469 ZZZX=             -0.0008
 ZZZY=             -6.7038 XXYY=          -3200.1027 XXZZ=          -2467.5400 YYZZ=           -720.2827
 XXYZ=            -17.1412 YYXZ=             -0.0020 ZZXY=             -0.0009
 N-N= 2.546022708055D+03 E-N=-7.922651881334D+03  KE= 1.214637577738D+03
 Leave Link  601 at Tue Nov 30 01:04:19 2021, MaxMem=  5242880000 cpu:         6.3
 (Enter /opt/nce/packages/global/g09/l9999.exe)
 1\1\GINC-CN007\SP\RM06L TD-FC\Gen\C26H16N4\PNG4RJV\30-Nov-2021\0\\#p m
 06l chkbasis geom=allcheck Guess=Read int=ultrafine scrf=(SMD,solvent=
 n,n-DiMethylFormamide) td=(NStates=30)\\Title\\0,1\C,0,0.6918008968,3.
 6406060851,0.1544435917\C,0,1.3803888112,2.4307584096,0.1228846209\C,0
 ,0.7038811767,1.2194368033,0.0546678615\C,0,-0.7047799946,1.2206314911
 ,0.0428720303\C,0,-1.3778182811,2.4356069533,0.0580524646\C,0,-0.68651
 1955,3.6431720487,0.1139891327\C,0,-0.7047661863,-1.2206265617,-0.0430
 535032\C,0,0.7038958073,-1.2194141408,-0.0547971963\C,0,1.3804213074,-
 2.4307236656,-0.1230512942\H,0,2.4614825953,-2.4307423219,-0.149653266
 2\C,0,0.691850318,-3.6405787,-0.1546945778\C,0,-0.6864639233,-3.643163
 5247,-0.1142956207\C,0,-1.3777879493,-2.4356100099,-0.0583275777\H,0,2
 .4614489027,2.4307926452,0.1495331416\H,0,-2.4585184825,2.44211046,0.0
 247316835\H,0,-1.2412010755,4.5721351113,0.1260899135\H,0,1.2481408489
 ,-4.5672230988,-0.2064403596\H,0,-1.241141034,-4.5721328246,-0.1264628
 529\N,0,1.3875927337,0.0000133726,-0.0000100892\C,0,-2.813834754,-0.00
 0005843,-0.0000420289\C,0,-3.5051548976,-0.2154176836,-1.1868422238\C,
 0,-3.5051183621,0.2154106441,1.1867782598\C,0,-4.8859464589,-0.2187682
 855,-1.1918949495\C,0,-4.8859097423,0.2187642693,1.1918726774\C,0,-5.5
 822425729,-0.0000015542,-0.0000004276\H,0,-5.4311673552,-0.3840583959,
 -2.111073583\H,0,-5.4311023939,0.3840564263,2.1110675165\H,0,-2.953180
 4326,-0.383028036,-2.1026631964\H,0,-2.9531154805,0.3830217568,2.10258
 16906\H,0,1.2480777138,4.5672599697,0.2061686756\N,0,-1.3900304714,-0.
 0000023804,-0.0000598184\C,0,2.8124368241,0.0000180215,0.0000127777\C,
 0,3.5024839171,0.2132695678,-1.1873075832\C,0,3.502441339,-0.213233409
 8,1.1873571533\C,0,4.883541745,0.2157864837,-1.1926042821\H,0,2.949597
 0983,0.378943256,-2.1029569863\C,0,4.8834992444,-0.2157475418,1.192703
 4696\H,0,2.9495216452,-0.3789093524,2.1029862218\C,0,5.5791719762,0.00
 00203824,0.0000623762\H,0,5.4291706528,0.3800165156,-2.1117162232\H,0,
 5.4290951726,-0.3799769586,2.1118350733\H,0,-2.458489131,-2.4421306819
 ,-0.0250488333\C,0,-7.0019182958,-0.0000004378,0.0000219301\C,0,6.9991
 582056,0.0000223337,0.0000891478\N,0,-8.1590215609,0.0000003107,0.0000
 394827\N,0,8.1561528588,0.0000240912,0.0001105807\\Version=ES64L-G09Re
 vE.01\State=1-A\HF=-1219.6823065\RMSD=5.618e-09\PG=C01 [X(C26H16N4)]\\
 @


 THERE'S SMALL CHOICE IN A BOWL OF ROTTEN APPLES.
                     SHAKESPEARE
 Job cpu time:       1 days 18 hours  6 minutes 21.0 seconds.
 File lengths (MBytes):  RWF=   3984 Int=      0 D2E=      0 Chk=    937 Scr=      1
 Normal termination of Gaussian 09 at Tue Nov 30 01:04:20 2021.
