 Entering Gaussian System, Link 0=g09
 Input=/home/png4rjv/fotokatalizis/benchmark/OPCs/PA_3_B3LYP-D3_def2TZVP.gjf
 Output=/home/png4rjv/fotokatalizis/benchmark/OPCs/PA_3_B3LYP-D3_def2TZVP.log
 Initial command:
 /opt/nce/packages/global/g09/l1.exe "/home/png4rjv/fotokatalizis/benchmark/OPCs/PA_3_B3LYP-D3_def2TZVP/Gau-2879.inp" -scrdir="/home/png4rjv/fotokatalizis/benchmark/OPCs/PA_3_B3LYP-D3_def2TZVP/"
 Default is to use a total of  12 processors:
                               12 via shared-memory
                                1 via Linda
 Entering Link 1 = /opt/nce/packages/global/g09/l1.exe PID=      2880.
  
 Copyright (c) 1988,1990,1992,1993,1995,1998,2003,2009,2015,
            Gaussian, Inc.  All Rights Reserved.
  
 This is part of the Gaussian(R) 09 program.  It is based on
 the Gaussian(R) 03 system (copyright 2003, Gaussian, Inc.),
 the Gaussian(R) 98 system (copyright 1998, Gaussian, Inc.),
 the Gaussian(R) 94 system (copyright 1995, Gaussian, Inc.),
 the Gaussian 92(TM) system (copyright 1992, Gaussian, Inc.),
 the Gaussian 90(TM) system (copyright 1990, Gaussian, Inc.),
 the Gaussian 88(TM) system (copyright 1988, Gaussian, Inc.),
 the Gaussian 86(TM) system (copyright 1986, Carnegie Mellon
 University), and the Gaussian 82(TM) system (copyright 1983,
 Carnegie Mellon University). Gaussian is a federally registered
 trademark of Gaussian, Inc.
  
 This software contains proprietary and confidential information,
 including trade secrets, belonging to Gaussian, Inc.
  
 This software is provided under written license and may be
 used, copied, transmitted, or stored only in accord with that
 written license.
  
 The following legend is applicable only to US Government
 contracts under FAR:
  
                    RESTRICTED RIGHTS LEGEND
  
 Use, reproduction and disclosure by the US Government is
 subject to restrictions as set forth in subparagraphs (a)
 and (c) of the Commercial Computer Software - Restricted
 Rights clause in FAR 52.227-19.
  
 Gaussian, Inc.
 340 Quinnipiac St., Bldg. 40, Wallingford CT 06492
  
  
 ---------------------------------------------------------------
 Warning -- This program may not be used in any manner that
 competes with the business of Gaussian, Inc. or will provide
 assistance to any competitor of Gaussian, Inc.  The licensee
 of this program is prohibited from giving any competitor of
 Gaussian, Inc. access to this program.  By using this program,
 the user acknowledges that Gaussian, Inc. is engaged in the
 business of creating and licensing software in the field of
 computational chemistry and represents and warrants to the
 licensee that it is not a competitor of Gaussian, Inc. and that
 it will not use this program in any manner prohibited above.
 ---------------------------------------------------------------
  

 Cite this work as:
 Gaussian 09, Revision E.01,
 M. J. Frisch, G. W. Trucks, H. B. Schlegel, G. E. Scuseria, 
 M. A. Robb, J. R. Cheeseman, G. Scalmani, V. Barone, B. Mennucci, 
 G. A. Petersson, H. Nakatsuji, M. Caricato, X. Li, H. P. Hratchian, 
 A. F. Izmaylov, J. Bloino, G. Zheng, J. L. Sonnenberg, M. Hada, 
 M. Ehara, K. Toyota, R. Fukuda, J. Hasegawa, M. Ishida, T. Nakajima, 
 Y. Honda, O. Kitao, H. Nakai, T. Vreven, J. A. Montgomery, Jr., 
 J. E. Peralta, F. Ogliaro, M. Bearpark, J. J. Heyd, E. Brothers, 
 K. N. Kudin, V. N. Staroverov, T. Keith, R. Kobayashi, J. Normand, 
 K. Raghavachari, A. Rendell, J. C. Burant, S. S. Iyengar, J. Tomasi, 
 M. Cossi, N. Rega, J. M. Millam, M. Klene, J. E. Knox, J. B. Cross, 
 V. Bakken, C. Adamo, J. Jaramillo, R. Gomperts, R. E. Stratmann, 
 O. Yazyev, A. J. Austin, R. Cammi, C. Pomelli, J. W. Ochterski, 
 R. L. Martin, K. Morokuma, V. G. Zakrzewski, G. A. Voth, 
 P. Salvador, J. J. Dannenberg, S. Dapprich, A. D. Daniels, 
 O. Farkas, J. B. Foresman, J. V. Ortiz, J. Cioslowski, 
 and D. J. Fox, Gaussian, Inc., Wallingford CT, 2013.
 
 ******************************************
 Gaussian 09:  ES64L-G09RevE.01 30-Nov-2015
                15-Feb-2021 
 ******************************************
 %chk=cp.chk
 Default route:  MaxDisk=500GB
 ----------------------------------------------------------------------
 #p b3lyp/def2TZVP opt freq=noraman nosymm int=ultrafine scrf=(SMD,solv
 ent=n,n-DiMethylFormamide) EmpiricalDispersion=GD3BJ
 ----------------------------------------------------------------------
 1/14=-1,18=20,19=15,26=4,38=1/1,3;
 2/9=110,12=2,15=1,17=6,18=5,40=1/2;
 3/5=44,7=101,11=2,16=1,25=1,30=1,70=32201,71=1,72=148,74=-5,75=-5,124=41/1,2,3;
 4//1;
 5/5=2,38=5,53=148/2;
 6/7=2,8=2,9=2,10=2,28=1/1;
 7/30=1/1,2,3,16;
 1/14=-1,18=20,19=15,26=4/3(2);
 2/9=110,15=1/2;
 99//99;
 2/9=110,15=1/2;
 3/5=44,7=101,11=2,16=1,25=1,30=1,70=32205,71=1,72=148,74=-5,75=-5,124=41/1,2,3;
 4/5=5,16=3,69=1/1;
 5/5=2,38=5,53=148/2;
 7/30=1/1,2,3,16;
 1/14=-1,18=20,19=15,26=4/3(-5);
 2/9=110,15=1/2;
 6/7=2,8=2,9=2,10=2,19=2,28=1/1;
 99/9=1/99;
 Leave Link    1 at Mon Feb 15 02:32:47 2021, MaxMem=           0 cpu:         2.1
 (Enter /opt/nce/packages/global/g09/l101.exe)
 -----
 Title
 -----
 Symbolic Z-matrix:
 Charge =  0 Multiplicity = 1
 C                     0.69425   3.66776   0.00005 
 C                     1.38974   2.45049   0.00015 
 C                     0.70886   1.22971  -0.00056 
 C                    -0.70886   1.2297   -0.00121 
 C                    -1.3898    2.45045  -0.00139 
 C                    -0.69436   3.66775  -0.00076 
 C                    -0.70885  -1.22963  -0.00122 
 C                     0.70887  -1.22961  -0.00072 
 C                     1.3898   -2.45036  -0.00039 
 H                     2.47918  -2.45283  -0.0001 
 C                     0.69436  -3.66766  -0.0004 
 C                    -0.69425  -3.66769  -0.00074 
 C                    -1.38974  -2.45041  -0.00114 
 H                     2.47911   2.45306   0.00077 
 H                    -2.47917   2.45294  -0.00203 
 H                    -1.25344   4.60549  -0.00091 
 H                     1.25346  -4.60539  -0.00014 
 H                    -1.25332  -4.60543  -0.00072 
 N                     1.396     0.00003  -0.00068 
 C                    -2.82011   0.00001  -0.00085 
 C                    -3.52106  -0.00051  -1.21268 
 C                    -3.51939   0.0005    1.21196 
 C                    -4.91364  -0.00057  -1.2172 
 C                    -4.91195   0.00049   1.2184 
 C                    -5.61743  -0.00005   0.00108 
 H                    -5.46504  -0.00098  -2.15871 
 H                    -5.46206   0.00087   2.16067 
 H                    -2.96026  -0.00089  -2.14867 
 H                    -2.95733   0.00089   2.14719 
 H                     1.25332   4.6055    0.0006 
 N                    -1.396     0.00003  -0.00183 
 C                     2.8201   0.        -0.00015 
 C                     3.52066   0.00089  -1.21222 
 C                     3.51979  -0.00094   1.21241 
 C                     4.91323   0.00091  -1.21721 
 H                     2.95954   0.00158  -2.14803 
 C                     4.91236  -0.00097   1.2184 
 H                     2.95803  -0.00165   2.14784 
 C                     5.61743  -0.00003   0.00085 
 H                     5.46432   0.00161  -2.1589 
 H                     5.46278  -0.00169   2.16049 
 H                    -2.4791   -2.45296  -0.00142 
 C                    -7.05297  -0.00009   0.00208 
 C                     7.05297  -0.00004   0.00135 
 N                    -8.21367  -0.00012   0.00288 
 N                     8.21366  -0.00004   0.00175 
 
 NAtoms=     46 NQM=       46 NQMF=       0 NMMI=      0 NMMIF=      0
                NMic=       0 NMicF=      0.
                    Isotopes and Nuclear Properties:
 (Nuclear quadrupole moments (NQMom) in fm**2, nuclear magnetic moments (NMagM)
  in nuclear magnetons)

  Atom         1           2           3           4           5           6           7           8           9          10
 IAtWgt=          12          12          12          12          12          12          12          12          12           1
 AtmWgt=  12.0000000  12.0000000  12.0000000  12.0000000  12.0000000  12.0000000  12.0000000  12.0000000  12.0000000   1.0078250
 NucSpn=           0           0           0           0           0           0           0           0           0           1
 AtZEff=   0.0000000   0.0000000   0.0000000   0.0000000   0.0000000   0.0000000   0.0000000   0.0000000   0.0000000   0.0000000
 NQMom=    0.0000000   0.0000000   0.0000000   0.0000000   0.0000000   0.0000000   0.0000000   0.0000000   0.0000000   0.0000000
 NMagM=    0.0000000   0.0000000   0.0000000   0.0000000   0.0000000   0.0000000   0.0000000   0.0000000   0.0000000   2.7928460
 AtZNuc=   6.0000000   6.0000000   6.0000000   6.0000000   6.0000000   6.0000000   6.0000000   6.0000000   6.0000000   1.0000000

  Atom        11          12          13          14          15          16          17          18          19          20
 IAtWgt=          12          12          12           1           1           1           1           1          14          12
 AtmWgt=  12.0000000  12.0000000  12.0000000   1.0078250   1.0078250   1.0078250   1.0078250   1.0078250  14.0030740  12.0000000
 NucSpn=           0           0           0           1           1           1           1           1           2           0
 AtZEff=   0.0000000   0.0000000   0.0000000   0.0000000   0.0000000   0.0000000   0.0000000   0.0000000   0.0000000   0.0000000
 NQMom=    0.0000000   0.0000000   0.0000000   0.0000000   0.0000000   0.0000000   0.0000000   0.0000000   2.0440000   0.0000000
 NMagM=    0.0000000   0.0000000   0.0000000   2.7928460   2.7928460   2.7928460   2.7928460   2.7928460   0.4037610   0.0000000
 AtZNuc=   6.0000000   6.0000000   6.0000000   1.0000000   1.0000000   1.0000000   1.0000000   1.0000000   7.0000000   6.0000000

  Atom        21          22          23          24          25          26          27          28          29          30
 IAtWgt=          12          12          12          12          12           1           1           1           1           1
 AtmWgt=  12.0000000  12.0000000  12.0000000  12.0000000  12.0000000   1.0078250   1.0078250   1.0078250   1.0078250   1.0078250
 NucSpn=           0           0           0           0           0           1           1           1           1           1
 AtZEff=   0.0000000   0.0000000   0.0000000   0.0000000   0.0000000   0.0000000   0.0000000   0.0000000   0.0000000   0.0000000
 NQMom=    0.0000000   0.0000000   0.0000000   0.0000000   0.0000000   0.0000000   0.0000000   0.0000000   0.0000000   0.0000000
 NMagM=    0.0000000   0.0000000   0.0000000   0.0000000   0.0000000   2.7928460   2.7928460   2.7928460   2.7928460   2.7928460
 AtZNuc=   6.0000000   6.0000000   6.0000000   6.0000000   6.0000000   1.0000000   1.0000000   1.0000000   1.0000000   1.0000000

  Atom        31          32          33          34          35          36          37          38          39          40
 IAtWgt=          14          12          12          12          12           1          12           1          12           1
 AtmWgt=  14.0030740  12.0000000  12.0000000  12.0000000  12.0000000   1.0078250  12.0000000   1.0078250  12.0000000   1.0078250
 NucSpn=           2           0           0           0           0           1           0           1           0           1
 AtZEff=   0.0000000   0.0000000   0.0000000   0.0000000   0.0000000   0.0000000   0.0000000   0.0000000   0.0000000   0.0000000
 NQMom=    2.0440000   0.0000000   0.0000000   0.0000000   0.0000000   0.0000000   0.0000000   0.0000000   0.0000000   0.0000000
 NMagM=    0.4037610   0.0000000   0.0000000   0.0000000   0.0000000   2.7928460   0.0000000   2.7928460   0.0000000   2.7928460
 AtZNuc=   7.0000000   6.0000000   6.0000000   6.0000000   6.0000000   1.0000000   6.0000000   1.0000000   6.0000000   1.0000000

  Atom        41          42          43          44          45          46
 IAtWgt=           1           1          12          12          14          14
 AtmWgt=   1.0078250   1.0078250  12.0000000  12.0000000  14.0030740  14.0030740
 NucSpn=           1           1           0           0           2           2
 AtZEff=   0.0000000   0.0000000   0.0000000   0.0000000   0.0000000   0.0000000
 NQMom=    0.0000000   0.0000000   0.0000000   0.0000000   2.0440000   2.0440000
 NMagM=    2.7928460   2.7928460   0.0000000   0.0000000   0.4037610   0.4037610
 AtZNuc=   1.0000000   1.0000000   6.0000000   6.0000000   7.0000000   7.0000000
 Leave Link  101 at Mon Feb 15 02:32:47 2021, MaxMem=  5242880000 cpu:         5.2
 (Enter /opt/nce/packages/global/g09/l103.exe)

 GradGradGradGradGradGradGradGradGradGradGradGradGradGradGradGradGradGrad
 Berny optimization.
 Initialization pass.
                           ----------------------------
                           !    Initial Parameters    !
                           ! (Angstroms and Degrees)  !
 --------------------------                            --------------------------
 ! Name  Definition              Value          Derivative Info.                !
 --------------------------------------------------------------------------------
 ! R1    R(1,2)                  1.402          estimate D2E/DX2                !
 ! R2    R(1,6)                  1.3886         estimate D2E/DX2                !
 ! R3    R(1,30)                 1.0917         estimate D2E/DX2                !
 ! R4    R(2,3)                  1.3978         estimate D2E/DX2                !
 ! R5    R(2,14)                 1.0894         estimate D2E/DX2                !
 ! R6    R(3,4)                  1.4177         estimate D2E/DX2                !
 ! R7    R(3,19)                 1.4086         estimate D2E/DX2                !
 ! R8    R(4,5)                  1.3978         estimate D2E/DX2                !
 ! R9    R(4,31)                 1.4086         estimate D2E/DX2                !
 ! R10   R(5,6)                  1.402          estimate D2E/DX2                !
 ! R11   R(5,15)                 1.0894         estimate D2E/DX2                !
 ! R12   R(6,16)                 1.0918         estimate D2E/DX2                !
 ! R13   R(7,8)                  1.4177         estimate D2E/DX2                !
 ! R14   R(7,13)                 1.3978         estimate D2E/DX2                !
 ! R15   R(7,31)                 1.4086         estimate D2E/DX2                !
 ! R16   R(8,9)                  1.3978         estimate D2E/DX2                !
 ! R17   R(8,19)                 1.4086         estimate D2E/DX2                !
 ! R18   R(9,10)                 1.0894         estimate D2E/DX2                !
 ! R19   R(9,11)                 1.402          estimate D2E/DX2                !
 ! R20   R(11,12)                1.3886         estimate D2E/DX2                !
 ! R21   R(11,17)                1.0918         estimate D2E/DX2                !
 ! R22   R(12,13)                1.402          estimate D2E/DX2                !
 ! R23   R(12,18)                1.0918         estimate D2E/DX2                !
 ! R24   R(13,42)                1.0894         estimate D2E/DX2                !
 ! R25   R(19,32)                1.4241         estimate D2E/DX2                !
 ! R26   R(20,21)                1.4            estimate D2E/DX2                !
 ! R27   R(20,22)                1.4            estimate D2E/DX2                !
 ! R28   R(20,31)                1.4241         estimate D2E/DX2                !
 ! R29   R(21,23)                1.3926         estimate D2E/DX2                !
 ! R30   R(21,28)                1.0911         estimate D2E/DX2                !
 ! R31   R(22,24)                1.3926         estimate D2E/DX2                !
 ! R32   R(22,29)                1.0911         estimate D2E/DX2                !
 ! R33   R(23,25)                1.407          estimate D2E/DX2                !
 ! R34   R(23,26)                1.0911         estimate D2E/DX2                !
 ! R35   R(24,25)                1.407          estimate D2E/DX2                !
 ! R36   R(24,27)                1.0911         estimate D2E/DX2                !
 ! R37   R(25,43)                1.4355         estimate D2E/DX2                !
 ! R38   R(32,33)                1.4            estimate D2E/DX2                !
 ! R39   R(32,34)                1.4            estimate D2E/DX2                !
 ! R40   R(33,35)                1.3926         estimate D2E/DX2                !
 ! R41   R(33,36)                1.0911         estimate D2E/DX2                !
 ! R42   R(34,37)                1.3926         estimate D2E/DX2                !
 ! R43   R(34,38)                1.0911         estimate D2E/DX2                !
 ! R44   R(35,39)                1.407          estimate D2E/DX2                !
 ! R45   R(35,40)                1.0911         estimate D2E/DX2                !
 ! R46   R(37,39)                1.407          estimate D2E/DX2                !
 ! R47   R(37,41)                1.0911         estimate D2E/DX2                !
 ! R48   R(39,44)                1.4355         estimate D2E/DX2                !
 ! R49   R(43,45)                1.1607         estimate D2E/DX2                !
 ! R50   R(44,46)                1.1607         estimate D2E/DX2                !
 ! A1    A(2,1,6)              119.741          estimate D2E/DX2                !
 ! A2    A(2,1,30)             119.4555         estimate D2E/DX2                !
 ! A3    A(6,1,30)             120.8035         estimate D2E/DX2                !
 ! A4    A(1,2,3)              121.108          estimate D2E/DX2                !
 ! A5    A(1,2,14)             119.6061         estimate D2E/DX2                !
 ! A6    A(3,2,14)             119.2859         estimate D2E/DX2                !
 ! A7    A(2,3,4)              119.1508         estimate D2E/DX2                !
 ! A8    A(2,3,19)             121.653          estimate D2E/DX2                !
 ! A9    A(4,3,19)             119.1962         estimate D2E/DX2                !
 ! A10   A(3,4,5)              119.1528         estimate D2E/DX2                !
 ! A11   A(3,4,31)             119.1965         estimate D2E/DX2                !
 ! A12   A(5,4,31)             121.6507         estimate D2E/DX2                !
 ! A13   A(4,5,6)              121.1076         estimate D2E/DX2                !
 ! A14   A(4,5,15)             119.2841         estimate D2E/DX2                !
 ! A15   A(6,5,15)             119.6083         estimate D2E/DX2                !
 ! A16   A(1,6,5)              119.7398         estimate D2E/DX2                !
 ! A17   A(1,6,16)             120.8033         estimate D2E/DX2                !
 ! A18   A(5,6,16)             119.4569         estimate D2E/DX2                !
 ! A19   A(8,7,13)             119.151          estimate D2E/DX2                !
 ! A20   A(8,7,31)             119.1963         estimate D2E/DX2                !
 ! A21   A(13,7,31)            121.6527         estimate D2E/DX2                !
 ! A22   A(7,8,9)              119.1523         estimate D2E/DX2                !
 ! A23   A(7,8,19)             119.1975         estimate D2E/DX2                !
 ! A24   A(9,8,19)             121.6502         estimate D2E/DX2                !
 ! A25   A(8,9,10)             119.2834         estimate D2E/DX2                !
 ! A26   A(8,9,11)             121.1079         estimate D2E/DX2                !
 ! A27   A(10,9,11)            119.6087         estimate D2E/DX2                !
 ! A28   A(9,11,12)            119.74           estimate D2E/DX2                !
 ! A29   A(9,11,17)            119.4563         estimate D2E/DX2                !
 ! A30   A(12,11,17)           120.8036         estimate D2E/DX2                !
 ! A31   A(11,12,13)           119.7405         estimate D2E/DX2                !
 ! A32   A(11,12,18)           120.804          estimate D2E/DX2                !
 ! A33   A(13,12,18)           119.4555         estimate D2E/DX2                !
 ! A34   A(7,13,12)            121.1083         estimate D2E/DX2                !
 ! A35   A(7,13,42)            119.2847         estimate D2E/DX2                !
 ! A36   A(12,13,42)           119.6071         estimate D2E/DX2                !
 ! A37   A(3,19,8)             121.6067         estimate D2E/DX2                !
 ! A38   A(3,19,32)            119.1979         estimate D2E/DX2                !
 ! A39   A(8,19,32)            119.1953         estimate D2E/DX2                !
 ! A40   A(21,20,22)           119.9866         estimate D2E/DX2                !
 ! A41   A(21,20,31)           120.0067         estimate D2E/DX2                !
 ! A42   A(22,20,31)           120.0066         estimate D2E/DX2                !
 ! A43   A(20,21,23)           120.2322         estimate D2E/DX2                !
 ! A44   A(20,21,28)           119.0258         estimate D2E/DX2                !
 ! A45   A(23,21,28)           120.742          estimate D2E/DX2                !
 ! A46   A(20,22,24)           120.2324         estimate D2E/DX2                !
 ! A47   A(20,22,29)           119.0273         estimate D2E/DX2                !
 ! A48   A(24,22,29)           120.7404         estimate D2E/DX2                !
 ! A49   A(21,23,25)           119.8287         estimate D2E/DX2                !
 ! A50   A(21,23,26)           120.5414         estimate D2E/DX2                !
 ! A51   A(25,23,26)           119.63           estimate D2E/DX2                !
 ! A52   A(22,24,25)           119.8286         estimate D2E/DX2                !
 ! A53   A(22,24,27)           120.5417         estimate D2E/DX2                !
 ! A54   A(25,24,27)           119.6298         estimate D2E/DX2                !
 ! A55   A(23,25,24)           119.8915         estimate D2E/DX2                !
 ! A56   A(23,25,43)           120.0543         estimate D2E/DX2                !
 ! A57   A(24,25,43)           120.0541         estimate D2E/DX2                !
 ! A58   A(4,31,7)             121.6068         estimate D2E/DX2                !
 ! A59   A(4,31,20)            119.1968         estimate D2E/DX2                !
 ! A60   A(7,31,20)            119.1963         estimate D2E/DX2                !
 ! A61   A(19,32,33)           120.0062         estimate D2E/DX2                !
 ! A62   A(19,32,34)           120.0076         estimate D2E/DX2                !
 ! A63   A(33,32,34)           119.9861         estimate D2E/DX2                !
 ! A64   A(32,33,35)           120.2325         estimate D2E/DX2                !
 ! A65   A(32,33,36)           119.0257         estimate D2E/DX2                !
 ! A66   A(35,33,36)           120.7418         estimate D2E/DX2                !
 ! A67   A(32,34,37)           120.2326         estimate D2E/DX2                !
 ! A68   A(32,34,38)           119.027          estimate D2E/DX2                !
 ! A69   A(37,34,38)           120.7404         estimate D2E/DX2                !
 ! A70   A(33,35,39)           119.8286         estimate D2E/DX2                !
 ! A71   A(33,35,40)           120.542          estimate D2E/DX2                !
 ! A72   A(39,35,40)           119.6294         estimate D2E/DX2                !
 ! A73   A(34,37,39)           119.8285         estimate D2E/DX2                !
 ! A74   A(34,37,41)           120.5417         estimate D2E/DX2                !
 ! A75   A(39,37,41)           119.6298         estimate D2E/DX2                !
 ! A76   A(35,39,37)           119.8918         estimate D2E/DX2                !
 ! A77   A(35,39,44)           120.0537         estimate D2E/DX2                !
 ! A78   A(37,39,44)           120.0545         estimate D2E/DX2                !
 ! A79   L(25,43,45,27,-1)     180.0            estimate D2E/DX2                !
 ! A80   L(39,44,46,40,-1)     179.9999         estimate D2E/DX2                !
 ! A81   L(25,43,45,27,-2)     179.9999         estimate D2E/DX2                !
 ! A82   L(39,44,46,40,-2)     179.9998         estimate D2E/DX2                !
 ! D1    D(6,1,2,3)              0.0005         estimate D2E/DX2                !
 ! D2    D(6,1,2,14)           179.9992         estimate D2E/DX2                !
 ! D3    D(30,1,2,3)          -179.9991         estimate D2E/DX2                !
 ! D4    D(30,1,2,14)           -0.0004         estimate D2E/DX2                !
 ! D5    D(2,1,6,5)              0.0039         estimate D2E/DX2                !
 ! D6    D(2,1,6,16)          -179.9966         estimate D2E/DX2                !
 ! D7    D(30,1,6,5)          -179.9965         estimate D2E/DX2                !
 ! D8    D(30,1,6,16)            0.003          estimate D2E/DX2                !
 ! D9    D(1,2,3,4)             -0.0085         estimate D2E/DX2                !
 ! D10   D(1,2,3,19)           179.99           estimate D2E/DX2                !
 ! D11   D(14,2,3,4)           179.9928         estimate D2E/DX2                !
 ! D12   D(14,2,3,19)           -0.0087         estimate D2E/DX2                !
 ! D13   D(2,3,4,5)              0.012          estimate D2E/DX2                !
 ! D14   D(2,3,4,31)          -179.9953         estimate D2E/DX2                !
 ! D15   D(19,3,4,5)          -179.9866         estimate D2E/DX2                !
 ! D16   D(19,3,4,31)            0.0062         estimate D2E/DX2                !
 ! D17   D(2,3,19,8)           179.9681         estimate D2E/DX2                !
 ! D18   D(2,3,19,32)           -0.0045         estimate D2E/DX2                !
 ! D19   D(4,3,19,8)            -0.0334         estimate D2E/DX2                !
 ! D20   D(4,3,19,32)          179.994          estimate D2E/DX2                !
 ! D21   D(3,4,5,6)             -0.0078         estimate D2E/DX2                !
 ! D22   D(3,4,5,15)           179.9912         estimate D2E/DX2                !
 ! D23   D(31,4,5,6)           179.9997         estimate D2E/DX2                !
 ! D24   D(31,4,5,15)           -0.0014         estimate D2E/DX2                !
 ! D25   D(3,4,31,7)             0.0282         estimate D2E/DX2                !
 ! D26   D(3,4,31,20)          179.9246         estimate D2E/DX2                !
 ! D27   D(5,4,31,7)          -179.9793         estimate D2E/DX2                !
 ! D28   D(5,4,31,20)           -0.0828         estimate D2E/DX2                !
 ! D29   D(4,5,6,1)             -0.0002         estimate D2E/DX2                !
 ! D30   D(4,5,6,16)          -179.9997         estimate D2E/DX2                !
 ! D31   D(15,5,6,1)          -179.9991         estimate D2E/DX2                !
 ! D32   D(15,5,6,16)            0.0013         estimate D2E/DX2                !
 ! D33   D(13,7,8,9)             0.0103         estimate D2E/DX2                !
 ! D34   D(13,7,8,19)         -179.9942         estimate D2E/DX2                !
 ! D35   D(31,7,8,9)          -179.9875         estimate D2E/DX2                !
 ! D36   D(31,7,8,19)            0.008          estimate D2E/DX2                !
 ! D37   D(8,7,13,12)           -0.0075         estimate D2E/DX2                !
 ! D38   D(8,7,13,42)          179.9938         estimate D2E/DX2                !
 ! D39   D(31,7,13,12)         179.9903         estimate D2E/DX2                !
 ! D40   D(31,7,13,42)          -0.0084         estimate D2E/DX2                !
 ! D41   D(8,7,31,4)            -0.0353         estimate D2E/DX2                !
 ! D42   D(8,7,31,20)         -179.9318         estimate D2E/DX2                !
 ! D43   D(13,7,31,4)          179.9669         estimate D2E/DX2                !
 ! D44   D(13,7,31,20)           0.0704         estimate D2E/DX2                !
 ! D45   D(7,8,9,10)           179.9944         estimate D2E/DX2                !
 ! D46   D(7,8,9,11)            -0.0063         estimate D2E/DX2                !
 ! D47   D(19,8,9,10)           -0.001          estimate D2E/DX2                !
 ! D48   D(19,8,9,11)          179.9983         estimate D2E/DX2                !
 ! D49   D(7,8,19,3)             0.0263         estimate D2E/DX2                !
 ! D50   D(7,8,19,32)          179.9989         estimate D2E/DX2                !
 ! D51   D(9,8,19,3)          -179.9783         estimate D2E/DX2                !
 ! D52   D(9,8,19,32)           -0.0058         estimate D2E/DX2                !
 ! D53   D(8,9,11,12)           -0.0007         estimate D2E/DX2                !
 ! D54   D(8,9,11,17)          179.9996         estimate D2E/DX2                !
 ! D55   D(10,9,11,12)         179.9985         estimate D2E/DX2                !
 ! D56   D(10,9,11,17)          -0.0011         estimate D2E/DX2                !
 ! D57   D(9,11,12,13)           0.0037         estimate D2E/DX2                !
 ! D58   D(9,11,12,18)        -179.9974         estimate D2E/DX2                !
 ! D59   D(17,11,12,13)       -179.9966         estimate D2E/DX2                !
 ! D60   D(17,11,12,18)          0.0023         estimate D2E/DX2                !
 ! D61   D(11,12,13,7)           0.0004         estimate D2E/DX2                !
 ! D62   D(11,12,13,42)        179.9991         estimate D2E/DX2                !
 ! D63   D(18,12,13,7)        -179.9985         estimate D2E/DX2                !
 ! D64   D(18,12,13,42)          0.0002         estimate D2E/DX2                !
 ! D65   D(3,19,32,33)         -89.9743         estimate D2E/DX2                !
 ! D66   D(3,19,32,34)          90.0264         estimate D2E/DX2                !
 ! D67   D(8,19,32,33)          90.0525         estimate D2E/DX2                !
 ! D68   D(8,19,32,34)         -89.9468         estimate D2E/DX2                !
 ! D69   D(22,20,21,23)         -0.0009         estimate D2E/DX2                !
 ! D70   D(22,20,21,28)        179.9998         estimate D2E/DX2                !
 ! D71   D(31,20,21,23)        179.9981         estimate D2E/DX2                !
 ! D72   D(31,20,21,28)         -0.0012         estimate D2E/DX2                !
 ! D73   D(21,20,22,24)         -0.0013         estimate D2E/DX2                !
 ! D74   D(21,20,22,29)        179.9995         estimate D2E/DX2                !
 ! D75   D(31,20,22,24)        179.9997         estimate D2E/DX2                !
 ! D76   D(31,20,22,29)          0.0005         estimate D2E/DX2                !
 ! D77   D(21,20,31,4)          90.0751         estimate D2E/DX2                !
 ! D78   D(21,20,31,7)         -90.0259         estimate D2E/DX2                !
 ! D79   D(22,20,31,4)         -89.9259         estimate D2E/DX2                !
 ! D80   D(22,20,31,7)          89.9731         estimate D2E/DX2                !
 ! D81   D(20,21,23,25)          0.0021         estimate D2E/DX2                !
 ! D82   D(20,21,23,26)       -179.9998         estimate D2E/DX2                !
 ! D83   D(28,21,23,25)       -179.9986         estimate D2E/DX2                !
 ! D84   D(28,21,23,26)         -0.0005         estimate D2E/DX2                !
 ! D85   D(20,22,24,25)          0.0021         estimate D2E/DX2                !
 ! D86   D(20,22,24,27)       -179.9998         estimate D2E/DX2                !
 ! D87   D(29,22,24,25)       -179.9987         estimate D2E/DX2                !
 ! D88   D(29,22,24,27)         -0.0005         estimate D2E/DX2                !
 ! D89   D(21,23,25,24)         -0.0013         estimate D2E/DX2                !
 ! D90   D(21,23,25,43)        179.9991         estimate D2E/DX2                !
 ! D91   D(26,23,25,24)       -179.9993         estimate D2E/DX2                !
 ! D92   D(26,23,25,43)          0.001          estimate D2E/DX2                !
 ! D93   D(22,24,25,23)         -0.0008         estimate D2E/DX2                !
 ! D94   D(22,24,25,43)        179.9988         estimate D2E/DX2                !
 ! D95   D(27,24,25,23)       -179.999          estimate D2E/DX2                !
 ! D96   D(27,24,25,43)          0.0006         estimate D2E/DX2                !
 ! D97   D(19,32,33,35)        179.9977         estimate D2E/DX2                !
 ! D98   D(19,32,33,36)         -0.0011         estimate D2E/DX2                !
 ! D99   D(34,32,33,35)         -0.003          estimate D2E/DX2                !
 ! D100  D(34,32,33,36)        179.9982         estimate D2E/DX2                !
 ! D101  D(19,32,34,37)       -179.9996         estimate D2E/DX2                !
 ! D102  D(19,32,34,38)          0.0006         estimate D2E/DX2                !
 ! D103  D(33,32,34,37)          0.001          estimate D2E/DX2                !
 ! D104  D(33,32,34,38)       -179.9987         estimate D2E/DX2                !
 ! D105  D(32,33,35,39)          0.0025         estimate D2E/DX2                !
 ! D106  D(32,33,35,40)       -179.9991         estimate D2E/DX2                !
 ! D107  D(36,33,35,39)       -179.9987         estimate D2E/DX2                !
 ! D108  D(36,33,35,40)         -0.0004         estimate D2E/DX2                !
 ! D109  D(32,34,37,39)          0.0014         estimate D2E/DX2                !
 ! D110  D(32,34,37,41)        179.9994         estimate D2E/DX2                !
 ! D111  D(38,34,37,39)       -179.9989         estimate D2E/DX2                !
 ! D112  D(38,34,37,41)         -0.0009         estimate D2E/DX2                !
 ! D113  D(33,35,39,37)         -0.0001         estimate D2E/DX2                !
 ! D114  D(33,35,39,44)        179.9991         estimate D2E/DX2                !
 ! D115  D(40,35,39,37)       -179.9985         estimate D2E/DX2                !
 ! D116  D(40,35,39,44)          0.0007         estimate D2E/DX2                !
 ! D117  D(34,37,39,35)         -0.0018         estimate D2E/DX2                !
 ! D118  D(34,37,39,44)        179.999          estimate D2E/DX2                !
 ! D119  D(41,37,39,35)       -179.9999         estimate D2E/DX2                !
 ! D120  D(41,37,39,44)          0.0009         estimate D2E/DX2                !
 --------------------------------------------------------------------------------
 Trust Radius=3.00D-01 FncErr=1.00D-07 GrdErr=1.00D-06
 Number of steps in this run=    262 maximum allowed number of steps=    276.
 GradGradGradGradGradGradGradGradGradGradGradGradGradGradGradGradGradGrad

 Leave Link  103 at Mon Feb 15 02:32:47 2021, MaxMem=  5242880000 cpu:         0.2
 (Enter /opt/nce/packages/global/g09/l202.exe)
                          Input orientation:                          
 ---------------------------------------------------------------------
 Center     Atomic      Atomic             Coordinates (Angstroms)
 Number     Number       Type             X           Y           Z
 ---------------------------------------------------------------------
      1          6           0        0.694250    3.667763    0.000046
      2          6           0        1.389742    2.450486    0.000148
      3          6           0        0.708856    1.229707   -0.000562
      4          6           0       -0.708862    1.229700   -0.001214
      5          6           0       -1.389803    2.450445   -0.001385
      6          6           0       -0.694357    3.667751   -0.000761
      7          6           0       -0.708854   -1.229626   -0.001222
      8          6           0        0.708866   -1.229609   -0.000724
      9          6           0        1.389804   -2.450355   -0.000388
     10          1           0        2.479178   -2.452834   -0.000098
     11          6           0        0.694364   -3.667662   -0.000403
     12          6           0       -0.694245   -3.667685   -0.000741
     13          6           0       -1.389736   -2.450406   -0.001144
     14          1           0        2.479112    2.453060    0.000769
     15          1           0       -2.479174    2.452935   -0.002032
     16          1           0       -1.253443    4.605486   -0.000909
     17          1           0        1.253464   -4.605390   -0.000142
     18          1           0       -1.253320   -4.605428   -0.000715
     19          7           0        1.395999    0.000033   -0.000677
     20          6           0       -2.820106    0.000010   -0.000849
     21          6           0       -3.521058   -0.000514   -1.212677
     22          6           0       -3.519394    0.000498    1.211956
     23          6           0       -4.913639   -0.000570   -1.217199
     24          6           0       -4.911953    0.000491    1.218401
     25          6           0       -5.617431   -0.000053    0.001082
     26          1           0       -5.465037   -0.000980   -2.158715
     27          1           0       -5.462055    0.000874    2.160675
     28          1           0       -2.960257   -0.000887   -2.148666
     29          1           0       -2.957327    0.000894    2.147188
     30          1           0        1.253318    4.605497    0.000597
     31          7           0       -1.395997    0.000025   -0.001829
     32          6           0        2.820096   -0.000003   -0.000152
     33          6           0        3.520655    0.000887   -1.212219
     34          6           0        3.519791   -0.000942    1.212414
     35          6           0        4.913227    0.000905   -1.217205
     36          1           0        2.959540    0.001583   -2.148031
     37          6           0        4.912361   -0.000974    1.218395
     38          1           0        2.958031   -0.001649    2.147840
     39          6           0        5.617426   -0.000029    0.000848
     40          1           0        5.464322    0.001611   -2.158899
     41          1           0        5.462778   -0.001694    2.160486
     42          1           0       -2.479096   -2.452961   -0.001424
     43          6           0       -7.052971   -0.000089    0.002075
     44          6           0        7.052968   -0.000035    0.001349
     45          7           0       -8.213666   -0.000116    0.002878
     46          7           0        8.213662   -0.000037    0.001752
 ---------------------------------------------------------------------
                    Distance matrix (angstroms):
                    1          2          3          4          5
     1  C    0.000000
     2  C    1.401953   0.000000
     3  C    2.438100   1.397822   0.000000
     4  C    2.812983   2.427851   1.417718   0.000000
     5  C    2.413533   2.779545   2.427874   1.397819   0.000000
     6  C    1.388607   2.413546   2.813017   2.438094   1.401956
     7  C    5.094421   4.236429   2.838701   2.459326   3.742541
     8  C    4.897394   3.742552   2.459316   2.838689   4.236415
     9  C    6.157529   4.900841   3.742532   4.236414   5.634186
    10  H    6.375553   5.022889   4.085970   4.870796   6.245891
    11  C    7.335425   6.157539   4.897390   5.094428   6.463357
    12  C    7.465703   6.463360   5.094423   4.897407   6.157541
    13  C    6.463358   5.634203   4.236428   3.742562   4.900851
    14  H    2.158990   1.089373   2.151837   3.414644   3.868916
    15  H    3.398004   3.868917   3.414648   2.151815   1.089374
    16  H    2.161674   3.410345   3.904677   3.419430   2.159351
    17  H    8.292031   7.057192   5.860457   6.156216   7.534698
    18  H    8.499336   7.534700   6.156211   5.860474   7.057193
    19  N    3.734260   2.450461   1.408639   2.437729   3.710150
    20  C    5.079676   4.871104   3.737075   2.443254   2.837322
    21  C    5.718022   5.620881   4.568899   3.299927   3.466508
    22  C    5.715974   5.618766   4.567193   3.298759   3.465486
    23  C    6.810783   6.871843   5.882707   4.546684   4.461289
    24  C    6.809022   6.870078   5.881355   4.545810   4.460459
    25  C    7.300013   7.423316   6.444705   5.060271   4.886490
    26  H    7.487105   7.593311   6.655011   5.365686   5.222173
    27  H    7.484282   7.590494   6.652903   5.364385   5.220933
    28  H    5.606369   5.435910   4.426184   3.345844   3.617481
    29  H    5.602692   5.432061   4.423088   3.343829   3.615771
    30  H    1.091743   2.159325   3.419415   3.904633   3.410329
    31  N    4.221545   3.710135   2.437730   1.408636   2.450428
    32  C    4.239308   2.837395   2.443260   3.737073   4.871134
    33  C    4.785826   3.465712   3.299140   4.567858   5.619524
    34  C    4.786744   3.466439   3.299570   4.568247   5.620206
    35  C    5.720779   4.460644   4.546087   5.881875   6.870710
    36  H    4.815252   3.616084   3.344472   4.424282   5.433397
    37  C    5.721579   4.461236   4.546415   5.882189   6.871287
    38  H    4.816877   3.617330   3.345244   4.425015   5.434666
    39  C    6.139248   4.886546   5.060268   6.444700   7.423347
    40  H    6.391815   5.221176   5.364802   6.653721   7.591488
    41  H    6.393065   5.222056   5.365282   6.654203   7.592400
    42  H    6.894446   6.245935   4.870840   4.086040   5.022942
    43  C    8.571615   8.791173   7.858649   6.462206   6.170624
    44  C    7.340711   6.170671   6.462200   7.858642   8.791203
    45  N    9.633499   9.911150   9.006879   7.604903   7.250543
    46  N    8.366261   7.250583   7.604892   9.006869   9.911176
                    6          7          8          9         10
     6  C    0.000000
     7  C    4.897398   0.000000
     8  C    5.094425   1.417720   0.000000
     9  C    6.463354   2.427868   1.397819   0.000000
    10  H    6.894410   3.414643   2.151810   1.089377   0.000000
    11  C    7.465710   2.813013   2.438096   1.401953   2.159020
    12  C    7.335436   2.438103   2.812994   2.413535   3.398011
    13  C    6.157548   1.397821   2.427854   2.779540   3.868915
    14  H    3.397997   4.870863   4.086052   5.022955   4.905894
    15  H    2.159016   4.085987   4.870804   6.245898   6.975086
    16  H    1.091753   5.860470   6.156216   7.534696   7.984506
    17  H    8.499345   3.904674   3.419428   2.159344   2.477069
    18  H    8.292040   3.419427   3.904655   3.410344   4.308736
    19  N    4.221581   2.437718   1.408606   2.450396   2.681387
    20  C    4.239237   2.443233   3.737059   4.871102   5.839423
    21  C    4.786977   3.299520   4.568562   5.620314   6.594471
    22  C    4.785422   3.299112   4.567487   5.619313   6.593237
    23  C    5.721769   4.546361   5.882424   6.871351   7.883443
    24  C    5.720426   4.546065   5.881583   6.870534   7.882408
    25  C    6.139173   5.060235   6.444676   7.423296   8.459977
    26  H    6.393414   5.365224   6.654587   7.592540   8.589631
    27  H    6.391302   5.364779   6.653270   7.591224   8.587945
    28  H    4.817334   3.345165   4.425593   5.434889   6.341596
    29  H    4.814619   3.344469   4.423645   5.433070   6.339338
    30  H    2.161668   6.156199   5.860451   7.057172   7.163991
    31  N    3.734235   1.408619   2.437714   3.710128   4.586230
    32  C    5.079744   3.737039   2.443199   2.837245   2.476410
    33  C    5.716629   4.568306   3.299697   3.466648   2.928252
    34  C    5.717530   4.567714   3.298883   3.465163   2.926574
    35  C    6.809588   5.882229   4.546498   4.461371   3.664257
    36  H    5.603795   4.425130   3.345489   3.617795   3.296745
    37  C    6.810372   5.881761   4.545895   4.460191   3.662884
    38  H    5.605437   4.424075   3.344093   3.615298   3.294123
    39  C    7.300083   6.444667   5.060220   4.886398   3.983071
    40  H    7.485150   6.654293   5.365443   5.222356   4.426715
    41  H    7.486396   6.653558   5.364539   5.220578   4.424712
    42  H    6.375610   2.151814   3.414629   3.868901   4.958274
    43  C    7.340642   6.462166   7.858616   8.791147   9.842653
    44  C    8.571680   7.858612   6.462158   6.170535   5.189969
    45  N    8.366198   7.604861   9.006844   9.911121  10.970540
    46  N    9.633560   9.006841   7.604855   7.250455   6.237028
                   11         12         13         14         15
    11  C    0.000000
    12  C    1.388609   0.000000
    13  C    2.413542   1.401954   0.000000
    14  H    6.375623   6.894470   6.245956   0.000000
    15  H    6.894422   6.375575   5.022910   4.958287   0.000000
    16  H    8.499349   8.292048   7.057208   4.308701   2.477074
    17  H    1.091754   2.161680   3.410347   7.164072   7.984519
    18  H    2.161684   1.091754   2.159335   7.984567   7.164022
    19  N    3.734204   4.221525   3.710117   2.681507   4.586251
    20  C    5.079697   4.239254   2.837340   5.839449   2.476505
    21  C    5.717287   4.786210   3.465879   6.595037   2.927558
    22  C    5.716727   4.786196   3.466120   6.592731   2.927503
    23  C    6.810129   5.721083   4.460760   7.883940   3.663733
    24  C    6.809671   5.721091   4.460964   7.881977   3.663653
    25  C    7.300008   6.139160   4.886475   8.460010   3.983192
    26  H    7.486060   6.392342   5.221387   8.590412   4.425874
    27  H    7.485313   6.392344   5.221687   8.587231   4.425775
    28  H    5.605045   4.815994   3.616425   6.342607   3.295561
    29  H    5.604043   4.815975   3.616842   6.338383   3.295494
    30  H    8.292020   8.499326   7.534687   2.477005   4.308715
    31  N    4.221556   3.734241   2.450439   4.586268   2.681425
    32  C    4.239158   5.079615   4.871053   2.476649   5.839450
    33  C    4.786927   5.717646   5.620274   2.927337   6.593560
    34  C    4.785269   5.716192   5.619257   2.928007   6.594238
    35  C    5.721695   6.810439   6.871322   3.663528   7.882683
    36  H    4.817332   5.605758   5.434848   3.295132   6.339878
    37  C    5.720277   6.809192   6.870474   3.664096   7.883267
    38  H    4.814435   5.603154   5.433012   3.296191   6.341146
    39  C    6.139061   7.299924   7.423252   3.983298   8.460022
    40  H    6.393369   7.486610   7.592523   4.425522   8.588375
    41  H    6.391129   7.484606   7.591165   4.426337   8.589312
    42  H    3.397992   2.158992   1.089363   6.975161   4.905896
    43  C    8.571598   7.340617   6.170599   9.842690   5.190083
    44  C    7.340527   8.571521   8.791108   5.190167   9.842703
    45  N    9.633478   8.366168   7.250514  10.970578   6.237137
    46  N    8.366082   9.633403   9.911083   6.237207  10.970589
                   16         17         18         19         20
    16  H    0.000000
    17  H    9.545932   0.000000
    18  H    9.210914   2.506784   0.000000
    19  N    5.313167   4.607628   5.313112   0.000000
    20  C    4.864652   6.148470   4.864656   4.216105   0.000000
    21  C    5.275007   6.743232   5.274156   5.064227   1.399950
    22  C    5.273660   6.742667   5.274487   5.062763   1.399964
    23  C    6.007674   7.792224   6.006870   6.425843   2.421237
    24  C    6.006446   7.791749   6.007190   6.424672   2.421238
    25  C    6.344713   8.271537   6.344679   7.013430   2.797326
    26  H    6.604028   8.426048   6.602762   7.192423   3.413509
    27  H    6.602069   8.425259   6.603262   7.190574   3.413515
    28  H    5.361413   6.600988   5.359956   4.857039   2.152385
    29  H    5.359087   6.599973   5.360534   4.854356   2.152416
    30  H    2.506761   9.210887   9.545909   4.607674   6.148438
    31  N    4.607667   5.313143   4.607663   2.791996   1.424109
    32  C    6.148516   4.864558   6.148387   1.424097   5.640202
    33  C    6.742523   5.275137   6.743643   2.445812   6.455437
    34  C    6.743522   5.273279   6.742074   2.445830   6.454944
    35  C    7.791621   6.007750   7.792590   3.721671   7.828407
    36  H    6.599643   5.361746   6.601796   2.656274   6.165606
    37  C    7.792517   6.006081   7.791203   3.721685   7.828001
    38  H    6.601464   5.358527   6.598981   2.656327   6.164717
    39  C    8.271615   6.344566   8.271448   4.221427   8.437532
    40  H    8.425019   6.604242   8.426700   4.605342   8.560895
    41  H    8.426468   6.601565   8.424436   4.605358   8.560230
    42  H    7.164070   4.308707   2.477023   4.586234   2.476561
    43  C    7.405799   9.497666   7.405748   8.448970   4.232866
    44  C    9.497752   7.405643   9.497582   5.656969   9.873074
    45  N    8.346034  10.527825   8.345977   9.609666   5.393561
    46  N   10.527912   8.345875  10.527743   6.817663  11.033768
                   21         22         23         24         25
    21  C    0.000000
    22  C    2.424634   0.000000
    23  C    1.392588   2.800842   0.000000
    24  C    2.800845   1.392574   2.435601   0.000000
    25  C    2.422394   2.422390   1.406958   1.406970   0.000000
    26  H    2.161953   3.891909   1.091097   3.422107   2.165167
    27  H    3.891911   2.161943   3.422104   1.091097   2.165175
    28  H    1.091134   3.406819   2.164101   3.891820   3.417893
    29  H    3.406830   1.091136   3.891819   2.164072   3.417883
    30  H    6.744037   6.741824   7.792961   7.791001   8.271534
    31  N    2.445820   2.445831   3.721684   3.721681   4.221435
    32  C    6.456040   6.454327   7.828912   7.827481   8.437527
    33  C    7.041713   7.445731   8.434296   8.775921   9.218282
    34  C    7.446786   7.039185   8.776432   8.431746   9.217166
    35  C    8.434286   8.775530   9.826866  10.122566  10.600895
    36  H    6.547751   7.298363   7.928014   8.561149   8.842122
    37  C    8.776826   8.431758  10.123359   9.824314  10.599923
    38  H    7.298744   6.544686   8.560764   7.924677   8.840086
    39  C    9.218706   9.216738  10.601272  10.599540  11.234857
    40  H    9.035065   9.595302  10.420599  10.912069  11.290295
    41  H    9.596225   9.032116  10.912323  10.417417  11.288670
    42  H    2.926998   2.928135   3.663240   3.664177   3.983204
    43  C    3.734974   3.734967   2.462391   2.462399   1.435540
    44  C   10.643490  10.641448  12.028489  12.026660  12.670399
    45  N    4.847488   4.847480   3.518347   3.518353   2.596236
    46  N   11.797393  11.795304  13.183773  13.181882  13.831093
                   26         27         28         29         30
    26  H    0.000000
    27  H    4.319391   0.000000
    28  H    2.504800   4.982912   0.000000
    29  H    4.982912   2.504764   4.295855   0.000000
    30  H    8.427251   8.424056   6.602448   6.598466   0.000000
    31  N    4.605350   4.605350   2.656279   2.656318   5.313120
    32  C    8.561707   8.559392   6.166733   6.163577   4.864712
    33  C    9.035404   9.595076   6.548218   7.297251   5.273914
    34  C    9.596439   9.031764   7.299855   6.544224   5.274910
    35  C   10.420883  10.911304   7.928390   8.559484   6.006683
    36  H    8.424584   9.459821   5.919798   7.311513   5.359461
    37  C   10.913078  10.417121   8.562430   7.924307   6.007595
    38  H    9.460153   8.420096   7.313419   5.915359   5.361203
    39  C   11.290912  11.288036   8.842910   8.839297   6.344786
    40  H   10.929359  11.749231   8.424586   9.458676   6.602404
    41  H   11.750431  10.924833   9.461306   8.420116   6.603854
    42  H    4.425151   4.426514   3.294667   3.296459   7.984532
    43  C    2.681520   2.681524   4.623418   4.623398   9.497677
    44  C   12.703005  12.699941  10.241447  10.237706   7.405867
    45  N    3.496777   3.496777   5.676922   5.676898  10.527842
    46  N   13.848264  13.845078  11.378961  11.375144   8.346097
                   31         32         33         34         35
    31  N    0.000000
    32  C    4.216093   0.000000
    33  C    5.063449   1.399961   0.000000
    34  C    5.063532   1.399961   2.424634   0.000000
    35  C    6.425220   2.421243   1.392581   2.800842   0.000000
    36  H    4.855604   2.152401   1.091144   3.406828   2.164100
    37  C    6.425288   2.421246   2.800845   1.392583   2.435601
    38  H    4.855784   2.152417   3.406839   1.091145   3.891828
    39  C    7.013424   2.797330   2.422392   2.422388   1.406965
    40  H    7.191448   3.413521   2.161954   3.891909   1.091098
    41  H    7.191551   3.413521   3.891913   2.161953   3.422106
    42  H    2.681463   5.839387   6.594271   6.593364   7.883275
    43  C    5.656975   9.873067  10.643123  10.641815  12.028156
    44  C    8.448966   4.232872   3.734968   3.734972   2.462390
    45  N    6.817671  11.033762  11.797065  11.795634  13.183472
    46  N    9.609660   5.393566   4.847478   4.847487   3.518342
                   36         37         38         39         40
    36  H    0.000000
    37  C    3.891830   0.000000
    38  H    4.295872   2.164087   0.000000
    39  C    3.417900   1.406961   3.417888   0.000000
    40  H    2.504806   3.422102   4.982921   2.165168   0.000000
    41  H    4.982924   1.091098   2.504779   2.165169   4.319387
    42  H    6.341251   7.882502   6.339607   8.459938   8.589384
    43  C   10.240768  12.026995  10.238382  12.670397  12.702458
    44  C    4.623418   2.462397   4.623412   1.435542   2.681505
    45  N   11.378354  13.182187  11.375750  13.831092  13.847767
    46  N    5.676915   3.518353   5.676914   2.596236   3.496754
                   41         42         43         44         45
    41  H    0.000000
    42  H    8.588127   0.000000
    43  C   12.700501   5.190080   0.000000
    44  C    2.681526   9.842616  14.105939   0.000000
    45  N   13.845591   6.237128   1.160695  15.266634   0.000000
    46  N    3.496784  10.970502  15.266633   1.160694  16.427328
                   46
    46  N    0.000000
 Symmetry turned off by external request.
 Stoichiometry    C26H16N4
 Framework group  C1[X(C26H16N4)]
 Deg. of freedom   132
 Full point group                 C1      NOp   1
 Rotational constants (GHZ):      0.3901347      0.0796472      0.0693978
 Leave Link  202 at Mon Feb 15 02:32:48 2021, MaxMem=  5242880000 cpu:         0.2
 (Enter /opt/nce/packages/global/g09/l301.exe)
 Standard basis: def2TZVP (5D, 7F)
 Ernie: Thresh=  0.10000D-02 Tol=  0.10000D-05 Strict=F.
  1026 basis functions,  1658 primitive gaussians,  1176 cartesian basis functions
   100 alpha electrons      100 beta electrons
       nuclear repulsion energy      2529.5035145036 Hartrees.
 IExCor=  402 DFT=T Ex+Corr=B3LYP ExCW=0 ScaHFX=  0.200000
 ScaDFX=  0.800000  0.720000  1.000000  0.810000 ScalE2=  1.000000  1.000000
 IRadAn=      5 IRanWt=     -1 IRanGd=            0 ICorTp=0 IEmpDi=141
 NAtoms=   46 NActive=   46 NUniq=   46 SFac= 1.00D+00 NAtFMM=   60 NAOKFM=F Big=F
 Integral buffers will be    131072 words long.
 Raffenetti 2 integral format.
 Two-electron integral symmetry is turned off.
 R6Disp:  Grimme-D3(BJ) Dispersion energy=       -0.1227993905 Hartrees.
 Nuclear repulsion after empirical dispersion term =     2529.3807151131 Hartrees.
 ------------------------------------------------------------------------------
 Polarizable Continuum Model (PCM)
 =================================
 Model                : PCM (using non-symmetric T matrix).
 Atomic radii         : SMD-Coulomb.
 Polarization charges : Total charges.
 Charge compensation  : None.
 Solution method      : On-the-fly selection.
 Cavity type          : VdW (van der Waals Surface) (Alpha=1.000).
 Cavity algorithm     : GePol (No added spheres)
                        Default sphere list used, NSphG=   46.
                        Lebedev-Laikov grids with approx.  5.0 points / Ang**2.
                        Smoothing algorithm: York/Karplus (Gamma=1.0000).
                        Polarization charges: spherical gaussians, with
                                              point-specific exponents (IZeta= 3).
                        Self-potential: point-specific (ISelfS= 7).
                        Self-field    : sphere-specific E.n sum rule (ISelfD= 2).
 1st derivatives      : Analytical E(r).r(x)/FMM algorithm (CHGder, D1EAlg=3).
                        Cavity 1st derivative terms included.
 Solvent              : n,n-DiMethylFormamide, Eps=  37.219000 Eps(inf)=   2.046330
 ------------------------------------------------------------------------------
 GePol: Number of generator spheres                  =      46
 GePol: Total number of spheres                      =      46
 GePol: Number of exposed spheres                    =      46 (100.00%)
 GePol: Number of points                             =    3790
 GePol: Average weight of points                     =       0.11
 GePol: Minimum weight of points                     =   0.52D-10
 GePol: Maximum weight of points                     =    0.17992
 GePol: Number of points with low weight             =     188
 GePol: Fraction of low-weight points (<1% of avg)   =       4.96%
 GePol: Cavity surface area                          =    413.224 Ang**2
 GePol: Cavity volume                                =    398.239 Ang**3
 ------------------------------------------------------------------------------
 Atomic radii for non-electrostatic terms: SMD-CDS.
 ------------------------------------------------------------------------------
 PCM non-electrostatic energy =        -0.0012689939 Hartrees.
 Nuclear repulsion after PCM non-electrostatic terms =     2529.3794461193 Hartrees.
 Leave Link  301 at Mon Feb 15 02:32:48 2021, MaxMem=  5242880000 cpu:         2.0
 (Enter /opt/nce/packages/global/g09/l302.exe)
 NPDir=0 NMtPBC=     1 NCelOv=     1 NCel=       1 NClECP=     1 NCelD=      1
         NCelK=      1 NCelE2=     1 NClLst=     1 CellRange=     0.0.
 One-electron integrals computed using PRISM.
   1 Symmetry operations used in ECPInt.
 ECPInt:  NShTT=   77815 NPrTT=  243264 LenC2=   62602 LenP2D=  133782.
 LDataN:  DoStor=T MaxTD1= 6 Len=  172
 NBasis=  1026 RedAO= T EigKep=  3.72D-06  NBF=  1026
 NBsUse=  1026 1.00D-06 EigRej= -1.00D+00 NBFU=  1026
 Precomputing XC quadrature grid using
 IXCGrd= 4 IRadAn=           5 IRanWt=          -1 IRanGd=           0 AccXCQ= 0.00D+00.
 Generated NRdTot=       0 NPtTot=           0 NUsed=           0 NTot=          32
 NSgBfM=  1085  1085  1085  1085  1085 MxSgAt=    46 MxSgA2=    46.
 Leave Link  302 at Mon Feb 15 02:32:50 2021, MaxMem=  5242880000 cpu:        27.6
 (Enter /opt/nce/packages/global/g09/l303.exe)
 DipDrv:  MaxL=1.
 Leave Link  303 at Mon Feb 15 02:32:50 2021, MaxMem=  5242880000 cpu:         2.6
 (Enter /opt/nce/packages/global/g09/l401.exe)
 ExpMin= 9.52D-02 ExpMax= 1.97D+04 ExpMxC= 6.73D+02 IAcc=3 IRadAn=         5 AccDes= 0.00D+00
 Harris functional with IExCor=  402 and IRadAn=       5 diagonalized for initial guess.
 HarFok:  IExCor=  402 AccDes= 0.00D+00 IRadAn=         5 IDoV= 1 UseB2=F ITyADJ=14
 ICtDFT=  3500011 ScaDFX=  1.000000  1.000000  1.000000  1.000000
 FoFCou: FMM=F IPFlag=           0 FMFlag=      100000 FMFlg1=           0
         NFxFlg=           0 DoJE=T BraDBF=F KetDBF=T FulRan=T
         wScrn=  0.000000 ICntrl=     500 IOpCl=  0 I1Cent=   200000004 NGrid=           0
         NMat0=    1 NMatS0=      1 NMatT0=    0 NMatD0=    1 NMtDS0=    0 NMtDT0=    0
 Symmetry not used in FoFCou.
 Harris En= -1219.96532395161    
 JPrj=0 DoOrth=F DoCkMO=F.
 Leave Link  401 at Mon Feb 15 02:33:00 2021, MaxMem=  5242880000 cpu:       115.7
 (Enter /opt/nce/packages/global/g09/l502.exe)
 Closed shell SCF:
 Using DIIS extrapolation, IDIIS=  1040.
 Two-electron integral symmetry not used.
 IVT=     4188738 IEndB=     4188738 NGot=  5242880000 MDV=  5240092055
 LenX=  5240092055 LenY=  5238707903
 Requested convergence on RMS density matrix=1.00D-08 within 128 cycles.
 Requested convergence on MAX density matrix=1.00D-06.
 Requested convergence on             energy=1.00D-06.
 No special actions if energy rises.
 Fock matrices will be formed incrementally for  20 cycles.

 Cycle   1  Pass 1  IDiag  1:
 FoFJK:  IHMeth= 1 ICntrl=       0 DoSepK=F KAlg= 0 I1Cent=   0 FoldK=F
 IRaf= 690000000 NMat=   1 IRICut=       1 DoRegI=T DoRafI=F ISym2E= 0.
 FoFCou: FMM=F IPFlag=           0 FMFlag=      100000 FMFlg1=           0
         NFxFlg=           0 DoJE=F BraDBF=F KetDBF=F FulRan=T
         wScrn=  0.000000 ICntrl=       0 IOpCl=  0 I1Cent=           0 NGrid=           0
         NMat0=    1 NMatS0=      1 NMatT0=    0 NMatD0=    1 NMtDS0=    0 NMtDT0=    0
 Symmetry not used in FoFCou.
 Inv3:  Mode=1 IEnd=    43092300.
 Iteration    1 A*A^-1 deviation from unit magnitude is 7.55D-15 for   3777.
 Iteration    1 A*A^-1 deviation from orthogonality  is 2.71D-15 for   1081    307.
 Iteration    1 A^-1*A deviation from unit magnitude is 7.55D-15 for   3777.
 Iteration    1 A^-1*A deviation from orthogonality  is 1.01D-11 for   1461   1347.
 E= -1219.32394017611    
 DIIS: error= 3.32D-02 at cycle   1 NSaved=   1.
 NSaved= 1 IEnMin= 1 EnMin= -1219.32394017611     IErMin= 1 ErrMin= 3.32D-02
 ErrMax= 3.32D-02  0.00D+00 EMaxC= 1.00D-01 BMatC= 6.93D-01 BMatP= 6.93D-01
 IDIUse=3 WtCom= 6.68D-01 WtEn= 3.32D-01
 Coeff-Com:  0.100D+01
 Coeff-En:   0.100D+01
 Coeff:      0.100D+01
 Gap=     0.109 Goal=   None    Shift=    0.000
 GapD=    0.109 DampG=1.000 DampE=0.500 DampFc=0.5000 IDamp=-1.
 Damping current iteration by 5.00D-01
 RMSDP=2.28D-03 MaxDP=2.19D-01              OVMax= 3.59D-01

 Cycle   2  Pass 1  IDiag  1:
 RMSU=  1.12D-03    CP:  9.61D-01
 E= -1219.56572687613     Delta-E=       -0.241786700017 Rises=F Damp=T
 DIIS: error= 1.04D-02 at cycle   2 NSaved=   2.
 NSaved= 2 IEnMin= 2 EnMin= -1219.56572687613     IErMin= 2 ErrMin= 1.04D-02
 ErrMax= 1.04D-02  0.00D+00 EMaxC= 1.00D-01 BMatC= 8.66D-02 BMatP= 6.93D-01
 IDIUse=3 WtCom= 8.96D-01 WtEn= 1.04D-01
 Coeff-Com:  0.109D+00 0.891D+00
 Coeff-En:   0.216D+00 0.784D+00
 Coeff:      0.120D+00 0.880D+00
 Gap=     0.101 Goal=   None    Shift=    0.000
 RMSDP=7.26D-04 MaxDP=8.62D-02 DE=-2.42D-01 OVMax= 3.35D-01

 Cycle   3  Pass 1  IDiag  1:
 RMSU=  6.60D-04    CP:  9.41D-01  7.49D-01
 E= -1219.85805215164     Delta-E=       -0.292325275511 Rises=F Damp=F
 DIIS: error= 1.48D-02 at cycle   3 NSaved=   3.
 NSaved= 3 IEnMin= 3 EnMin= -1219.85805215164     IErMin= 2 ErrMin= 1.04D-02
 ErrMax= 1.48D-02  0.00D+00 EMaxC= 1.00D-01 BMatC= 1.13D-01 BMatP= 8.66D-02
 IDIUse=2 WtCom= 0.00D+00 WtEn= 1.00D+00
 Coeff-En:   0.000D+00 0.000D+00 0.100D+01
 Coeff:      0.000D+00 0.000D+00 0.100D+01
 Gap=     0.136 Goal=   None    Shift=    0.000
 RMSDP=9.90D-04 MaxDP=1.07D-01 DE=-2.92D-01 OVMax= 3.19D-01

 Cycle   4  Pass 1  IDiag  1:
 RMSU=  5.74D-04    CP:  9.41D-01  1.27D+00  1.57D-01
 E= -1219.45296036983     Delta-E=        0.405091781804 Rises=F Damp=F
 DIIS: error= 3.13D-02 at cycle   4 NSaved=   4.
 NSaved= 4 IEnMin= 3 EnMin= -1219.85805215164     IErMin= 2 ErrMin= 1.04D-02
 ErrMax= 3.13D-02  0.00D+00 EMaxC= 1.00D-01 BMatC= 5.33D-01 BMatP= 8.66D-02
 IDIUse=2 WtCom= 0.00D+00 WtEn= 1.00D+00
 Coeff-En:   0.000D+00 0.000D+00 0.767D+00 0.233D+00
 Coeff:      0.000D+00 0.000D+00 0.767D+00 0.233D+00
 Gap=     0.122 Goal=   None    Shift=    0.000
 RMSDP=5.91D-04 MaxDP=7.77D-02 DE= 4.05D-01 OVMax= 1.48D-01

 Cycle   5  Pass 1  IDiag  1:
 RMSU=  1.30D-04    CP:  9.43D-01  9.00D-01  6.01D-01  5.23D-01
 E= -1219.93634985247     Delta-E=       -0.483389482636 Rises=F Damp=F
 DIIS: error= 8.59D-03 at cycle   5 NSaved=   5.
 NSaved= 5 IEnMin= 5 EnMin= -1219.93634985247     IErMin= 5 ErrMin= 8.59D-03
 ErrMax= 8.59D-03  0.00D+00 EMaxC= 1.00D-01 BMatC= 3.53D-02 BMatP= 8.66D-02
 IDIUse=3 WtCom= 9.14D-01 WtEn= 8.59D-02
 Coeff-Com:  0.326D-02 0.588D-02 0.326D+00-0.299D-01 0.695D+00
 Coeff-En:   0.000D+00 0.000D+00 0.288D+00 0.000D+00 0.712D+00
 Coeff:      0.298D-02 0.538D-02 0.322D+00-0.273D-01 0.696D+00
 Gap=     0.103 Goal=   None    Shift=    0.000
 RMSDP=1.61D-04 MaxDP=1.49D-02 DE=-4.83D-01 OVMax= 7.45D-02

 Cycle   6  Pass 1  IDiag  1:
 RMSU=  4.50D-05    CP:  9.43D-01  8.49D-01  7.37D-01  3.39D-01  7.20D-01
 E= -1219.97073348216     Delta-E=       -0.034383629688 Rises=F Damp=F
 DIIS: error= 1.04D-03 at cycle   6 NSaved=   6.
 NSaved= 6 IEnMin= 6 EnMin= -1219.97073348216     IErMin= 6 ErrMin= 1.04D-03
 ErrMax= 1.04D-03  0.00D+00 EMaxC= 1.00D-01 BMatC= 8.71D-04 BMatP= 3.53D-02
 IDIUse=3 WtCom= 9.90D-01 WtEn= 1.04D-02
 Coeff-Com: -0.508D-02 0.125D-01 0.125D+00-0.772D-01 0.507D+00 0.438D+00
 Coeff-En:   0.000D+00 0.000D+00 0.000D+00 0.000D+00 0.000D+00 0.100D+01
 Coeff:     -0.503D-02 0.123D-01 0.123D+00-0.764D-01 0.501D+00 0.444D+00
 Gap=     0.105 Goal=   None    Shift=    0.000
 RMSDP=2.72D-05 MaxDP=2.33D-03 DE=-3.44D-02 OVMax= 1.06D-02

 Cycle   7  Pass 1  IDiag  1:
 RMSU=  1.10D-05    CP:  9.43D-01  8.42D-01  7.36D-01  3.45D-01  8.48D-01
                    CP:  6.34D-01
 E= -1219.97152439623     Delta-E=       -0.000790914076 Rises=F Damp=F
 DIIS: error= 2.08D-04 at cycle   7 NSaved=   7.
 NSaved= 7 IEnMin= 7 EnMin= -1219.97152439623     IErMin= 7 ErrMin= 2.08D-04
 ErrMax= 2.08D-04  0.00D+00 EMaxC= 1.00D-01 BMatC= 1.14D-05 BMatP= 8.71D-04
 IDIUse=3 WtCom= 9.98D-01 WtEn= 2.08D-03
 Coeff-Com: -0.159D-02 0.403D-02 0.402D-01-0.275D-01 0.168D+00 0.181D+00
 Coeff-Com:  0.636D+00
 Coeff-En:   0.000D+00 0.000D+00 0.000D+00 0.000D+00 0.000D+00 0.000D+00
 Coeff-En:   0.100D+01
 Coeff:     -0.159D-02 0.402D-02 0.401D-01-0.274D-01 0.167D+00 0.181D+00
 Coeff:      0.637D+00
 Gap=     0.105 Goal=   None    Shift=    0.000
 RMSDP=3.98D-06 MaxDP=3.46D-04 DE=-7.91D-04 OVMax= 1.51D-03

 Cycle   8  Pass 1  IDiag  1:
 RMSU=  3.14D-06    CP:  9.43D-01  8.41D-01  7.38D-01  3.43D-01  8.50D-01
                    CP:  6.53D-01  9.15D-01
 E= -1219.97153480927     Delta-E=       -0.000010413039 Rises=F Damp=F
 DIIS: error= 5.51D-05 at cycle   8 NSaved=   8.
 NSaved= 8 IEnMin= 8 EnMin= -1219.97153480927     IErMin= 8 ErrMin= 5.51D-05
 ErrMax= 5.51D-05  0.00D+00 EMaxC= 1.00D-01 BMatC= 2.61D-06 BMatP= 1.14D-05
 IDIUse=1 WtCom= 1.00D+00 WtEn= 0.00D+00
 Coeff-Com:  0.141D-04-0.132D-03 0.245D-02-0.323D-02 0.117D-01 0.350D-01
 Coeff-Com:  0.388D+00 0.567D+00
 Coeff:      0.141D-04-0.132D-03 0.245D-02-0.323D-02 0.117D-01 0.350D-01
 Coeff:      0.388D+00 0.567D+00
 Gap=     0.105 Goal=   None    Shift=    0.000
 RMSDP=1.56D-06 MaxDP=1.22D-04 DE=-1.04D-05 OVMax= 4.39D-04

 Cycle   9  Pass 1  IDiag  1:
 RMSU=  9.01D-07    CP:  9.43D-01  8.42D-01  7.38D-01  3.44D-01  8.50D-01
                    CP:  6.59D-01  9.92D-01  7.68D-01
 E= -1219.97153717711     Delta-E=       -0.000002367839 Rises=F Damp=F
 DIIS: error= 1.71D-05 at cycle   9 NSaved=   9.
 NSaved= 9 IEnMin= 9 EnMin= -1219.97153717711     IErMin= 9 ErrMin= 1.71D-05
 ErrMax= 1.71D-05  0.00D+00 EMaxC= 1.00D-01 BMatC= 8.97D-08 BMatP= 2.61D-06
 IDIUse=1 WtCom= 1.00D+00 WtEn= 0.00D+00
 Coeff-Com:  0.117D-03-0.371D-03-0.656D-03 0.132D-04-0.302D-02 0.829D-02
 Coeff-Com:  0.126D+00 0.219D+00 0.651D+00
 Coeff:      0.117D-03-0.371D-03-0.656D-03 0.132D-04-0.302D-02 0.829D-02
 Coeff:      0.126D+00 0.219D+00 0.651D+00
 Gap=     0.105 Goal=   None    Shift=    0.000
 RMSDP=3.88D-07 MaxDP=2.81D-05 DE=-2.37D-06 OVMax= 7.44D-05

 Cycle  10  Pass 1  IDiag  1:
 RMSU=  2.72D-07    CP:  9.43D-01  8.42D-01  7.38D-01  3.44D-01  8.49D-01
                    CP:  6.63D-01  9.99D-01  7.93D-01  9.19D-01
 E= -1219.97153725928     Delta-E=       -0.000000082168 Rises=F Damp=F
 DIIS: error= 5.79D-06 at cycle  10 NSaved=  10.
 NSaved=10 IEnMin=10 EnMin= -1219.97153725928     IErMin=10 ErrMin= 5.79D-06
 ErrMax= 5.79D-06  0.00D+00 EMaxC= 1.00D-01 BMatC= 1.75D-08 BMatP= 8.97D-08
 IDIUse=1 WtCom= 1.00D+00 WtEn= 0.00D+00
 Coeff-Com:  0.635D-04-0.170D-03-0.876D-03 0.486D-03-0.383D-02 0.259D-03
 Coeff-Com:  0.166D-01 0.385D-01 0.350D+00 0.599D+00
 Coeff:      0.635D-04-0.170D-03-0.876D-03 0.486D-03-0.383D-02 0.259D-03
 Coeff:      0.166D-01 0.385D-01 0.350D+00 0.599D+00
 Gap=     0.105 Goal=   None    Shift=    0.000
 RMSDP=1.40D-07 MaxDP=9.00D-06 DE=-8.22D-08 OVMax= 3.93D-05

 Cycle  11  Pass 1  IDiag  1:
 RMSU=  1.14D-07    CP:  9.43D-01  8.42D-01  7.39D-01  3.44D-01  8.49D-01
                    CP:  6.64D-01  1.00D+00  7.95D-01  9.84D-01  9.38D-01
 E= -1219.97153727582     Delta-E=       -0.000000016542 Rises=F Damp=F
 DIIS: error= 1.41D-06 at cycle  11 NSaved=  11.
 NSaved=11 IEnMin=11 EnMin= -1219.97153727582     IErMin=11 ErrMin= 1.41D-06
 ErrMax= 1.41D-06  0.00D+00 EMaxC= 1.00D-01 BMatC= 1.24D-09 BMatP= 1.75D-08
 IDIUse=1 WtCom= 1.00D+00 WtEn= 0.00D+00
 Coeff-Com:  0.130D-04-0.248D-04-0.368D-03 0.215D-03-0.148D-02-0.553D-03
 Coeff-Com: -0.615D-02-0.904D-02 0.797D-01 0.262D+00 0.675D+00
 Coeff:      0.130D-04-0.248D-04-0.368D-03 0.215D-03-0.148D-02-0.553D-03
 Coeff:     -0.615D-02-0.904D-02 0.797D-01 0.262D+00 0.675D+00
 Gap=     0.105 Goal=   None    Shift=    0.000
 RMSDP=4.79D-08 MaxDP=2.12D-06 DE=-1.65D-08 OVMax= 1.92D-05

 Cycle  12  Pass 1  IDiag  1:
 RMSU=  3.46D-08    CP:  9.43D-01  8.42D-01  7.39D-01  3.44D-01  8.50D-01
                    CP:  6.64D-01  1.00D+00  8.00D-01  1.00D+00  9.80D-01
                    CP:  1.01D+00
 E= -1219.97153727703     Delta-E=       -0.000000001215 Rises=F Damp=F
 DIIS: error= 4.97D-07 at cycle  12 NSaved=  12.
 NSaved=12 IEnMin=12 EnMin= -1219.97153727703     IErMin=12 ErrMin= 4.97D-07
 ErrMax= 4.97D-07  0.00D+00 EMaxC= 1.00D-01 BMatC= 1.47D-10 BMatP= 1.24D-09
 IDIUse=1 WtCom= 1.00D+00 WtEn= 0.00D+00
 Coeff-Com: -0.256D-05 0.684D-05-0.644D-05 0.133D-04-0.886D-05-0.235D-04
 Coeff-Com: -0.361D-02-0.835D-02-0.113D-01 0.317D-01 0.303D+00 0.689D+00
 Coeff:     -0.256D-05 0.684D-05-0.644D-05 0.133D-04-0.886D-05-0.235D-04
 Coeff:     -0.361D-02-0.835D-02-0.113D-01 0.317D-01 0.303D+00 0.689D+00
 Gap=     0.105 Goal=   None    Shift=    0.000
 RMSDP=2.76D-08 MaxDP=3.12D-06 DE=-1.21D-09 OVMax= 5.01D-06

 Cycle  13  Pass 1  IDiag  1:
 RMSU=  1.24D-08    CP:  9.43D-01  8.42D-01  7.39D-01  3.44D-01  8.49D-01
                    CP:  6.64D-01  1.00D+00  8.00D-01  1.01D+00  1.01D+00
                    CP:  1.09D+00  9.32D-01
 E= -1219.97153727719     Delta-E=       -0.000000000156 Rises=F Damp=F
 DIIS: error= 2.17D-07 at cycle  13 NSaved=  13.
 NSaved=13 IEnMin=13 EnMin= -1219.97153727719     IErMin=13 ErrMin= 2.17D-07
 ErrMax= 2.17D-07  0.00D+00 EMaxC= 1.00D-01 BMatC= 2.03D-11 BMatP= 1.47D-10
 IDIUse=1 WtCom= 1.00D+00 WtEn= 0.00D+00
 Coeff-Com: -0.245D-05 0.634D-05 0.129D-04-0.594D-05 0.723D-04-0.765D-05
 Coeff-Com: -0.156D-02-0.396D-02-0.121D-01-0.311D-02 0.118D+00 0.378D+00
 Coeff-Com:  0.525D+00
 Coeff:     -0.245D-05 0.634D-05 0.129D-04-0.594D-05 0.723D-04-0.765D-05
 Coeff:     -0.156D-02-0.396D-02-0.121D-01-0.311D-02 0.118D+00 0.378D+00
 Coeff:      0.525D+00
 Gap=     0.105 Goal=   None    Shift=    0.000
 RMSDP=4.44D-09 MaxDP=2.43D-07 DE=-1.56D-10 OVMax= 1.57D-06

 Error on total polarization charges =  0.06558
 SCF Done:  E(RB3LYP) =  -1219.97153728     A.U. after   13 cycles
            NFock= 13  Conv=0.44D-08     -V/T= 2.0058
 KE= 1.212942991640D+03 PE=-7.887905629107D+03 EE= 2.925611654070D+03
 SMD-CDS (non-electrostatic) energy       (kcal/mol) =      -0.80
 (included in total energy above)
 Leave Link  502 at Mon Feb 15 02:58:29 2021, MaxMem=  5242880000 cpu:     18323.1
 (Enter /opt/nce/packages/global/g09/l601.exe)
 Copying SCF densities to generalized density rwf, IOpCl= 0 IROHF=0.

 **********************************************************************

            Population analysis using the SCF density.

 **********************************************************************

 Alpha  occ. eigenvalues --  -14.36013 -14.36012 -14.32912 -14.32912 -10.23412
 Alpha  occ. eigenvalues --  -10.23412 -10.23079 -10.23079 -10.22874 -10.22874
 Alpha  occ. eigenvalues --  -10.22857 -10.22855 -10.22811 -10.22810 -10.20375
 Alpha  occ. eigenvalues --  -10.20375 -10.20374 -10.20374 -10.19461 -10.19461
 Alpha  occ. eigenvalues --  -10.19461 -10.19460 -10.17399 -10.17398 -10.17397
 Alpha  occ. eigenvalues --  -10.17396 -10.17061 -10.17061 -10.17004 -10.17004
 Alpha  occ. eigenvalues --   -1.00191  -0.96501  -0.92430  -0.92412  -0.88121
 Alpha  occ. eigenvalues --   -0.87376  -0.86592  -0.83626  -0.79452  -0.77902
 Alpha  occ. eigenvalues --   -0.76935  -0.76933  -0.76481  -0.75975  -0.73060
 Alpha  occ. eigenvalues --   -0.71721  -0.66667  -0.65626  -0.64298  -0.63373
 Alpha  occ. eigenvalues --   -0.63342  -0.60611  -0.60189  -0.56833  -0.56458
 Alpha  occ. eigenvalues --   -0.56313  -0.56312  -0.53615  -0.53250  -0.49934
 Alpha  occ. eigenvalues --   -0.49479  -0.49293  -0.46859  -0.46724  -0.46078
 Alpha  occ. eigenvalues --   -0.45545  -0.44434  -0.44150  -0.44085  -0.43975
 Alpha  occ. eigenvalues --   -0.43557  -0.43203  -0.43143  -0.41332  -0.41221
 Alpha  occ. eigenvalues --   -0.40764  -0.40667  -0.38547  -0.38514  -0.38502
 Alpha  occ. eigenvalues --   -0.37904  -0.37759  -0.37495  -0.36652  -0.35970
 Alpha  occ. eigenvalues --   -0.35523  -0.35169  -0.35071  -0.34909  -0.34678
 Alpha  occ. eigenvalues --   -0.34036  -0.32314  -0.28218  -0.27898  -0.27384
 Alpha  occ. eigenvalues --   -0.27313  -0.26426  -0.26197  -0.22990  -0.17105
 Alpha virt. eigenvalues --   -0.06610  -0.06530  -0.03873  -0.03784  -0.01897
 Alpha virt. eigenvalues --   -0.00831  -0.00591   0.01619   0.01644   0.02611
 Alpha virt. eigenvalues --    0.03777   0.04304   0.05193   0.05297   0.05393
 Alpha virt. eigenvalues --    0.06159   0.06770   0.07272   0.07979   0.08203
 Alpha virt. eigenvalues --    0.08511   0.09123   0.09574   0.09871   0.11477
 Alpha virt. eigenvalues --    0.11584   0.11638   0.11959   0.12241   0.12458
 Alpha virt. eigenvalues --    0.12624   0.13256   0.13600   0.13673   0.14034
 Alpha virt. eigenvalues --    0.15048   0.16191   0.17055   0.17149   0.18028
 Alpha virt. eigenvalues --    0.18249   0.19005   0.19036   0.19075   0.19849
 Alpha virt. eigenvalues --    0.20126   0.20194   0.20839   0.20847   0.21143
 Alpha virt. eigenvalues --    0.21193   0.21461   0.21534   0.21975   0.22119
 Alpha virt. eigenvalues --    0.22568   0.22938   0.23333   0.23602   0.23636
 Alpha virt. eigenvalues --    0.23722   0.24057   0.24914   0.25149   0.25334
 Alpha virt. eigenvalues --    0.25578   0.25833   0.26063   0.27266   0.27536
 Alpha virt. eigenvalues --    0.27604   0.27843   0.28269   0.28349   0.29023
 Alpha virt. eigenvalues --    0.29401   0.29489   0.30328   0.30688   0.31014
 Alpha virt. eigenvalues --    0.31014   0.31210   0.31588   0.32057   0.32648
 Alpha virt. eigenvalues --    0.33295   0.33693   0.33704   0.34165   0.34436
 Alpha virt. eigenvalues --    0.34446   0.35161   0.35381   0.36287   0.36494
 Alpha virt. eigenvalues --    0.36821   0.36850   0.37067   0.37792   0.37959
 Alpha virt. eigenvalues --    0.38509   0.38577   0.38795   0.39358   0.39440
 Alpha virt. eigenvalues --    0.40382   0.40584   0.41372   0.41705   0.42025
 Alpha virt. eigenvalues --    0.42042   0.42421   0.42686   0.42879   0.42961
 Alpha virt. eigenvalues --    0.43139   0.43351   0.43844   0.44411   0.44444
 Alpha virt. eigenvalues --    0.44753   0.44955   0.45693   0.46260   0.46451
 Alpha virt. eigenvalues --    0.46702   0.46797   0.47492   0.47530   0.48142
 Alpha virt. eigenvalues --    0.48243   0.48681   0.48992   0.49185   0.49580
 Alpha virt. eigenvalues --    0.50233   0.50712   0.51170   0.51262   0.51275
 Alpha virt. eigenvalues --    0.51426   0.52136   0.52305   0.53614   0.54326
 Alpha virt. eigenvalues --    0.54545   0.54968   0.55659   0.55734   0.57099
 Alpha virt. eigenvalues --    0.58508   0.59124   0.59164   0.59473   0.59532
 Alpha virt. eigenvalues --    0.59621   0.59748   0.60365   0.61401   0.61537
 Alpha virt. eigenvalues --    0.62722   0.63020   0.63968   0.64243   0.64670
 Alpha virt. eigenvalues --    0.64732   0.64922   0.65218   0.65487   0.65567
 Alpha virt. eigenvalues --    0.66278   0.66346   0.66786   0.66861   0.66958
 Alpha virt. eigenvalues --    0.67427   0.68308   0.68667   0.68739   0.68878
 Alpha virt. eigenvalues --    0.69670   0.70337   0.70461   0.71329   0.71583
 Alpha virt. eigenvalues --    0.72178   0.72392   0.73095   0.73201   0.73634
 Alpha virt. eigenvalues --    0.73755   0.74062   0.75162   0.75983   0.76348
 Alpha virt. eigenvalues --    0.76690   0.76754   0.77107   0.77232   0.77289
 Alpha virt. eigenvalues --    0.77941   0.78288   0.78567   0.79065   0.79744
 Alpha virt. eigenvalues --    0.80299   0.81596   0.81842   0.82412   0.82571
 Alpha virt. eigenvalues --    0.84602   0.84912   0.85877   0.86371   0.86378
 Alpha virt. eigenvalues --    0.86785   0.87283   0.87351   0.87375   0.87567
 Alpha virt. eigenvalues --    0.88254   0.88566   0.89518   0.89802   0.90027
 Alpha virt. eigenvalues --    0.90407   0.91280   0.91898   0.91955   0.92049
 Alpha virt. eigenvalues --    0.94261   0.94463   0.95186   0.95718   0.97623
 Alpha virt. eigenvalues --    0.98872   0.99038   0.99162   1.00540   1.01374
 Alpha virt. eigenvalues --    1.01487   1.02478   1.03138   1.04296   1.04835
 Alpha virt. eigenvalues --    1.05073   1.05905   1.05987   1.06297   1.06756
 Alpha virt. eigenvalues --    1.07025   1.07612   1.08578   1.08792   1.08942
 Alpha virt. eigenvalues --    1.09323   1.09378   1.09701   1.10563   1.10659
 Alpha virt. eigenvalues --    1.13686   1.14064   1.14661   1.14799   1.15154
 Alpha virt. eigenvalues --    1.15432   1.16589   1.18137   1.18147   1.18461
 Alpha virt. eigenvalues --    1.18640   1.20228   1.20328   1.21395   1.21893
 Alpha virt. eigenvalues --    1.22319   1.22383   1.23338   1.23628   1.24575
 Alpha virt. eigenvalues --    1.24599   1.24667   1.25343   1.25548   1.25830
 Alpha virt. eigenvalues --    1.26344   1.26419   1.26575   1.27042   1.27325
 Alpha virt. eigenvalues --    1.28138   1.28868   1.29164   1.31087   1.31105
 Alpha virt. eigenvalues --    1.31246   1.32376   1.33112   1.33517   1.33978
 Alpha virt. eigenvalues --    1.34326   1.35093   1.35307   1.36258   1.36335
 Alpha virt. eigenvalues --    1.37451   1.37495   1.38100   1.38543   1.39346
 Alpha virt. eigenvalues --    1.40470   1.41212   1.41241   1.41795   1.43135
 Alpha virt. eigenvalues --    1.44272   1.44402   1.45010   1.45988   1.47541
 Alpha virt. eigenvalues --    1.48384   1.48453   1.48538   1.48872   1.49423
 Alpha virt. eigenvalues --    1.49938   1.50079   1.50422   1.51085   1.51195
 Alpha virt. eigenvalues --    1.52064   1.52908   1.53516   1.54263   1.54577
 Alpha virt. eigenvalues --    1.54715   1.55492   1.57156   1.57347   1.57563
 Alpha virt. eigenvalues --    1.57849   1.58373   1.58650   1.58718   1.58994
 Alpha virt. eigenvalues --    1.59907   1.60006   1.60130   1.60526   1.61457
 Alpha virt. eigenvalues --    1.62087   1.62342   1.62638   1.62926   1.64004
 Alpha virt. eigenvalues --    1.64044   1.64629   1.65154   1.65373   1.66178
 Alpha virt. eigenvalues --    1.66728   1.69147   1.69452   1.69979   1.70131
 Alpha virt. eigenvalues --    1.70168   1.70241   1.70446   1.71039   1.71279
 Alpha virt. eigenvalues --    1.71923   1.72186   1.74376   1.74604   1.74693
 Alpha virt. eigenvalues --    1.76148   1.76333   1.77570   1.78365   1.78718
 Alpha virt. eigenvalues --    1.78834   1.82343   1.83449   1.84034   1.84211
 Alpha virt. eigenvalues --    1.85273   1.85467   1.85514   1.85566   1.86151
 Alpha virt. eigenvalues --    1.86316   1.86997   1.87841   1.88637   1.88908
 Alpha virt. eigenvalues --    1.90495   1.90723   1.91214   1.91332   1.91660
 Alpha virt. eigenvalues --    1.91690   1.92562   1.92790   1.94880   1.95242
 Alpha virt. eigenvalues --    1.95476   1.96535   1.96768   1.98622   2.00073
 Alpha virt. eigenvalues --    2.00084   2.00289   2.00539   2.01796   2.04124
 Alpha virt. eigenvalues --    2.04261   2.04439   2.06286   2.06512   2.07679
 Alpha virt. eigenvalues --    2.07892   2.09248   2.11135   2.13148   2.13461
 Alpha virt. eigenvalues --    2.13572   2.14131   2.14712   2.15645   2.16081
 Alpha virt. eigenvalues --    2.16735   2.17824   2.18320   2.18407   2.19236
 Alpha virt. eigenvalues --    2.19250   2.20112   2.22791   2.23041   2.23394
 Alpha virt. eigenvalues --    2.23663   2.24109   2.24336   2.24420   2.26327
 Alpha virt. eigenvalues --    2.26933   2.27318   2.27533   2.27886   2.29431
 Alpha virt. eigenvalues --    2.29435   2.29563   2.29868   2.31072   2.31878
 Alpha virt. eigenvalues --    2.32564   2.33453   2.38595   2.38887   2.39431
 Alpha virt. eigenvalues --    2.39555   2.41070   2.43774   2.43874   2.43999
 Alpha virt. eigenvalues --    2.45772   2.45998   2.47118   2.47491   2.48024
 Alpha virt. eigenvalues --    2.48341   2.48646   2.49397   2.51161   2.51288
 Alpha virt. eigenvalues --    2.52041   2.52353   2.52668   2.54601   2.55295
 Alpha virt. eigenvalues --    2.56402   2.57217   2.58233   2.58366   2.58408
[...]
    42  H   -0.000127   0.002409  -0.000411  -0.000390  -0.000421  -0.000427
    43  C   -0.000000  -0.009872   0.006936   0.006915  -0.066546  -0.066565
    44  C   -0.000192  -0.000000   0.000000   0.000000  -0.000000  -0.000000
    45  N   -0.000000  -0.000374   0.000143   0.000142   0.001636   0.001635
    46  N   -0.000001  -0.000000   0.000000   0.000000  -0.000000  -0.000000
              25         26         27         28         29         30
     1  C   -0.000000   0.000000   0.000000  -0.000011  -0.000011   0.450673
     2  C   -0.000003   0.000000   0.000000  -0.000002  -0.000001  -0.061715
     3  C    0.000118  -0.000002  -0.000002   0.000576   0.000578   0.013891
     4  C    0.001065  -0.000024  -0.000024   0.002652   0.002656  -0.004115
     5  C   -0.000087   0.000012   0.000013   0.000086   0.000090   0.013493
     6  C   -0.000024  -0.000005  -0.000005   0.000018   0.000019  -0.056535
     7  C    0.001065  -0.000024  -0.000024   0.002650   0.002657  -0.000007
     8  C    0.000118  -0.000002  -0.000002   0.000576   0.000578   0.000034
     9  C   -0.000003   0.000000   0.000000  -0.000002  -0.000001  -0.000001
    10  H   -0.000000  -0.000000  -0.000000  -0.000000  -0.000000  -0.000000
    11  C   -0.000000   0.000000   0.000000  -0.000011  -0.000011   0.000000
    12  C   -0.000024  -0.000005  -0.000005   0.000019   0.000018  -0.000000
    13  C   -0.000087   0.000012   0.000013   0.000087   0.000089   0.000000
    14  H   -0.000000  -0.000000  -0.000000  -0.000000  -0.000000  -0.005700
    15  H    0.000383  -0.000004  -0.000004   0.000156   0.000155  -0.000156
    16  H    0.000002  -0.000000  -0.000000   0.000003   0.000003  -0.006902
    17  H    0.000000   0.000000   0.000000  -0.000000  -0.000000  -0.000000
    18  H    0.000002  -0.000000  -0.000000   0.000003   0.000003   0.000000
    19  N    0.000002  -0.000000  -0.000000  -0.000004  -0.000005  -0.000108
    20  C   -0.102931   0.013473   0.013466  -0.059108  -0.059055  -0.000006
    21  C    0.012282  -0.048529  -0.002097   0.460825   0.009170   0.000001
    22  C    0.012303  -0.002100  -0.048533   0.009165   0.460812   0.000001
    23  C    0.393208   0.448614   0.007710  -0.061358  -0.002994  -0.000000
    24  C    0.393224   0.007713   0.448616  -0.002997  -0.061395  -0.000000
    25  C    5.152932  -0.055978  -0.055960   0.013401   0.013396   0.000000
    26  H   -0.055978   0.481692  -0.000176  -0.007438   0.000031   0.000000
    27  H   -0.055960  -0.000176   0.481688   0.000031  -0.007435   0.000000
    28  H    0.013401  -0.007438   0.000031   0.488633  -0.000146  -0.000000
    29  H    0.013396   0.000031  -0.007435  -0.000146   0.488628  -0.000000
    30  H    0.000000   0.000000   0.000000  -0.000000  -0.000000   0.514363
    31  N    0.000711  -0.000323  -0.000322  -0.002714  -0.002754   0.000019
    32  C    0.000000  -0.000000  -0.000000   0.000008   0.000008   0.000065
    33  C    0.000000  -0.000000   0.000000  -0.000001   0.000000   0.000007
    34  C    0.000000   0.000000  -0.000000   0.000000  -0.000001   0.000007
    35  C   -0.000000  -0.000000   0.000000   0.000000  -0.000000   0.000000
    36  H    0.000000   0.000000  -0.000000   0.000001   0.000000   0.000003
    37  C   -0.000000   0.000000  -0.000000  -0.000000   0.000000   0.000000
    38  H    0.000000  -0.000000   0.000000   0.000000   0.000001   0.000003
    39  C    0.000000  -0.000000  -0.000000   0.000000   0.000000   0.000002
    40  H   -0.000000   0.000000  -0.000000   0.000000  -0.000000  -0.000000
    41  H   -0.000000  -0.000000   0.000000  -0.000000   0.000000  -0.000000
    42  H    0.000383  -0.000004  -0.000004   0.000155   0.000156   0.000000
    43  C    0.013019  -0.003691  -0.003701   0.000002   0.000003   0.000000
    44  C    0.000000  -0.000000  -0.000000   0.000000   0.000000   0.000000
    45  N   -0.070625   0.001009   0.001009   0.000004   0.000004   0.000000
    46  N    0.000000  -0.000000  -0.000000  -0.000000  -0.000000  -0.000000
              31         32         33         34         35         36
     1  C    0.000788  -0.007853   0.000129   0.000125   0.000130   0.000019
     2  C    0.002696  -0.023998  -0.008431  -0.008401  -0.001414   0.000085
     3  C   -0.055872  -0.087017   0.008868   0.008826  -0.002973   0.002650
     4  C    0.414548   0.014762   0.001902   0.001921  -0.000464   0.000576
     5  C   -0.084592  -0.001028  -0.000107  -0.000110   0.000005  -0.000001
     6  C    0.006530   0.000286  -0.000009  -0.000008   0.000012  -0.000011
     7  C    0.414549   0.014764   0.001897   0.001926  -0.000463   0.000577
     8  C   -0.055873  -0.087018   0.008828   0.008868  -0.002965   0.002651
     9  C    0.002696  -0.024001  -0.008412  -0.008423  -0.001407   0.000084
    10  H   -0.000127   0.002409  -0.000389  -0.000413  -0.000425   0.000156
    11  C    0.000788  -0.007854   0.000125   0.000129   0.000131   0.000018
    12  C    0.006530   0.000286  -0.000010  -0.000008   0.000011  -0.000011
    13  C   -0.084591  -0.001028  -0.000105  -0.000111   0.000005  -0.000002
    14  H   -0.000127   0.002409  -0.000406  -0.000395  -0.000423   0.000155
    15  H   -0.008819   0.000021  -0.000002  -0.000002   0.000000  -0.000000
    16  H   -0.000108  -0.000006   0.000001   0.000001  -0.000000  -0.000000
    17  H    0.000019   0.000065   0.000007   0.000007   0.000000   0.000003
    18  H   -0.000108  -0.000006   0.000001   0.000001  -0.000000  -0.000000
    19  N   -0.004360   0.030366  -0.032205  -0.032250   0.015665  -0.002718
    20  C    0.030366   0.000253  -0.000025  -0.000024  -0.000002   0.000008
    21  C   -0.032178  -0.000024   0.000029  -0.000013   0.000001  -0.000001
    22  C   -0.032277  -0.000025  -0.000013   0.000029  -0.000000   0.000000
    23  C    0.015676  -0.000002   0.000001  -0.000000   0.000000   0.000000
    24  C    0.015672  -0.000002  -0.000000   0.000001  -0.000000  -0.000000
    25  C    0.000711   0.000000   0.000000   0.000000  -0.000000   0.000000
    26  H   -0.000323  -0.000000  -0.000000   0.000000  -0.000000   0.000000
    27  H   -0.000322  -0.000000   0.000000  -0.000000   0.000000  -0.000000
    28  H   -0.002714   0.000008  -0.000001   0.000000   0.000000   0.000001
    29  H   -0.002754   0.000008   0.000000  -0.000001  -0.000000   0.000000
    30  H    0.000019   0.000065   0.000007   0.000007   0.000000   0.000003
    31  N    6.441615  -0.003466   0.000412   0.000417   0.000009  -0.000004
    32  C   -0.003466   5.453326   0.434232   0.434202  -0.011461  -0.059099
    33  C    0.000412   0.434232   5.032207   0.001152   0.361486   0.460818
    34  C    0.000417   0.434202   0.001152   5.032499  -0.058607   0.009166
    35  C    0.000009  -0.011461   0.361486  -0.058607   5.159336  -0.061359
    36  H   -0.000004  -0.059099   0.460818   0.009166  -0.061359   0.488633
    37  C    0.000009  -0.011336  -0.058655   0.361143  -0.003726  -0.002997
    38  H   -0.000005  -0.059064   0.009169   0.460819  -0.002994  -0.000146
    39  C    0.000002  -0.102931   0.012257   0.012329   0.393256   0.013400
    40  H   -0.000000   0.013475  -0.048533  -0.002101   0.448619  -0.007437
    41  H   -0.000000   0.013464  -0.002096  -0.048529   0.007709   0.000031
    42  H   -0.008819   0.000021  -0.000002  -0.000002   0.000000  -0.000000
    43  C   -0.000192  -0.000000   0.000000   0.000000  -0.000000   0.000000
    44  C   -0.000000  -0.009872   0.006919   0.006932  -0.066553   0.000002
    45  N   -0.000001  -0.000000   0.000000   0.000000  -0.000000  -0.000000
    46  N   -0.000000  -0.000374   0.000143   0.000143   0.001635   0.000004
              37         38         39         40         41         42
     1  C    0.000130   0.000018  -0.000024  -0.000005  -0.000005   0.000001
     2  C   -0.001411   0.000091  -0.000087   0.000013   0.000012  -0.000003
     3  C   -0.002961   0.002658   0.001065  -0.000024  -0.000024   0.000255
     4  C   -0.000459   0.000578   0.000118  -0.000002  -0.000002  -0.001063
     5  C    0.000005  -0.000001  -0.000003   0.000000   0.000000   0.000039
     6  C    0.000012  -0.000011  -0.000000   0.000000   0.000000  -0.000005
     7  C   -0.000459   0.000578   0.000118  -0.000002  -0.000002  -0.047709
     8  C   -0.002969   0.002657   0.001065  -0.000024  -0.000024   0.011902
     9  C   -0.001417   0.000092  -0.000087   0.000013   0.000012  -0.002301
    10  H   -0.000423   0.000155   0.000383  -0.000004  -0.000004   0.000017
    11  C    0.000130   0.000019  -0.000024  -0.000005  -0.000005   0.008077
    12  C    0.000012  -0.000011  -0.000000   0.000000   0.000000  -0.042179
    13  C    0.000005  -0.000001  -0.000003   0.000000   0.000000   0.437581
    14  H   -0.000425   0.000156   0.000383  -0.000004  -0.000004  -0.000000
    15  H    0.000000  -0.000000  -0.000000  -0.000000  -0.000000   0.000023
    16  H   -0.000000  -0.000000   0.000000   0.000000   0.000000  -0.000000
    17  H    0.000000   0.000003   0.000002  -0.000000  -0.000000  -0.000156
    18  H   -0.000000  -0.000000   0.000000   0.000000   0.000000  -0.005700
    19  N    0.015684  -0.002749   0.000711  -0.000323  -0.000322  -0.000127
    20  C   -0.000002   0.000008   0.000000  -0.000000  -0.000000   0.002409
    21  C   -0.000000   0.000000   0.000000  -0.000000   0.000000  -0.000411
    22  C    0.000001  -0.000001   0.000000   0.000000  -0.000000  -0.000390
    23  C   -0.000000  -0.000000  -0.000000  -0.000000   0.000000  -0.000421
    24  C    0.000000   0.000000  -0.000000   0.000000  -0.000000  -0.000427
    25  C   -0.000000   0.000000   0.000000  -0.000000  -0.000000   0.000383
    26  H    0.000000  -0.000000  -0.000000   0.000000  -0.000000  -0.000004
    27  H   -0.000000   0.000000  -0.000000  -0.000000   0.000000  -0.000004
    28  H   -0.000000   0.000000   0.000000   0.000000  -0.000000   0.000155
    29  H    0.000000   0.000001   0.000000  -0.000000   0.000000   0.000156
    30  H    0.000000   0.000003   0.000002  -0.000000  -0.000000   0.000000
    31  N    0.000009  -0.000005   0.000002  -0.000000  -0.000000  -0.008819
    32  C   -0.011336  -0.059064  -0.102931   0.013475   0.013464   0.000021
    33  C   -0.058655   0.009169   0.012257  -0.048533  -0.002096  -0.000002
    34  C    0.361143   0.460819   0.012329  -0.002101  -0.048529  -0.000002
    35  C   -0.003726  -0.002994   0.393256   0.448619   0.007709   0.000000
    36  H   -0.002997  -0.000146   0.013400  -0.007437   0.000031  -0.000000
    37  C    5.159678  -0.061394   0.393175   0.007714   0.448612   0.000000
    38  H   -0.061394   0.488629   0.013397   0.000031  -0.007435  -0.000000
    39  C    0.393175   0.013397   5.152932  -0.055975  -0.055963  -0.000000
    40  H    0.007714   0.000031  -0.055975   0.481692  -0.000176  -0.000000
    41  H    0.448612  -0.007435  -0.055963  -0.000176   0.481687  -0.000000
    42  H    0.000000  -0.000000  -0.000000  -0.000000  -0.000000   0.487030
    43  C   -0.000000   0.000000   0.000000  -0.000000  -0.000000   0.000029
    44  C   -0.066558   0.000003   0.013019  -0.003697  -0.003695  -0.000000
    45  N   -0.000000  -0.000000   0.000000  -0.000000  -0.000000   0.000001
    46  N    0.001636   0.000004  -0.070625   0.001009   0.001009   0.000000
              43         44         45         46
     1  C   -0.000000   0.000004   0.000000   0.000000
     2  C    0.000000  -0.000013   0.000000  -0.000000
     3  C   -0.000002  -0.000076  -0.000000  -0.000001
     4  C   -0.000076  -0.000002  -0.000001  -0.000000
     5  C   -0.000013   0.000000  -0.000000   0.000000
     6  C    0.000004  -0.000000   0.000000   0.000000
     7  C   -0.000076  -0.000002  -0.000001  -0.000000
     8  C   -0.000002  -0.000076  -0.000000  -0.000001
     9  C    0.000000  -0.000013   0.000000  -0.000000
    10  H   -0.000000   0.000029   0.000000   0.000001
    11  C   -0.000000   0.000004   0.000000   0.000000
    12  C    0.000004  -0.000000   0.000000   0.000000
    13  C   -0.000013   0.000000  -0.000000   0.000000
    14  H   -0.000000   0.000029   0.000000   0.000001
    15  H    0.000029  -0.000000   0.000001   0.000000
    16  H    0.000000   0.000000  -0.000000   0.000000
    17  H    0.000000   0.000000   0.000000  -0.000000
    18  H    0.000000   0.000000  -0.000000   0.000000
    19  N   -0.000000  -0.000192  -0.000000  -0.000001
    20  C   -0.009872  -0.000000  -0.000374  -0.000000
    21  C    0.006936   0.000000   0.000143   0.000000
    22  C    0.006915   0.000000   0.000142   0.000000
    23  C   -0.066546  -0.000000   0.001636  -0.000000
    24  C   -0.066565  -0.000000   0.001635  -0.000000
    25  C    0.013019   0.000000  -0.070625   0.000000
    26  H   -0.003691  -0.000000   0.001009  -0.000000
    27  H   -0.003701  -0.000000   0.001009  -0.000000
    28  H    0.000002   0.000000   0.000004  -0.000000
    29  H    0.000003   0.000000   0.000004  -0.000000
    30  H    0.000000   0.000000   0.000000  -0.000000
    31  N   -0.000192  -0.000000  -0.000001  -0.000000
    32  C   -0.000000  -0.009872  -0.000000  -0.000374
    33  C    0.000000   0.006919   0.000000   0.000143
    34  C    0.000000   0.006932   0.000000   0.000143
    35  C   -0.000000  -0.066553  -0.000000   0.001635
    36  H    0.000000   0.000002  -0.000000   0.000004
    37  C   -0.000000  -0.066558  -0.000000   0.001636
    38  H    0.000000   0.000003  -0.000000   0.000004
    39  C    0.000000   0.013019   0.000000  -0.070625
    40  H   -0.000000  -0.003697  -0.000000   0.001009
    41  H   -0.000000  -0.003695  -0.000000   0.001009
    42  H    0.000029  -0.000000   0.000001   0.000000
    43  C    5.309178  -0.000000   1.018686  -0.000000
    44  C   -0.000000   5.309178  -0.000000   1.018686
    45  N    1.018686  -0.000000   6.116817   0.000000
    46  N   -0.000000   1.018686   0.000000   6.116817
 Mulliken charges:
               1
     1  C   -0.198146
     2  C   -0.193930
     3  C    0.065937
     4  C    0.065942
     5  C   -0.193931
     6  C   -0.198146
     7  C    0.065936
     8  C    0.065942
     9  C   -0.193930
    10  H    0.161644
    11  C   -0.198147
    12  C   -0.198148
    13  C   -0.193929
    14  H    0.161644
    15  H    0.161644
    16  H    0.142682
    17  H    0.142682
    18  H    0.142682
    19  N    0.023583
    20  C    0.083050
    21  C   -0.181072
    22  C   -0.181365
    23  C   -0.172790
    24  C   -0.172736
    25  C    0.278106
    26  H    0.165746
    27  H    0.165747
    28  H    0.154742
    29  H    0.154756
    30  H    0.142682
    31  N    0.023582
    32  C    0.083048
    33  C   -0.181190
    34  C   -0.181246
    35  C   -0.172774
    36  H    0.154749
    37  C   -0.172753
    38  H    0.154749
    39  C    0.278107
    40  H    0.165745
    41  H    0.165748
    42  H    0.161643
    43  C   -0.204059
    44  C   -0.204059
    45  N   -0.070083
    46  N   -0.070083
 Sum of Mulliken charges =  -0.00000
 Mulliken charges with hydrogens summed into heavy atoms:
               1
     1  C   -0.055464
     2  C   -0.032286
     3  C    0.065937
     4  C    0.065942
     5  C   -0.032286
     6  C   -0.055464
     7  C    0.065936
     8  C    0.065942
     9  C   -0.032286
    11  C   -0.055465
    12  C   -0.055466
    13  C   -0.032286
    19  N    0.023583
    20  C    0.083050
    21  C   -0.026329
    22  C   -0.026609
    23  C   -0.007044
    24  C   -0.006989
    25  C    0.278106
    31  N    0.023582
    32  C    0.083048
    33  C   -0.026442
    34  C   -0.026497
    35  C   -0.007029
    37  C   -0.007005
    39  C    0.278107
    43  C   -0.204059
    44  C   -0.204059
    45  N   -0.070083
    46  N   -0.070083
 Electronic spatial extent (au):  <R**2>=          14229.1546
 Charge=              0.0000 electrons
 Dipole moment (field-independent basis, Debye):
    X=             -0.0000    Y=              0.0001    Z=             -0.0021  Tot=              0.0021
 Quadrupole moment (field-independent basis, Debye-Ang):
   XX=           -294.7165   YY=           -172.4536   ZZ=           -159.5237
   XY=             -0.0001   XZ=              0.0178   YZ=             -0.0029
 Traceless Quadrupole moment (field-independent basis, Debye-Ang):
   XX=            -85.8185   YY=             36.4444   ZZ=             49.3742
   XY=             -0.0001   XZ=              0.0178   YZ=             -0.0029
 Octapole moment (field-independent basis, Debye-Ang**2):
  XXX=             -0.0002  YYY=              0.0011  ZZZ=              0.0001  XYY=              0.0000
  XXY=              0.0010  XXZ=             -0.2812  XZZ=             -0.0000  YZZ=             -0.0000
  YYZ=              0.0106  XYZ=             -0.0549
 Hexadecapole moment (field-independent basis, Debye-Ang**3):
 XXXX=         -30088.3303 YYYY=          -3013.4007 ZZZZ=           -606.5033 XXXY=             -0.0145
 XXXZ=              1.0447 YYYX=             -0.0004 YYYZ=              0.0051 ZZZX=              0.0138
 ZZZY=             -0.0439 XXYY=          -3281.9193 XXZZ=          -2487.1998 YYZZ=           -748.9407
 XXYZ=             -0.0683 YYXZ=              0.0473 ZZXY=              0.0004
 N-N= 2.542230638865D+03 E-N=-7.914296461320D+03  KE= 1.213781055020D+03
 Leave Link  601 at Mon Feb 15 12:29:28 2021, MaxMem=  5242880000 cpu:         6.3
 (Enter /opt/nce/packages/global/g09/l9999.exe)
 1\1\GINC-CN018\SP\RB3LYP TD-FC\Gen\C26H16N4\PNG4RJV\15-Feb-2021\0\\#p 
 b3lyp chkbasis geom=allcheck Guess=Read int=ultrafine scrf=(SMD,solven
 t=n,n-DiMethylFormamide) td=(NStates=30) EmpiricalDispersion=GD3BJ\\Ti
 tle\\0,1\C,0,0.6908341951,3.6506669383,0.0004218644\C,0,1.3831051599,2
 .4382817228,0.00041615\C,0,0.705365068,1.2238867748,-0.000187013\C,0,-
 0.7053802765,1.2238764144,-0.0006663214\C,0,-1.3831459895,2.4382558138
 ,-0.0006944483\C,0,-0.6909001855,3.6506545503,-0.0001756974\C,0,-0.705
 3639767,-1.2238750949,-0.0006711818\C,0,0.705381677,-1.2238639568,-0.0
 003243494\C,0,1.3831470295,-2.4382426833,-0.0000508945\H,0,2.463035207
 9,-2.4428102709,0.0001358733\C,0,0.690901786,-3.650641555,-0.000012202
 9\C,0,-0.690833143,-3.6506546527,-0.0002500268\C,0,-1.383103832,-2.438
 2694574,-0.0005731952\H,0,2.4629916733,2.4428796718,0.0008690988\H,0,-
 2.4630333478,2.4428255553,-0.0011486036\H,0,-1.245974927,4.5794699414,
 -0.00022617\H,0,1.2459785203,-4.5794557035,0.0001988983\H,0,-1.2458924
 071,-4.5794793451,-0.0002001768\N,0,1.3907811933,0.0000129198,-0.00039
 43416\C,0,-2.8162835386,-0.000012028,-0.0006809679\C,0,-3.5062616059,-
 0.0005782043,-1.208569143\C,0,-3.5053263769,0.0005509104,1.2077551967\
 C,0,-4.8906954372,-0.0005963988,-1.2147800223\C,0,-4.8897450559,0.0005
 564415,1.215040754\C,0,-5.5835053657,-0.0000237867,0.000398073\H,0,-5.
 437113097,-0.0010281943,-2.147467433\H,0,-5.4354508537,0.0009842579,2.
 1481454792\H,0,-2.9524081167,-0.0010007539,-2.1375116854\H,0,-2.950766
 5312,0.0009799285,2.1362775461\H,0,1.2458924761,4.5794922923,0.0008751
 68\N,0,-1.3907797827,-0.0000049764,-0.0012545869\C,0,2.8162839883,0.00
 00148933,-0.000149182\C,0,3.5059679728,0.0009260368,-1.208210494\C,0,3
 .50562251,-0.0009006901,1.2081132433\C,0,4.8903952948,0.000949223,-1.2
 147632838\H,0,2.9518888208,0.0016116501,-2.1370189171\C,0,4.8900475408
 ,-0.000914566,1.2150573282\H,0,2.9512879717,-0.0015910364,2.1367693861
 \C,0,5.5835065176,0.0000210084,0.0002463951\H,0,5.4365874928,0.0016434
 284,-2.1475828605\H,0,5.435978949,-0.0016080962,2.1480295458\H,0,-2.46
 29911208,-2.4428644095,-0.0007937908\C,0,-7.0101565649,-0.0000302557,0
 .0009786636\C,0,7.0101579846,0.0000252521,0.0004563502\N,0,-8.16283361
 52,-0.0000354753,0.0014597222\N,0,8.1628351178,0.0000289655,0.00062925
 3\\Version=ES64L-G09RevE.01\State=1-A\HF=-1219.9744747\RMSD=7.306e-10\
 PG=C01 [X(C26H16N4)]\\@


 BULLDOZER: SOMEONE WHO SLEEPS THROUGH SPEECHES.
 Job cpu time:       1 days 14 hours 26 minutes 46.3 seconds.
 File lengths (MBytes):  RWF=   5179 Int=      0 D2E=      0 Chk=    937 Scr=      1
 Normal termination of Gaussian 09 at Mon Feb 15 12:29:29 2021.
