 Entering Gaussian System, Link 0=g09
 Input=/home/png4rjv/fotokatalizis/benchmark/OPCs/RESTART_2/PA_3_TPSS_def2TZVP.gjf
 Output=/home/png4rjv/fotokatalizis/benchmark/OPCs/RESTART_2/PA_3_TPSS_def2TZVP.log
 Initial command:
 /opt/nce/packages/global/g09/l1.exe "/home/png4rjv/fotokatalizis/benchmark/OPCs/RESTART_2/PA_3_TPSS_def2TZVP/Gau-16036.inp" -scrdir="/home/png4rjv/fotokatalizis/benchmark/OPCs/RESTART_2/PA_3_TPSS_def2TZVP/"
 Default is to use a total of  12 processors:
                               12 via shared-memory
                                1 via Linda
 Entering Link 1 = /opt/nce/packages/global/g09/l1.exe PID=     16039.
  
 Copyright (c) 1988,1990,1992,1993,1995,1998,2003,2009,2015,
            Gaussian, Inc.  All Rights Reserved.
  
 This is part of the Gaussian(R) 09 program.  It is based on
 the Gaussian(R) 03 system (copyright 2003, Gaussian, Inc.),
 the Gaussian(R) 98 system (copyright 1998, Gaussian, Inc.),
 the Gaussian(R) 94 system (copyright 1995, Gaussian, Inc.),
 the Gaussian 92(TM) system (copyright 1992, Gaussian, Inc.),
 the Gaussian 90(TM) system (copyright 1990, Gaussian, Inc.),
 the Gaussian 88(TM) system (copyright 1988, Gaussian, Inc.),
 the Gaussian 86(TM) system (copyright 1986, Carnegie Mellon
 University), and the Gaussian 82(TM) system (copyright 1983,
 Carnegie Mellon University). Gaussian is a federally registered
 trademark of Gaussian, Inc.
  
 This software contains proprietary and confidential information,
 including trade secrets, belonging to Gaussian, Inc.
  
 This software is provided under written license and may be
 used, copied, transmitted, or stored only in accord with that
 written license.
  
 The following legend is applicable only to US Government
 contracts under FAR:
  
                    RESTRICTED RIGHTS LEGEND
  
 Use, reproduction and disclosure by the US Government is
 subject to restrictions as set forth in subparagraphs (a)
 and (c) of the Commercial Computer Software - Restricted
 Rights clause in FAR 52.227-19.
  
 Gaussian, Inc.
 340 Quinnipiac St., Bldg. 40, Wallingford CT 06492
  
  
 ---------------------------------------------------------------
 Warning -- This program may not be used in any manner that
 competes with the business of Gaussian, Inc. or will provide
 assistance to any competitor of Gaussian, Inc.  The licensee
 of this program is prohibited from giving any competitor of
 Gaussian, Inc. access to this program.  By using this program,
 the user acknowledges that Gaussian, Inc. is engaged in the
 business of creating and licensing software in the field of
 computational chemistry and represents and warrants to the
 licensee that it is not a competitor of Gaussian, Inc. and that
 it will not use this program in any manner prohibited above.
 ---------------------------------------------------------------
  

 Cite this work as:
 Gaussian 09, Revision E.01,
 M. J. Frisch, G. W. Trucks, H. B. Schlegel, G. E. Scuseria, 
 M. A. Robb, J. R. Cheeseman, G. Scalmani, V. Barone, B. Mennucci, 
 G. A. Petersson, H. Nakatsuji, M. Caricato, X. Li, H. P. Hratchian, 
 A. F. Izmaylov, J. Bloino, G. Zheng, J. L. Sonnenberg, M. Hada, 
 M. Ehara, K. Toyota, R. Fukuda, J. Hasegawa, M. Ishida, T. Nakajima, 
 Y. Honda, O. Kitao, H. Nakai, T. Vreven, J. A. Montgomery, Jr., 
 J. E. Peralta, F. Ogliaro, M. Bearpark, J. J. Heyd, E. Brothers, 
 K. N. Kudin, V. N. Staroverov, T. Keith, R. Kobayashi, J. Normand, 
 K. Raghavachari, A. Rendell, J. C. Burant, S. S. Iyengar, J. Tomasi, 
 M. Cossi, N. Rega, J. M. Millam, M. Klene, J. E. Knox, J. B. Cross, 
 V. Bakken, C. Adamo, J. Jaramillo, R. Gomperts, R. E. Stratmann, 
 O. Yazyev, A. J. Austin, R. Cammi, C. Pomelli, J. W. Ochterski, 
 R. L. Martin, K. Morokuma, V. G. Zakrzewski, G. A. Voth, 
 P. Salvador, J. J. Dannenberg, S. Dapprich, A. D. Daniels, 
 O. Farkas, J. B. Foresman, J. V. Ortiz, J. Cioslowski, 
 and D. J. Fox, Gaussian, Inc., Wallingford CT, 2013.
 
 ******************************************
 Gaussian 09:  ES64L-G09RevE.01 30-Nov-2015
                23-Nov-2021 
 ******************************************
 %chk=cp.chk
 Default route:  MaxDisk=500GB
 ----------------------------------------------------------------------
 #p TPSSTPSS/def2TZVP opt=tight freq=noraman nosymm int=ultrafine scrf=
 (SMD,solvent=n,n-DiMethylFormamide)
 ----------------------------------------------------------------------
 1/7=10,14=-1,18=20,19=15,26=4,38=1/1,3;
 2/9=110,12=2,15=1,17=6,18=5,40=1/2;
 3/5=44,7=101,11=2,16=1,25=1,30=1,70=32201,71=1,72=148,74=2523,75=-5/1,2,3;
 4//1;
 5/5=2,38=5,53=148/2;
 6/7=2,8=2,9=2,10=2,28=1/1;
 7/30=1/1,2,3,16;
 1/7=10,14=-1,18=20,19=15,26=4/3(2);
 2/9=110,15=1/2;
 99//99;
 2/9=110,15=1/2;
 3/5=44,7=101,11=2,16=1,25=1,30=1,70=32205,71=1,72=148,74=2523,75=-5/1,2,3;
 4/5=5,16=3,69=1/1;
 5/5=2,38=5,53=148/2;
 7/30=1/1,2,3,16;
 1/7=10,14=-1,18=20,19=15,26=4/3(-5);
 2/9=110,15=1/2;
 6/7=2,8=2,9=2,10=2,19=2,28=1/1;
 99/9=1/99;
 Leave Link    1 at Tue Nov 23 10:54:08 2021, MaxMem=           0 cpu:         2.2
 (Enter /opt/nce/packages/global/g09/l101.exe)
 -----
 Title
 -----
 Symbolic Z-matrix:
 Charge =  0 Multiplicity = 1
 C                     0.69393   3.66676   0.00045 
 C                     1.38854   2.44918   0.00044 
 C                     0.70841   1.22854  -0.00011 
 C                    -0.70842   1.22853  -0.00053 
 C                    -1.38858   2.44915  -0.00055 
 C                    -0.694     3.66675  -0.0001 
 C                    -0.68662  -1.24079  -0.24745 
 C                     0.70842  -1.22852  -0.00023 
 C                     1.38858  -2.44914   0. 
 H                     2.47348  -2.45193   0.00015 
 C                     0.694    -3.66673   0.00005 
 C                    -0.69393  -3.66675  -0.00013 
 C                    -1.38854  -2.44917  -0.00041 
 H                     2.47344   2.45199   0.00086 
 H                    -2.47348   2.45194  -0.00096 
 H                    -1.25246   4.59842  -0.00015 
 H                     1.25246  -4.5984    0.00023 
 H                    -1.25238  -4.59843  -0.00007 
 N                     1.39888   0.00001  -0.00032 
 C                    -2.83454  -0.00001  -0.00059 
 C                    -3.52887  -0.0007   -1.21462 
 C                    -3.52815   0.00067   1.21387 
 C                    -4.91913  -0.00072  -1.2206 
 C                    -4.9184    0.00068   1.22067 
 C                    -5.61642  -0.00002   0.00024 
 H                    -5.46653  -0.00124  -2.15735 
 H                    -5.46526   0.00119   2.15773 
 H                    -2.97701  -0.00121  -2.14959 
 H                    -2.97576   0.00118   2.14852 
 H                     1.25238   4.59844   0.00086 
 N                    -1.39888  -0.00001  -0.00105 
 C                     2.83454   0.00002  -0.00014 
 C                     3.52862   0.24933  -1.18845 
 C                     3.52841  -0.24929   1.1883 
 C                     4.91888   0.25066  -1.19457 
 H                     2.97657   0.44123  -2.1034 
 C                     4.91866  -0.2506    1.19468 
 H                     2.9762   -0.4412    2.10316 
 C                     5.61642   0.00004   0.00012 
 H                     5.46608   0.44301  -2.11148 
 H                     5.46571  -0.44294   2.11168 
 H                    -2.47344  -2.45198  -0.00058 
 C                    -7.04488  -0.00003   0.00069 
 C                     7.04488   0.00005   0.00025 
 N                    -8.208    -0.00004   0.00107 
 N                     8.208     0.00006   0.00037 
 
 NAtoms=     46 NQM=       46 NQMF=       0 NMMI=      0 NMMIF=      0
                NMic=       0 NMicF=      0.
                    Isotopes and Nuclear Properties:
 (Nuclear quadrupole moments (NQMom) in fm**2, nuclear magnetic moments (NMagM)
  in nuclear magnetons)

  Atom         1           2           3           4           5           6           7           8           9          10
 IAtWgt=          12          12          12          12          12          12          12          12          12           1
 AtmWgt=  12.0000000  12.0000000  12.0000000  12.0000000  12.0000000  12.0000000  12.0000000  12.0000000  12.0000000   1.0078250
 NucSpn=           0           0           0           0           0           0           0           0           0           1
 AtZEff=   0.0000000   0.0000000   0.0000000   0.0000000   0.0000000   0.0000000   0.0000000   0.0000000   0.0000000   0.0000000
 NQMom=    0.0000000   0.0000000   0.0000000   0.0000000   0.0000000   0.0000000   0.0000000   0.0000000   0.0000000   0.0000000
 NMagM=    0.0000000   0.0000000   0.0000000   0.0000000   0.0000000   0.0000000   0.0000000   0.0000000   0.0000000   2.7928460
 AtZNuc=   6.0000000   6.0000000   6.0000000   6.0000000   6.0000000   6.0000000   6.0000000   6.0000000   6.0000000   1.0000000

  Atom        11          12          13          14          15          16          17          18          19          20
 IAtWgt=          12          12          12           1           1           1           1           1          14          12
 AtmWgt=  12.0000000  12.0000000  12.0000000   1.0078250   1.0078250   1.0078250   1.0078250   1.0078250  14.0030740  12.0000000
 NucSpn=           0           0           0           1           1           1           1           1           2           0
 AtZEff=   0.0000000   0.0000000   0.0000000   0.0000000   0.0000000   0.0000000   0.0000000   0.0000000   0.0000000   0.0000000
 NQMom=    0.0000000   0.0000000   0.0000000   0.0000000   0.0000000   0.0000000   0.0000000   0.0000000   2.0440000   0.0000000
 NMagM=    0.0000000   0.0000000   0.0000000   2.7928460   2.7928460   2.7928460   2.7928460   2.7928460   0.4037610   0.0000000
 AtZNuc=   6.0000000   6.0000000   6.0000000   1.0000000   1.0000000   1.0000000   1.0000000   1.0000000   7.0000000   6.0000000

  Atom        21          22          23          24          25          26          27          28          29          30
 IAtWgt=          12          12          12          12          12           1           1           1           1           1
 AtmWgt=  12.0000000  12.0000000  12.0000000  12.0000000  12.0000000   1.0078250   1.0078250   1.0078250   1.0078250   1.0078250
 NucSpn=           0           0           0           0           0           1           1           1           1           1
 AtZEff=   0.0000000   0.0000000   0.0000000   0.0000000   0.0000000   0.0000000   0.0000000   0.0000000   0.0000000   0.0000000
 NQMom=    0.0000000   0.0000000   0.0000000   0.0000000   0.0000000   0.0000000   0.0000000   0.0000000   0.0000000   0.0000000
 NMagM=    0.0000000   0.0000000   0.0000000   0.0000000   0.0000000   2.7928460   2.7928460   2.7928460   2.7928460   2.7928460
 AtZNuc=   6.0000000   6.0000000   6.0000000   6.0000000   6.0000000   1.0000000   1.0000000   1.0000000   1.0000000   1.0000000

  Atom        31          32          33          34          35          36          37          38          39          40
 IAtWgt=          14          12          12          12          12           1          12           1          12           1
 AtmWgt=  14.0030740  12.0000000  12.0000000  12.0000000  12.0000000   1.0078250  12.0000000   1.0078250  12.0000000   1.0078250
 NucSpn=           2           0           0           0           0           1           0           1           0           1
 AtZEff=   0.0000000   0.0000000   0.0000000   0.0000000   0.0000000   0.0000000   0.0000000   0.0000000   0.0000000   0.0000000
 NQMom=    2.0440000   0.0000000   0.0000000   0.0000000   0.0000000   0.0000000   0.0000000   0.0000000   0.0000000   0.0000000
 NMagM=    0.4037610   0.0000000   0.0000000   0.0000000   0.0000000   2.7928460   0.0000000   2.7928460   0.0000000   2.7928460
 AtZNuc=   7.0000000   6.0000000   6.0000000   6.0000000   6.0000000   1.0000000   6.0000000   1.0000000   6.0000000   1.0000000

  Atom        41          42          43          44          45          46
 IAtWgt=           1           1          12          12          14          14
 AtmWgt=   1.0078250   1.0078250  12.0000000  12.0000000  14.0030740  14.0030740
 NucSpn=           1           1           0           0           2           2
 AtZEff=   0.0000000   0.0000000   0.0000000   0.0000000   0.0000000   0.0000000
 NQMom=    0.0000000   0.0000000   0.0000000   0.0000000   2.0440000   2.0440000
 NMagM=    2.7928460   2.7928460   0.0000000   0.0000000   0.4037610   0.4037610
 AtZNuc=   1.0000000   1.0000000   6.0000000   6.0000000   7.0000000   7.0000000
 Leave Link  101 at Tue Nov 23 10:54:08 2021, MaxMem=  5242880000 cpu:         4.4
 (Enter /opt/nce/packages/global/g09/l103.exe)

 GradGradGradGradGradGradGradGradGradGradGradGradGradGradGradGradGradGrad
 Berny optimization.
 Initialization pass.
                           ----------------------------
                           !    Initial Parameters    !
                           ! (Angstroms and Degrees)  !
 --------------------------                            --------------------------
 ! Name  Definition              Value          Derivative Info.                !
 --------------------------------------------------------------------------------
 ! R1    R(1,2)                  1.4018         estimate D2E/DX2                !
 ! R2    R(1,6)                  1.3879         estimate D2E/DX2                !
 ! R3    R(1,30)                 1.0862         estimate D2E/DX2                !
 ! R4    R(2,3)                  1.3973         estimate D2E/DX2                !
 ! R5    R(2,14)                 1.0849         estimate D2E/DX2                !
 ! R6    R(3,4)                  1.4168         estimate D2E/DX2                !
 ! R7    R(3,19)                 1.4093         estimate D2E/DX2                !
 ! R8    R(4,5)                  1.3973         estimate D2E/DX2                !
 ! R9    R(4,31)                 1.4093         estimate D2E/DX2                !
 ! R10   R(5,6)                  1.4018         estimate D2E/DX2                !
 ! R11   R(5,15)                 1.0849         estimate D2E/DX2                !
 ! R12   R(6,16)                 1.0862         estimate D2E/DX2                !
 ! R13   R(7,8)                  1.4168         estimate D2E/DX2                !
 ! R14   R(7,13)                 1.4191         estimate D2E/DX2                !
 ! R15   R(7,31)                 1.4518         estimate D2E/DX2                !
 ! R16   R(8,9)                  1.3973         estimate D2E/DX2                !
 ! R17   R(8,19)                 1.4093         estimate D2E/DX2                !
 ! R18   R(9,10)                 1.0849         estimate D2E/DX2                !
 ! R19   R(9,11)                 1.4018         estimate D2E/DX2                !
 ! R20   R(11,12)                1.3879         estimate D2E/DX2                !
 ! R21   R(11,17)                1.0862         estimate D2E/DX2                !
 ! R22   R(12,13)                1.4018         estimate D2E/DX2                !
 ! R23   R(12,18)                1.0862         estimate D2E/DX2                !
 ! R24   R(13,42)                1.0849         estimate D2E/DX2                !
 ! R25   R(19,32)                1.4357         estimate D2E/DX2                !
 ! R26   R(20,21)                1.3986         estimate D2E/DX2                !
 ! R27   R(20,22)                1.3986         estimate D2E/DX2                !
 ! R28   R(20,31)                1.4357         estimate D2E/DX2                !
 ! R29   R(21,23)                1.3903         estimate D2E/DX2                !
 ! R30   R(21,28)                1.0857         estimate D2E/DX2                !
 ! R31   R(22,24)                1.3903         estimate D2E/DX2                !
 ! R32   R(22,29)                1.0857         estimate D2E/DX2                !
 ! R33   R(23,25)                1.4059         estimate D2E/DX2                !
 ! R34   R(23,26)                1.085          estimate D2E/DX2                !
 ! R35   R(24,25)                1.4059         estimate D2E/DX2                !
 ! R36   R(24,27)                1.085          estimate D2E/DX2                !
 ! R37   R(25,43)                1.4285         estimate D2E/DX2                !
 ! R38   R(32,33)                1.3986         estimate D2E/DX2                !
 ! R39   R(32,34)                1.3986         estimate D2E/DX2                !
 ! R40   R(33,35)                1.3903         estimate D2E/DX2                !
 ! R41   R(33,36)                1.0857         estimate D2E/DX2                !
 ! R42   R(34,37)                1.3903         estimate D2E/DX2                !
 ! R43   R(34,38)                1.0857         estimate D2E/DX2                !
 ! R44   R(35,39)                1.4059         estimate D2E/DX2                !
 ! R45   R(35,40)                1.085          estimate D2E/DX2                !
 ! R46   R(37,39)                1.4059         estimate D2E/DX2                !
 ! R47   R(37,41)                1.085          estimate D2E/DX2                !
 ! R48   R(39,44)                1.4285         estimate D2E/DX2                !
 ! R49   R(43,45)                1.1631         estimate D2E/DX2                !
 ! R50   R(44,46)                1.1631         estimate D2E/DX2                !
 ! A1    A(2,1,6)              119.7034         estimate D2E/DX2                !
 ! A2    A(2,1,30)             119.3577         estimate D2E/DX2                !
 ! A3    A(6,1,30)             120.9389         estimate D2E/DX2                !
 ! A4    A(1,2,3)              121.1697         estimate D2E/DX2                !
 ! A5    A(1,2,14)             119.5553         estimate D2E/DX2                !
 ! A6    A(3,2,14)             119.275          estimate D2E/DX2                !
 ! A7    A(2,3,4)              119.1269         estimate D2E/DX2                !
 ! A8    A(2,3,19)             121.5361         estimate D2E/DX2                !
 ! A9    A(4,3,19)             119.337          estimate D2E/DX2                !
 ! A10   A(3,4,5)              119.1272         estimate D2E/DX2                !
 ! A11   A(3,4,31)             119.3371         estimate D2E/DX2                !
 ! A12   A(5,4,31)             121.5357         estimate D2E/DX2                !
 ! A13   A(4,5,6)              121.1696         estimate D2E/DX2                !
 ! A14   A(4,5,15)             119.2749         estimate D2E/DX2                !
 ! A15   A(6,5,15)             119.5556         estimate D2E/DX2                !
 ! A16   A(1,6,5)              119.7033         estimate D2E/DX2                !
 ! A17   A(1,6,16)             120.9389         estimate D2E/DX2                !
 ! A18   A(5,6,16)             119.3578         estimate D2E/DX2                !
 ! A19   A(8,7,13)             117.6464         estimate D2E/DX2                !
 ! A20   A(8,7,31)             116.4911         estimate D2E/DX2                !
 ! A21   A(13,7,31)            117.0998         estimate D2E/DX2                !
 ! A22   A(7,8,9)              118.1468         estimate D2E/DX2                !
 ! A23   A(7,8,19)             119.3372         estimate D2E/DX2                !
 ! A24   A(9,8,19)             121.5357         estimate D2E/DX2                !
 ! A25   A(8,9,10)             119.2748         estimate D2E/DX2                !
 ! A26   A(8,9,11)             121.1697         estimate D2E/DX2                !
 ! A27   A(10,9,11)            119.5556         estimate D2E/DX2                !
 ! A28   A(9,11,12)            119.7033         estimate D2E/DX2                !
 ! A29   A(9,11,17)            119.3577         estimate D2E/DX2                !
 ! A30   A(12,11,17)           120.939          estimate D2E/DX2                !
 ! A31   A(11,12,13)           119.7033         estimate D2E/DX2                !
 ! A32   A(11,12,18)           120.939          estimate D2E/DX2                !
 ! A33   A(13,12,18)           119.3577         estimate D2E/DX2                !
 ! A34   A(7,13,12)            119.6401         estimate D2E/DX2                !
 ! A35   A(7,13,42)            119.7883         estimate D2E/DX2                !
 ! A36   A(12,13,42)           119.5554         estimate D2E/DX2                !
 ! A37   A(3,19,8)             121.3258         estimate D2E/DX2                !
 ! A38   A(3,19,32)            119.3372         estimate D2E/DX2                !
 ! A39   A(8,19,32)            119.3369         estimate D2E/DX2                !
 ! A40   A(21,20,22)           120.5018         estimate D2E/DX2                !
 ! A41   A(21,20,31)           119.7478         estimate D2E/DX2                !
 ! A42   A(22,20,31)           119.7505         estimate D2E/DX2                !
 ! A43   A(20,21,23)           120.0126         estimate D2E/DX2                !
 ! A44   A(20,21,28)           119.683          estimate D2E/DX2                !
 ! A45   A(23,21,28)           120.3044         estimate D2E/DX2                !
 ! A46   A(20,22,24)           120.0122         estimate D2E/DX2                !
 ! A47   A(20,22,29)           119.6842         estimate D2E/DX2                !
 ! A48   A(24,22,29)           120.3036         estimate D2E/DX2                !
 ! A49   A(21,23,25)           119.4867         estimate D2E/DX2                !
 ! A50   A(21,23,26)           120.5468         estimate D2E/DX2                !
 ! A51   A(25,23,26)           119.9665         estimate D2E/DX2                !
 ! A52   A(22,24,25)           119.487          estimate D2E/DX2                !
 ! A53   A(22,24,27)           120.5473         estimate D2E/DX2                !
 ! A54   A(25,24,27)           119.9656         estimate D2E/DX2                !
 ! A55   A(23,25,24)           120.4997         estimate D2E/DX2                !
 ! A56   A(23,25,43)           119.7512         estimate D2E/DX2                !
 ! A57   A(24,25,43)           119.7491         estimate D2E/DX2                !
 ! A58   A(4,31,7)             120.3155         estimate D2E/DX2                !
 ! A59   A(4,31,20)            119.337          estimate D2E/DX2                !
 ! A60   A(7,31,20)            119.3848         estimate D2E/DX2                !
 ! A61   A(19,32,33)           119.7473         estimate D2E/DX2                !
 ! A62   A(19,32,34)           119.7509         estimate D2E/DX2                !
 ! A63   A(33,32,34)           120.5018         estimate D2E/DX2                !
 ! A64   A(32,33,35)           120.0126         estimate D2E/DX2                !
 ! A65   A(32,33,36)           119.6832         estimate D2E/DX2                !
 ! A66   A(35,33,36)           120.3042         estimate D2E/DX2                !
 ! A67   A(32,34,37)           120.0123         estimate D2E/DX2                !
 ! A68   A(32,34,38)           119.6839         estimate D2E/DX2                !
 ! A69   A(37,34,38)           120.3038         estimate D2E/DX2                !
 ! A70   A(33,35,39)           119.4867         estimate D2E/DX2                !
 ! A71   A(33,35,40)           120.5471         estimate D2E/DX2                !
 ! A72   A(39,35,40)           119.9662         estimate D2E/DX2                !
 ! A73   A(34,37,39)           119.4869         estimate D2E/DX2                !
 ! A74   A(34,37,41)           120.5472         estimate D2E/DX2                !
 ! A75   A(39,37,41)           119.9659         estimate D2E/DX2                !
 ! A76   A(35,39,37)           120.4997         estimate D2E/DX2                !
 ! A77   A(35,39,44)           119.7504         estimate D2E/DX2                !
 ! A78   A(37,39,44)           119.7499         estimate D2E/DX2                !
 ! A79   L(25,43,45,27,-1)     179.9993         estimate D2E/DX2                !
 ! A80   L(39,44,46,41,-1)     179.9997         estimate D2E/DX2                !
 ! A81   L(25,43,45,27,-2)     180.0            estimate D2E/DX2                !
 ! A82   L(39,44,46,41,-2)     180.0001         estimate D2E/DX2                !
 ! D1    D(6,1,2,3)              0.0007         estimate D2E/DX2                !
 ! D2    D(6,1,2,14)           179.9996         estimate D2E/DX2                !
 ! D3    D(30,1,2,3)          -179.9983         estimate D2E/DX2                !
 ! D4    D(30,1,2,14)            0.0006         estimate D2E/DX2                !
 ! D5    D(2,1,6,5)              0.0042         estimate D2E/DX2                !
 ! D6    D(2,1,6,16)          -179.9973         estimate D2E/DX2                !
 ! D7    D(30,1,6,5)          -179.9968         estimate D2E/DX2                !
 ! D8    D(30,1,6,16)            0.0017         estimate D2E/DX2                !
 ! D9    D(1,2,3,4)             -0.0073         estimate D2E/DX2                !
 ! D10   D(1,2,3,19)           179.9908         estimate D2E/DX2                !
 ! D11   D(14,2,3,4)           179.9938         estimate D2E/DX2                !
 ! D12   D(14,2,3,19)           -0.0081         estimate D2E/DX2                !
 ! D13   D(2,3,4,5)              0.0089         estimate D2E/DX2                !
 ! D14   D(2,3,4,31)          -179.9982         estimate D2E/DX2                !
 ! D15   D(19,3,4,5)          -179.9891         estimate D2E/DX2                !
 ! D16   D(19,3,4,31)            0.0037         estimate D2E/DX2                !
 ! D17   D(2,3,19,8)           179.9694         estimate D2E/DX2                !
 ! D18   D(2,3,19,32)           -0.009          estimate D2E/DX2                !
 ! D19   D(4,3,19,8)            -0.0326         estimate D2E/DX2                !
 ! D20   D(4,3,19,32)          179.989          estimate D2E/DX2                !
 ! D21   D(3,4,5,6)             -0.0042         estimate D2E/DX2                !
 ! D22   D(3,4,5,15)           179.9944         estimate D2E/DX2                !
 ! D23   D(31,4,5,6)          -179.9969         estimate D2E/DX2                !
 ! D24   D(31,4,5,15)            0.0017         estimate D2E/DX2                !
 ! D25   D(3,4,31,7)           -11.3333         estimate D2E/DX2                !
 ! D26   D(3,4,31,20)          179.9597         estimate D2E/DX2                !
 ! D27   D(5,4,31,7)           168.6593         estimate D2E/DX2                !
 ! D28   D(5,4,31,20)           -0.0476         estimate D2E/DX2                !
 ! D29   D(4,5,6,1)             -0.0024         estimate D2E/DX2                !
 ! D30   D(4,5,6,16)           179.9991         estimate D2E/DX2                !
 ! D31   D(15,5,6,1)           179.999          estimate D2E/DX2                !
 ! D32   D(15,5,6,16)            0.0005         estimate D2E/DX2                !
 ! D33   D(13,7,8,9)            22.4309         estimate D2E/DX2                !
 ! D34   D(13,7,8,19)         -168.7177         estimate D2E/DX2                !
 ! D35   D(31,7,8,9)           169.1144         estimate D2E/DX2                !
 ! D36   D(31,7,8,19)          -22.0341         estimate D2E/DX2                !
 ! D37   D(8,7,13,12)          -22.7753         estimate D2E/DX2                !
 ! D38   D(8,7,13,42)          168.8031         estimate D2E/DX2                !
 ! D39   D(31,7,13,12)        -169.256          estimate D2E/DX2                !
 ! D40   D(31,7,13,42)          22.3224         estimate D2E/DX2                !
 ! D41   D(8,7,31,4)            22.2334         estimate D2E/DX2                !
 ! D42   D(8,7,31,20)         -169.0651         estimate D2E/DX2                !
 ! D43   D(13,7,31,4)          169.1023         estimate D2E/DX2                !
 ! D44   D(13,7,31,20)         -22.1962         estimate D2E/DX2                !
 ! D45   D(7,8,9,10)           168.5954         estimate D2E/DX2                !
 ! D46   D(7,8,9,11)           -11.4048         estimate D2E/DX2                !
 ! D47   D(19,8,9,10)            0.0015         estimate D2E/DX2                !
 ! D48   D(19,8,9,11)         -179.9986         estimate D2E/DX2                !
 ! D49   D(7,8,19,3)            11.5596         estimate D2E/DX2                !
 ! D50   D(7,8,19,32)         -168.462          estimate D2E/DX2                !
 ! D51   D(9,8,19,3)          -179.979          estimate D2E/DX2                !
 ! D52   D(9,8,19,32)           -0.0006         estimate D2E/DX2                !
 ! D53   D(8,9,11,12)           -0.0003         estimate D2E/DX2                !
 ! D54   D(8,9,11,17)          179.9996         estimate D2E/DX2                !
 ! D55   D(10,9,11,12)         179.9996         estimate D2E/DX2                !
 ! D56   D(10,9,11,17)          -0.0005         estimate D2E/DX2                !
 ! D57   D(9,11,12,13)           0.0023         estimate D2E/DX2                !
 ! D58   D(9,11,12,18)        -179.9982         estimate D2E/DX2                !
 ! D59   D(17,11,12,13)       -179.9977         estimate D2E/DX2                !
 ! D60   D(17,11,12,18)          0.0019         estimate D2E/DX2                !
 ! D61   D(11,12,13,7)          11.5494         estimate D2E/DX2                !
 ! D62   D(11,12,13,42)        179.9982         estimate D2E/DX2                !
 ! D63   D(18,12,13,7)        -168.4501         estimate D2E/DX2                !
 ! D64   D(18,12,13,42)         -0.0014         estimate D2E/DX2                !
 ! D65   D(3,19,32,33)         -78.1656         estimate D2E/DX2                !
 ! D66   D(3,19,32,34)         101.8349         estimate D2E/DX2                !
 ! D67   D(8,19,32,33)         101.8556         estimate D2E/DX2                !
 ! D68   D(8,19,32,34)         -78.144          estimate D2E/DX2                !
 ! D69   D(22,20,21,23)         -0.0006         estimate D2E/DX2                !
 ! D70   D(22,20,21,28)        179.9991         estimate D2E/DX2                !
 ! D71   D(31,20,21,23)        179.9996         estimate D2E/DX2                !
 ! D72   D(31,20,21,28)         -0.0007         estimate D2E/DX2                !
 ! D73   D(21,20,22,24)         -0.0004         estimate D2E/DX2                !
 ! D74   D(21,20,22,29)        179.9993         estimate D2E/DX2                !
 ! D75   D(31,20,22,24)        179.9995         estimate D2E/DX2                !
 ! D76   D(31,20,22,29)         -0.0009         estimate D2E/DX2                !
 ! D77   D(21,20,31,4)          90.0669         estimate D2E/DX2                !
 ! D78   D(21,20,31,7)         -78.7461         estimate D2E/DX2                !
 ! D79   D(22,20,31,4)         -89.9329         estimate D2E/DX2                !
 ! D80   D(22,20,31,7)         101.254          estimate D2E/DX2                !
 ! D81   D(20,21,23,25)          0.001          estimate D2E/DX2                !
 ! D82   D(20,21,23,26)        179.9993         estimate D2E/DX2                !
 ! D83   D(28,21,23,25)       -179.9986         estimate D2E/DX2                !
 ! D84   D(28,21,23,26)         -0.0004         estimate D2E/DX2                !
 ! D85   D(20,22,24,25)          0.0008         estimate D2E/DX2                !
 ! D86   D(20,22,24,27)        179.9993         estimate D2E/DX2                !
 ! D87   D(29,22,24,25)       -179.9988         estimate D2E/DX2                !
 ! D88   D(29,22,24,27)         -0.0004         estimate D2E/DX2                !
 ! D89   D(21,23,25,24)         -0.0005         estimate D2E/DX2                !
 ! D90   D(21,23,25,43)        179.9995         estimate D2E/DX2                !
 ! D91   D(26,23,25,24)       -179.9988         estimate D2E/DX2                !
 ! D92   D(26,23,25,43)          0.0013         estimate D2E/DX2                !
 ! D93   D(22,24,25,23)         -0.0004         estimate D2E/DX2                !
 ! D94   D(22,24,25,43)        179.9995         estimate D2E/DX2                !
 ! D95   D(27,24,25,23)       -179.9989         estimate D2E/DX2                !
 ! D96   D(27,24,25,43)          0.001          estimate D2E/DX2                !
 ! D97   D(19,32,33,35)        179.9994         estimate D2E/DX2                !
 ! D98   D(19,32,33,36)         -0.0012         estimate D2E/DX2                !
 ! D99   D(34,32,33,35)         -0.0011         estimate D2E/DX2                !
 ! D100  D(34,32,33,36)        179.9983         estimate D2E/DX2                !
 ! D101  D(19,32,34,37)        179.9993         estimate D2E/DX2                !
 ! D102  D(19,32,34,38)         -0.0015         estimate D2E/DX2                !
 ! D103  D(33,32,34,37)         -0.0002         estimate D2E/DX2                !
 ! D104  D(33,32,34,38)        179.999          estimate D2E/DX2                !
 ! D105  D(32,33,35,39)          0.0014         estimate D2E/DX2                !
 ! D106  D(32,33,35,40)        179.9989         estimate D2E/DX2                !
 ! D107  D(36,33,35,39)       -179.998          estimate D2E/DX2                !
 ! D108  D(36,33,35,40)         -0.0005         estimate D2E/DX2                !
 ! D109  D(32,34,37,39)          0.0012         estimate D2E/DX2                !
 ! D110  D(32,34,37,41)        179.9987         estimate D2E/DX2                !
 ! D111  D(38,34,37,39)       -179.998          estimate D2E/DX2                !
 ! D112  D(38,34,37,41)         -0.0004         estimate D2E/DX2                !
 ! D113  D(33,35,39,37)         -0.0005         estimate D2E/DX2                !
 ! D114  D(33,35,39,44)        179.9992         estimate D2E/DX2                !
 ! D115  D(40,35,39,37)       -179.9979         estimate D2E/DX2                !
 ! D116  D(40,35,39,44)          0.0018         estimate D2E/DX2                !
 ! D117  D(34,37,39,35)         -0.0008         estimate D2E/DX2                !
 ! D118  D(34,37,39,44)        179.9995         estimate D2E/DX2                !
 ! D119  D(41,37,39,35)       -179.9984         estimate D2E/DX2                !
 ! D120  D(41,37,39,44)          0.0019         estimate D2E/DX2                !
 --------------------------------------------------------------------------------
 Trust Radius=3.00D-01 FncErr=1.00D-07 GrdErr=1.00D-06
 Number of steps in this run=    262 maximum allowed number of steps=    276.
 GradGradGradGradGradGradGradGradGradGradGradGradGradGradGradGradGradGrad

 Leave Link  103 at Tue Nov 23 10:54:08 2021, MaxMem=  5242880000 cpu:         0.3
 (Enter /opt/nce/packages/global/g09/l202.exe)
                          Input orientation:                          
 ---------------------------------------------------------------------
 Center     Atomic      Atomic             Coordinates (Angstroms)
 Number     Number       Type             X           Y           Z
 ---------------------------------------------------------------------
      1          6           0        0.693934    3.666757    0.000448
      2          6           0        1.388539    2.449176    0.000444
      3          6           0        0.708405    1.228544   -0.000113
      4          6           0       -0.708420    1.228534   -0.000525
      5          6           0       -1.388578    2.449152   -0.000554
      6          6           0       -0.693996    3.666746   -0.000095
      7          6           0       -0.686615   -1.240795   -0.247451
      8          6           0        0.708422   -1.228522   -0.000234
      9          6           0        1.388579   -2.449140    0.000002
     10          1           0        2.473481   -2.451927    0.000151
     11          6           0        0.693998   -3.666734    0.000052
     12          6           0       -0.693933   -3.666746   -0.000129
     13          6           0       -1.388537   -2.449165   -0.000408
     14          1           0        2.473440    2.451989    0.000862
     15          1           0       -2.473479    2.451940   -0.000962
     16          1           0       -1.252459    4.598416   -0.000146
     17          1           0        1.252463   -4.598403    0.000231
     18          1           0       -1.252382   -4.598425   -0.000065
     19          7           0        1.398880    0.000013   -0.000315
     20          6           0       -2.834539   -0.000013   -0.000587
     21          6           0       -3.528872   -0.000698   -1.214621
     22          6           0       -3.528153    0.000668    1.213869
     23          6           0       -4.919132   -0.000718   -1.220599
     24          6           0       -4.918402    0.000675    1.220668
     25          6           0       -5.616421   -0.000024    0.000240
     26          1           0       -5.466533   -0.001235   -2.157346
     27          1           0       -5.465258    0.001189    2.157733
     28          1           0       -2.977014   -0.001207   -2.149594
     29          1           0       -2.975756    0.001184    2.148524
     30          1           0        1.252382    4.598437    0.000861
     31          7           0       -1.398879   -0.000005   -0.001049
     32          6           0        2.834540    0.000018   -0.000138
     33          6           0        3.528621    0.249325   -1.188450
     34          6           0        3.528406   -0.249285    1.188302
     35          6           0        4.918876    0.250664   -1.194574
     36          1           0        2.976571    0.441228   -2.103401
     37          6           0        4.918660   -0.250597    1.194678
     38          1           0        2.976201   -0.441204    2.103157
     39          6           0        5.616422    0.000042    0.000116
     40          1           0        5.466085    0.443011   -2.111476
     41          1           0        5.465708   -0.442937    2.111676
     42          1           0       -2.473439   -2.451976   -0.000579
     43          6           0       -7.044876   -0.000031    0.000691
     44          6           0        7.044878    0.000053    0.000253
     45          7           0       -8.208002   -0.000036    0.001073
     46          7           0        8.208004    0.000061    0.000372
 ---------------------------------------------------------------------
                    Distance matrix (angstroms):
                    1          2          3          4          5
     1  C    0.000000
     2  C    1.401777   0.000000
     3  C    2.438256   1.397328   0.000000
     4  C    2.812744   2.426356   1.416825   0.000000
     5  C    2.412347   2.777117   2.426360   1.397327   0.000000
     6  C    1.387930   2.412349   2.812749   2.438255   1.401777
     7  C    5.104061   4.240708   2.846909   2.481740   3.764229
     8  C    4.895300   3.740056   2.457066   2.836294   4.233520
     9  C    6.155220   4.898316   3.740053   4.233520   5.630796
    10  H    6.372212   5.019752   4.081833   4.865212   6.239878
    11  C    7.333491   6.155221   4.895299   5.092193   6.460742
    12  C    7.463675   6.460742   5.092192   4.895301   6.155221
    13  C    6.460742   5.630799   4.233522   3.740057   4.898317
    14  H    2.154600   1.084905   2.147596   3.408970   3.862019
    15  H    3.392387   3.862019   3.408971   2.147593   1.084905
    16  H    2.157877   3.405012   3.898849   3.413515   2.153570
    17  H    8.284010   7.048893   5.852291   6.148029   7.526163
    18  H    8.491253   7.526164   6.148028   5.852294   7.048893
    19  N    3.733894   2.449185   1.409271   2.439258   3.710553
    20  C    5.088745   4.881897   3.749907   2.455547   2.844154
    21  C    5.723522   5.626651   4.576088   3.307566   3.472259
    22  C    5.721767   5.625073   4.574916   3.306554   3.470977
    23  C    6.815265   6.876019   5.888110   4.552992   4.467123
    24  C    6.813766   6.874708   5.887183   4.552241   4.466103
    25  C    7.298347   7.420785   6.443043   5.059430   4.886013
    26  H    7.487429   7.592930   6.655514   5.366922   5.223587
    27  H    7.485046   7.590854   6.654083   5.365814   5.222073
    28  H    5.617161   5.448403   4.440143   3.358166   3.625708
    29  H    5.614025   5.445547   4.438028   3.356428   3.623564
    30  H    1.086228   2.153570   3.413516   3.898845   3.405011
    31  N    4.221968   3.710551   2.439258   1.409270   2.449179
    32  C    4.245841   2.844168   2.455550   3.749909   4.881904
    33  C    4.596495   3.291316   3.213197   4.508052   5.516265
    34  C    4.978013   3.643039   3.398340   4.641977   5.733382
    35  C    5.563084   4.327216   4.484535   5.835104   6.785500
    36  H    4.476678   3.313588   3.191906   4.315217   5.244831
    37  C    5.883889   4.601817   4.619700   5.939728   6.964085
    38  H    5.148346   3.911057   3.514925   4.559598   5.641902
    39  C    6.138052   4.886026   5.059431   6.443044   7.420793
    40  H    6.134018   5.011116   5.264070   6.572493   7.447617
    41  H    6.642040   5.426318   5.466757   6.736102   7.733494
    42  H    6.889931   6.239885   4.865219   4.081843   5.019759
    43  C    8.563557   8.781862   7.850017   6.454460   6.163782
    44  C    7.333431   6.163796   6.454462   7.850019   8.781872
    45  N    9.627556   9.904153   9.000651   7.599547   7.245900
    46  N    8.360975   7.245914   7.599550   9.000654   9.904163
                    6          7          8          9         10
     6  C    0.000000
     7  C    4.913776   0.000000
     8  C    5.092193   1.416826   0.000000
     9  C    6.460741   2.414076   1.397327   0.000000
    10  H    6.889925   3.393281   2.147592   1.084906   0.000000
    11  C    7.463676   2.802237   2.438255   1.401777   2.154603
    12  C    7.333492   2.438537   2.812745   2.412348   3.392388
    13  C    6.155222   1.419113   2.426357   2.777116   3.862019
    14  H    3.392387   4.866648   4.081844   5.019760   4.903916
    15  H    2.154603   4.109736   4.865213   6.239878   6.965653
    16  H    1.086227   5.871773   6.148029   7.526163   7.974332
    17  H    8.491254   3.885216   3.413514   2.153569   2.469462
    18  H    8.284012   3.413938   3.898846   3.405011   4.299943
    19  N    4.221974   2.439256   1.409266   2.449175   2.677084
    20  C    4.245827   2.492801   3.749908   4.881900   5.846962
    21  C    4.791841   3.248335   4.575691   5.625967   6.596396
    22  C    4.790228   3.427976   4.575317   5.625770   6.596055
    23  C    5.726403   4.516526   5.887797   6.875453   7.883488
    24  C    5.725028   4.648079   5.887502   6.875291   7.883201
    25  C    6.138035   5.089582   6.443046   7.420795   8.453304
    26  H    6.394132   5.294509   6.655031   7.592032   8.585133
    27  H    6.391985   5.492072   6.654573   7.591772   8.584667
    28  H    4.825598   3.225004   4.439424   5.447159   6.351010
    29  H    4.822793   3.538838   4.438750   5.446802   6.350389
    30  H    2.157878   6.157759   5.852294   7.048893   7.155328
    31  N    3.733889   1.451755   2.439256   3.710551   4.583350
    32  C    5.088758   3.741566   2.455542   2.844148   2.478386
    33  C    5.560706   4.568824   3.398443   3.643338   3.134144
    34  C    5.880159   4.561895   3.213072   3.290939   2.715916
    35  C    6.678378   5.877331   4.619780   4.602060   3.835534
    36  H    5.319861   4.437644   3.515093   3.911554   3.612254
    37  C    6.948019   5.871911   4.484446   4.326929   3.500236
    38  H    5.896547   4.425034   3.191699   3.312946   2.952688
    39  C    7.298362   6.428783   5.059430   4.886016   3.986255
    40  H    7.266154   6.645714   5.466875   5.426687   4.668545
    41  H    7.700067   6.637254   5.263942   5.010689   4.177081
    42  H    6.372219   2.172704   3.408970   3.862019   4.946920
    43  C    7.333412   6.482943   7.850020   8.781873   9.829085
    44  C    8.563575   7.834351   6.454461   6.163786   5.187473
    45  N    8.360956   7.627090   9.000655   9.904165  10.959281
    46  N    9.627574   8.984175   7.599549   7.245905   6.236746
                   11         12         13         14         15
    11  C    0.000000
    12  C    1.387931   0.000000
    13  C    2.412349   1.401777   0.000000
    14  H    6.372220   6.889933   6.239886   0.000000
    15  H    6.889926   6.372213   5.019754   4.946919   0.000000
    16  H    8.491254   8.284012   7.048895   4.299939   2.469463
    17  H    1.086228   2.157879   3.405012   7.155335   7.974333
    18  H    2.157879   1.086228   2.153568   7.974339   7.155328
    19  N    3.733884   4.221965   3.710548   2.677100   4.583351
    20  C    5.088754   4.245836   2.844164   5.846961   2.478394
    21  C    5.722576   4.790801   3.471360   6.597031   2.932960
    22  C    5.722740   4.791296   3.471903   6.595413   2.932045
    23  C    6.814462   5.725523   4.466415   7.884026   3.672093
    24  C    6.814604   5.725946   4.466843   7.882652   3.671339
    25  C    7.298366   6.138057   4.886031   8.453296   3.986253
    26  H    7.486147   6.392751   5.222528   8.585997   4.430173
    27  H    7.486366   6.393407   5.223166   8.583789   4.429095
    28  H    5.615460   4.823778   3.624191   6.352171   3.299712
    29  H    5.615750   4.824638   3.625105   6.349223   3.298299
    30  H    8.284011   8.491254   7.526164   2.469458   4.299941
    31  N    4.221971   3.733891   2.449182   4.583354   2.677088
    32  C    4.245820   5.088741   4.881893   2.478418   5.846964
    33  C    4.978267   5.880279   5.733388   2.716542   6.502834
    34  C    4.596168   5.560535   5.516233   3.133664   6.688318
    35  C    5.884109   6.948124   6.964091   3.500722   7.804949
    36  H    5.148787   5.896762   5.641908   2.953680   6.177884
    37  C    5.562814   6.678236   6.785475   3.835136   7.960966
    38  H    4.476108   5.319569   5.244791   3.611506   6.518942
    39  C    6.138038   7.298350   7.420786   3.986274   8.453301
    40  H    6.642392   7.700241   7.733507   4.177785   8.457348
    41  H    6.133600   7.265937   7.447585   4.667955   8.710582
    42  H    3.392388   2.154602   1.084906   6.965665   4.903916
    43  C    8.563579   7.333436   6.163800   9.829076   5.187469
    44  C    7.333417   8.563563   8.781865   5.187489   9.829083
    45  N    9.627579   8.360981   7.245919  10.959271   6.236741
    46  N    8.360961   9.627562   9.904156   6.236760  10.959279
                   16         17         18         19         20
    16  H    0.000000
    17  H    9.531847   0.000000
    18  H    9.196841   2.504845   0.000000
    19  N    5.308004   4.600746   5.307996   0.000000
    20  C    4.862975   6.152136   4.862984   4.233419   0.000000
    21  C    5.273410   6.743584   5.272253   5.075163   1.398563
    22  C    5.271803   6.743787   5.272990   5.074436   1.398572
    23  C    6.007165   7.792157   6.006136   6.434778   2.415359
    24  C    6.005726   7.792340   6.006797   6.434194   2.415357
    25  C    6.339544   8.265994   6.339568   7.015301   2.781882
    26  H    6.600661   8.422232   6.599022   7.196296   3.402793
    27  H    6.598380   8.422520   6.600066   7.195385   3.402797
    28  H    5.361972   6.606393   5.359967   4.875228   2.153725
    29  H    5.359205   6.606754   5.361236   4.873905   2.153746
    30  H    2.504841   9.196840   9.531847   4.600757   6.152127
    31  N    4.600752   5.308002   4.600753   2.797759   1.435660
    32  C    6.152140   4.862967   6.152122   1.435660   5.669079
    33  C    6.571559   5.485830   6.911652   2.451452   6.477885
    34  C    6.911533   5.050372   6.571390   2.451498   6.477859
    35  C    7.642969   6.195450   7.938825   3.725514   7.848814
    36  H    6.292105   5.726753   6.906965   2.665849   6.195605
    37  C    7.938718   5.811293   7.642826   3.725542   7.848793
    38  H    6.906752   4.967482   6.291816   2.665935   6.195570
    39  C    8.265988   6.339546   8.265977   4.217542   8.450961
    40  H    8.177037   6.901433   8.660943   4.603846   8.576274
    41  H    8.660762   6.283115   8.176813   4.603890   8.576243
    42  H    7.155335   4.299941   2.469458   4.583351   2.478410
    43  C    7.395797   9.486351   7.395824   8.443756   4.210337
    44  C    9.486345   7.395800   9.486333   5.645998   9.879417
    45  N    8.338186  10.518811   8.338215   9.606882   5.373463
    46  N   10.518804   8.338190  10.518792   6.809124  11.042543
                   21         22         23         24         25
    21  C    0.000000
    22  C    2.428490   0.000000
    23  C    1.390273   2.803829   0.000000
    24  C    2.803824   1.390266   2.441268   0.000000
    25  C    2.415315   2.415318   1.405938   1.405943   0.000000
    26  H    2.154823   3.888754   1.084962   3.422197   2.162786
    27  H    3.888749   2.154821   3.422190   1.084962   2.162782
    28  H    1.085690   3.408319   2.152871   3.889429   3.404153
    29  H    3.408326   1.085690   3.889435   2.152856   3.404150
    30  H    6.744615   6.742728   7.793059   7.791400   8.265972
    31  N    2.451454   2.451496   3.725518   3.725538   4.217542
    32  C    6.478270   6.477474   7.849137   7.848470   8.450961
    33  C    7.061969   7.458621   8.451514   8.787370   9.225343
    34  C    7.459290   7.061031   8.787803   8.450568   9.225047
    35  C    8.451511   8.787229   9.841253  10.132518  10.605796
    36  H    6.580731   7.315040   7.957184   8.577536   8.857738
    37  C    8.787945   8.450571  10.133023   9.840305  10.605536
    38  H    7.315577   6.579719   8.577742   7.956054   8.857203
    39  C    9.225616   9.224774  10.606038  10.605294  11.232843
    40  H    9.050441   9.599474  10.432799  10.914963  11.290596
    41  H    9.600120   9.049441  10.915334  10.431703  11.290169
    42  H    2.931996   2.933048   3.671312   3.672164   3.986277
    43  C    3.720117   3.720100   2.451599   2.451578   1.428455
    44  C   10.643313  10.642455  12.026139  12.025368  12.661299
    45  N    4.834477   4.834445   3.508440   3.508401   2.591581
    46  N   11.799596  11.798727  13.183796  13.183006  13.824425
                   26         27         28         29         30
    26  H    0.000000
    27  H    4.315080   0.000000
    28  H    2.489531   4.974377   0.000000
    29  H    4.974384   2.489519   4.298119   0.000000
    30  H    8.423696   8.421014   6.608250   6.604873   0.000000
    31  N    4.603849   4.603887   2.665850   2.665934   5.307999
    32  C    8.576792   8.575725   6.196315   6.194860   4.862991
    33  C    9.050654   9.599394   6.581022   7.314635   5.050792
    34  C    9.600199   9.049228   7.315981   6.579429   5.485500
    35  C   10.432981  10.914689   7.957423   8.576932   5.811658
    36  H    8.454862   9.466540   5.970180   7.328213   4.968212
    37  C   10.915607  10.431521   8.578346   7.955817   6.195153
    38  H    9.467059   8.453220   7.329410   5.968548   5.726184
    39  C   11.290994  11.289772   8.858239   8.856703   6.339564
    40  H   10.941736  11.743747   8.454863   9.466123   6.283695
    41  H   11.744511  10.940082   9.467476   8.453219   6.900950
    42  H    4.429039   4.430272   3.298200   3.299842   7.974338
    43  C    2.673629   2.673579   4.601220   4.601187   9.486327
    44  C   12.696088  12.694811  10.249886  10.248325   7.395820
    45  N    3.489187   3.489101   5.655847   5.655789  10.518784
    46  N   13.843725  13.842410  11.389775  11.388198   8.338210
                   31         32         33         34         35
    31  N    0.000000
    32  C    4.233419   0.000000
    33  C    5.074677   1.398566   0.000000
    34  C    5.074922   1.398568   2.428490   0.000000
    35  C    6.434389   2.415359   1.390269   2.803829   0.000000
    36  H    4.874334   2.153731   1.085689   3.408320   2.152866
    37  C    6.434583   2.415357   2.803824   1.390269   2.441268
    38  H    4.874799   2.153739   3.408324   1.085690   3.889434
    39  C    7.015301   2.781882   2.415315   2.415318   1.405940
    40  H    7.195686   3.402796   2.154822   3.888754   1.084962
    41  H    7.195996   3.402795   3.888749   2.154822   3.422192
    42  H    2.677096   5.846958   6.688258   6.502878   7.960918
    43  C    5.645997   9.879416  10.643076  10.642690  12.025925
    44  C    8.443757   4.210338   3.720110   3.720108   2.451592
    45  N    6.809123  11.042542  11.799384  11.798937  13.183601
    46  N    9.606883   5.373464   4.834465   4.834459   3.508427
                   36         37         38         39         40
    36  H    0.000000
    37  C    3.889429   0.000000
    38  H    4.298118   2.152861   0.000000
    39  C    3.404151   1.405941   3.404151   0.000000
    40  H    2.489528   3.422195   4.974382   2.162786   0.000000
    41  H    4.974377   1.084962   2.489522   2.162783   4.315080
    42  H    6.518827   7.804988   6.177984   8.453298   8.710504
    43  C   10.249454  12.025580  10.248755  12.661298  12.695734
    44  C    4.601209   2.451587   4.601200   1.428456   2.673612
    45  N   11.389390  13.183199  11.388581  13.824424  13.843403
    46  N    5.655827   3.508416   5.655809   2.591582   3.489158
                   41         42         43         44         45
    41  H    0.000000
    42  H    8.457418   0.000000
    43  C   12.695162   5.187492   0.000000
    44  C    2.673597   9.829079  14.089754   0.000000
    45  N   13.842729   6.236764   1.163126  15.252880   0.000000
    46  N    3.489132  10.959275  15.252880   1.163126  16.416006
                   46
    46  N    0.000000
 Symmetry turned off by external request.
 Stoichiometry    C26H16N4
 Framework group  C1[X(C26H16N4)]
 Deg. of freedom   132
 Full point group                 C1      NOp   1
 Rotational constants (GHZ):      0.3899661      0.0796564      0.0693470
 Leave Link  202 at Tue Nov 23 10:54:08 2021, MaxMem=  5242880000 cpu:         0.1
 (Enter /opt/nce/packages/global/g09/l301.exe)
 Standard basis: def2TZVP (5D, 7F)
 Ernie: Thresh=  0.10000D-02 Tol=  0.10000D-05 Strict=F.
  1026 basis functions,  1658 primitive gaussians,  1176 cartesian basis functions
   100 alpha electrons      100 beta electrons
       nuclear repulsion energy      2528.7907472070 Hartrees.
 IExCor= 2523 DFT=T Ex=TPSS Corr=TPSS ExCW=0 ScaHFX=  0.000000
 ScaDFX=  1.000000  1.000000  1.000000  1.000000 ScalE2=  1.000000  1.000000
 IRadAn=      5 IRanWt=     -1 IRanGd=            0 ICorTp=0 IEmpDi=  4
 NAtoms=   46 NActive=   46 NUniq=   46 SFac= 1.00D+00 NAtFMM=   60 NAOKFM=F Big=F
 Integral buffers will be    131072 words long.
 Raffenetti 2 integral format.
 Two-electron integral symmetry is turned off.
 ------------------------------------------------------------------------------
 Polarizable Continuum Model (PCM)
 =================================
 Model                : PCM (using non-symmetric T matrix).
 Atomic radii         : SMD-Coulomb.
 Polarization charges : Total charges.
 Charge compensation  : None.
 Solution method      : On-the-fly selection.
 Cavity type          : VdW (van der Waals Surface) (Alpha=1.000).
 Cavity algorithm     : GePol (No added spheres)
                        Default sphere list used, NSphG=   46.
                        Lebedev-Laikov grids with approx.  5.0 points / Ang**2.
                        Smoothing algorithm: York/Karplus (Gamma=1.0000).
                        Polarization charges: spherical gaussians, with
                                              point-specific exponents (IZeta= 3).
                        Self-potential: point-specific (ISelfS= 7).
                        Self-field    : sphere-specific E.n sum rule (ISelfD= 2).
 1st derivatives      : Analytical E(r).r(x)/FMM algorithm (CHGder, D1EAlg=3).
                        Cavity 1st derivative terms included.
 Solvent              : n,n-DiMethylFormamide, Eps=  37.219000 Eps(inf)=   2.046330
 ------------------------------------------------------------------------------
 GePol: Number of generator spheres                  =      46
 GePol: Total number of spheres                      =      46
 GePol: Number of exposed spheres                    =      46 (100.00%)
 GePol: Number of points                             =    3776
 GePol: Average weight of points                     =       0.11
 GePol: Minimum weight of points                     =   0.82D-09
 GePol: Maximum weight of points                     =    0.17992
 GePol: Number of points with low weight             =     183
 GePol: Fraction of low-weight points (<1% of avg)   =       4.85%
 GePol: Cavity surface area                          =    411.480 Ang**2
 GePol: Cavity volume                                =    398.623 Ang**3
 ------------------------------------------------------------------------------
 Atomic radii for non-electrostatic terms: SMD-CDS.
 ------------------------------------------------------------------------------
 PCM non-electrostatic energy =        -0.0012277990 Hartrees.
 Nuclear repulsion after PCM non-electrostatic terms =     2528.7895194079 Hartrees.
 Leave Link  301 at Tue Nov 23 10:54:09 2021, MaxMem=  5242880000 cpu:         4.0
 (Enter /opt/nce/packages/global/g09/l302.exe)
 NPDir=0 NMtPBC=     1 NCelOv=     1 NCel=       1 NClECP=     1 NCelD=      1
         NCelK=      1 NCelE2=     1 NClLst=     1 CellRange=     0.0.
 One-electron integrals computed using PRISM.
   1 Symmetry operations used in ECPInt.
 ECPInt:  NShTT=   77815 NPrTT=  243264 LenC2=   62580 LenP2D=  133747.
 LDataN:  DoStor=T MaxTD1= 6 Len=  172
 NBasis=  1026 RedAO= T EigKep=  4.39D-06  NBF=  1026
 NBsUse=  1026 1.00D-06 EigRej= -1.00D+00 NBFU=  1026
 Precomputing XC quadrature grid using
 IXCGrd= 4 IRadAn=           5 IRanWt=          -1 IRanGd=           0 AccXCQ= 0.00D+00.
 Generated NRdTot=       0 NPtTot=           0 NUsed=           0 NTot=          32
 NSgBfM=  1086  1086  1086  1086  1086 MxSgAt=    46 MxSgA2=    46.
 Leave Link  302 at Tue Nov 23 10:54:11 2021, MaxMem=  5242880000 cpu:        27.2
 (Enter /opt/nce/packages/global/g09/l303.exe)
 DipDrv:  MaxL=1.
 Leave Link  303 at Tue Nov 23 10:54:11 2021, MaxMem=  5242880000 cpu:         2.6
 (Enter /opt/nce/packages/global/g09/l401.exe)
 ExpMin= 9.52D-02 ExpMax= 1.97D+04 ExpMxC= 6.73D+02 IAcc=3 IRadAn=         5 AccDes= 0.00D+00
 Harris functional with IExCor= 1009 and IRadAn=       5 diagonalized for initial guess.
 HarFok:  IExCor= 1009 AccDes= 0.00D+00 IRadAn=         5 IDoV= 1 UseB2=F ITyADJ=14
 ICtDFT=  3500011 ScaDFX=  1.000000  1.000000  1.000000  1.000000
 FoFCou: FMM=F IPFlag=           0 FMFlag=      100000 FMFlg1=           0
         NFxFlg=           0 DoJE=T BraDBF=F KetDBF=T FulRan=T
         wScrn=  0.000000 ICntrl=     500 IOpCl=  0 I1Cent=   200000004 NGrid=           0
         NMat0=    1 NMatS0=      1 NMatT0=    0 NMatD0=    1 NMtDS0=    0 NMtDT0=    0
 Symmetry not used in FoFCou.
 Harris En= -1218.68099986196    
 JPrj=0 DoOrth=F DoCkMO=F.
 Leave Link  401 at Tue Nov 23 10:54:21 2021, MaxMem=  5242880000 cpu:       115.5
 (Enter /opt/nce/packages/global/g09/l502.exe)
 Closed shell SCF:
 Using DIIS extrapolation, IDIIS=  1040.
 Two-electron integral symmetry not used.
 IVT=     4188738 IEndB=     4188738 NGot=  5242880000 MDV=  5240092055
 LenX=  5240092055 LenY=  5238707903
 Requested convergence on RMS density matrix=1.00D-08 within 128 cycles.
 Requested convergence on MAX density matrix=1.00D-06.
 Requested convergence on             energy=1.00D-06.
 No special actions if energy rises.
 Fock matrices will be formed incrementally for  20 cycles.

 Cycle   1  Pass 1  IDiag  1:
 FoFJK:  IHMeth= 1 ICntrl=     500 DoSepK=F KAlg= 0 I1Cent=   0 FoldK=F
 IRaf= 690000000 NMat=   1 IRICut=       1 DoRegI=T DoRafI=F ISym2E= 0.
 FoFCou: FMM=F IPFlag=           0 FMFlag=      100000 FMFlg1=           0
         NFxFlg=           0 DoJE=T BraDBF=F KetDBF=F FulRan=T
         wScrn=  0.000000 ICntrl=     500 IOpCl=  0 I1Cent=           0 NGrid=           0
         NMat0=    1 NMatS0=      1 NMatT0=    0 NMatD0=    1 NMtDS0=    0 NMtDT0=    0
 Symmetry not used in FoFCou.
 Inv3:  Mode=1 IEnd=    42774528.
 Iteration    1 A*A^-1 deviation from unit magnitude is 8.22D-15 for   3768.
 Iteration    1 A*A^-1 deviation from orthogonality  is 4.84D-15 for   3771   2837.
 Iteration    1 A^-1*A deviation from unit magnitude is 8.22D-15 for   3771.
 Iteration    1 A^-1*A deviation from orthogonality  is 1.38D-12 for   1383   1335.
 E= -1219.50962800665    
 DIIS: error= 2.20D-02 at cycle   1 NSaved=   1.
 NSaved= 1 IEnMin= 1 EnMin= -1219.50962800665     IErMin= 1 ErrMin= 2.20D-02
 ErrMax= 2.20D-02  0.00D+00 EMaxC= 1.00D-01 BMatC= 5.96D-01 BMatP= 5.96D-01
 IDIUse=3 WtCom= 7.80D-01 WtEn= 2.20D-01
 Coeff-Com:  0.100D+01
 Coeff-En:   0.100D+01
 Coeff:      0.100D+01
 Gap=     0.073 Goal=   None    Shift=    0.000
 GapD=    0.073 DampG=0.500 DampE=0.500 DampFc=0.2500 IDamp=-1.
 Damping current iteration by 2.50D-01
 RMSDP=2.67D-03 MaxDP=2.58D-01              OVMax= 4.15D-01

 Cycle   2  Pass 1  IDiag  1:
 RMSU=  6.65D-04    CP:  9.88D-01
 E= -1219.69390070810     Delta-E=       -0.184272701454 Rises=F Damp=T
 DIIS: error= 1.09D-02 at cycle   2 NSaved=   2.
 NSaved= 2 IEnMin= 2 EnMin= -1219.69390070810     IErMin= 2 ErrMin= 1.09D-02
 ErrMax= 1.09D-02  0.00D+00 EMaxC= 1.00D-01 BMatC= 1.56D-01 BMatP= 5.96D-01
 IDIUse=3 WtCom= 8.91D-01 WtEn= 1.09D-01
 Coeff-Com: -0.539D+00 0.154D+01
 Coeff-En:   0.000D+00 0.100D+01
 Coeff:     -0.480D+00 0.148D+01
 Gap=     0.067 Goal=   None    Shift=    0.000
 RMSDP=1.13D-03 MaxDP=7.47D-02 DE=-1.84D-01 OVMax= 4.94D-01

 Cycle   3  Pass 1  IDiag  1:
 RMSU=  1.09D-03    CP:  9.67D-01  1.44D+00
 E= -1219.86107844796     Delta-E=       -0.167177739856 Rises=F Damp=F
 DIIS: error= 1.43D-02 at cycle   3 NSaved=   3.
 NSaved= 3 IEnMin= 3 EnMin= -1219.86107844796     IErMin= 2 ErrMin= 1.09D-02
 ErrMax= 1.43D-02  0.00D+00 EMaxC= 1.00D-01 BMatC= 1.66D-01 BMatP= 1.56D-01
 IDIUse=3 WtCom= 8.57D-01 WtEn= 1.43D-01
 Coeff-Com: -0.500D+00 0.104D+01 0.463D+00
 Coeff-En:   0.000D+00 0.820D-01 0.918D+00
 Coeff:     -0.429D+00 0.901D+00 0.528D+00
 Gap=     0.070 Goal=   None    Shift=    0.000
 RMSDP=9.18D-04 MaxDP=7.94D-02 DE=-1.67D-01 OVMax= 3.06D-01

 Cycle   4  Pass 1  IDiag  1:
 RMSU=  5.18D-04    CP:  9.63D-01  1.62D+00  3.13D-01
 E= -1219.98287759236     Delta-E=       -0.121799144398 Rises=F Damp=F
 DIIS: error= 7.83D-03 at cycle   4 NSaved=   4.
 NSaved= 4 IEnMin= 4 EnMin= -1219.98287759236     IErMin= 4 ErrMin= 7.83D-03
 ErrMax= 7.83D-03  0.00D+00 EMaxC= 1.00D-01 BMatC= 5.85D-02 BMatP= 1.56D-01
 IDIUse=3 WtCom= 9.22D-01 WtEn= 7.83D-02
 Coeff-Com: -0.809D-01 0.174D+00 0.374D+00 0.533D+00
 Coeff-En:   0.000D+00 0.000D+00 0.317D+00 0.683D+00
 Coeff:     -0.746D-01 0.161D+00 0.369D+00 0.545D+00
 Gap=     0.060 Goal=   None    Shift=    0.000
 RMSDP=3.77D-04 MaxDP=2.83D-02 DE=-1.22D-01 OVMax= 9.95D-02

 Cycle   5  Pass 1  IDiag  1:
 RMSU=  1.60D-04    CP:  9.65D-01  1.43D+00  5.54D-01  6.62D-01
 E= -1220.04395311166     Delta-E=       -0.061075519303 Rises=F Damp=F
 DIIS: error= 2.28D-03 at cycle   5 NSaved=   5.
 NSaved= 5 IEnMin= 5 EnMin= -1220.04395311166     IErMin= 5 ErrMin= 2.28D-03
 ErrMax= 2.28D-03  0.00D+00 EMaxC= 1.00D-01 BMatC= 2.66D-03 BMatP= 5.85D-02
 IDIUse=3 WtCom= 9.77D-01 WtEn= 2.28D-02
 Coeff-Com: -0.156D-01 0.352D-01 0.201D+00 0.338D+00 0.441D+00
 Coeff-En:   0.000D+00 0.000D+00 0.000D+00 0.000D+00 0.100D+01
 Coeff:     -0.152D-01 0.344D-01 0.197D+00 0.331D+00 0.454D+00
 Gap=     0.059 Goal=   None    Shift=    0.000
 RMSDP=1.18D-04 MaxDP=1.34D-02 DE=-6.11D-02 OVMax= 1.81D-02

 Cycle   6  Pass 1  IDiag  1:
 RMSU=  5.78D-05    CP:  9.65D-01  1.53D+00  5.69D-01  6.63D-01  5.57D-01
 E= -1220.04569974940     Delta-E=       -0.001746637739 Rises=F Damp=F
 DIIS: error= 1.25D-03 at cycle   6 NSaved=   6.
 NSaved= 6 IEnMin= 6 EnMin= -1220.04569974940     IErMin= 6 ErrMin= 1.25D-03
 ErrMax= 1.25D-03  0.00D+00 EMaxC= 1.00D-01 BMatC= 8.58D-04 BMatP= 2.66D-03
 IDIUse=3 WtCom= 9.88D-01 WtEn= 1.25D-02
 Coeff-Com:  0.116D-02-0.160D-02 0.769D-01 0.141D+00 0.350D+00 0.433D+00
 Coeff-En:   0.000D+00 0.000D+00 0.000D+00 0.000D+00 0.281D+00 0.719D+00
 Coeff:      0.115D-02-0.158D-02 0.760D-01 0.139D+00 0.349D+00 0.437D+00
 Gap=     0.061 Goal=   None    Shift=    0.000
 RMSDP=3.48D-05 MaxDP=3.61D-03 DE=-1.75D-03 OVMax= 9.23D-03

 Cycle   7  Pass 1  IDiag  1:
 RMSU=  1.77D-05    CP:  9.65D-01  1.51D+00  5.61D-01  6.74D-01  6.57D-01
                    CP:  6.79D-01
 E= -1220.04639148216     Delta-E=       -0.000691732761 Rises=F Damp=F
 DIIS: error= 3.16D-04 at cycle   7 NSaved=   7.
 NSaved= 7 IEnMin= 7 EnMin= -1220.04639148216     IErMin= 7 ErrMin= 3.16D-04
 ErrMax= 3.16D-04  0.00D+00 EMaxC= 1.00D-01 BMatC= 9.76D-05 BMatP= 8.58D-04
 IDIUse=3 WtCom= 9.97D-01 WtEn= 3.16D-03
 Coeff-Com:  0.117D-02-0.243D-02 0.226D-01 0.425D-01 0.169D+00 0.306D+00
 Coeff-Com:  0.460D+00
 Coeff-En:   0.000D+00 0.000D+00 0.000D+00 0.000D+00 0.000D+00 0.120D+00
 Coeff-En:   0.880D+00
 Coeff:      0.116D-02-0.242D-02 0.225D-01 0.424D-01 0.169D+00 0.306D+00
 Coeff:      0.462D+00
 Gap=     0.060 Goal=   None    Shift=    0.000
 RMSDP=1.13D-05 MaxDP=8.73D-04 DE=-6.92D-04 OVMax= 3.48D-03

 Cycle   8  Pass 1  IDiag  1:
 RMSU=  7.93D-06    CP:  9.65D-01  1.51D+00  5.65D-01  6.71D-01  6.72D-01
                    CP:  7.16D-01  7.18D-01
 E= -1220.04648383166     Delta-E=       -0.000092349500 Rises=F Damp=F
 DIIS: error= 1.17D-04 at cycle   8 NSaved=   8.
 NSaved= 8 IEnMin= 8 EnMin= -1220.04648383166     IErMin= 8 ErrMin= 1.17D-04
 ErrMax= 1.17D-04  0.00D+00 EMaxC= 1.00D-01 BMatC= 9.72D-06 BMatP= 9.76D-05
 IDIUse=3 WtCom= 9.99D-01 WtEn= 1.17D-03
 Coeff-Com:  0.342D-03-0.845D-03 0.363D-02 0.690D-02 0.587D-01 0.138D+00
 Coeff-Com:  0.297D+00 0.496D+00
 Coeff-En:   0.000D+00 0.000D+00 0.000D+00 0.000D+00 0.000D+00 0.000D+00
 Coeff-En:   0.655D-01 0.935D+00
 Coeff:      0.342D-03-0.844D-03 0.362D-02 0.689D-02 0.587D-01 0.138D+00
 Coeff:      0.296D+00 0.497D+00
 Gap=     0.060 Goal=   None    Shift=    0.000
 RMSDP=3.87D-06 MaxDP=3.50D-04 DE=-9.23D-05 OVMax= 1.30D-03

 Cycle   9  Pass 1  IDiag  1:
 RMSU=  2.76D-06    CP:  9.65D-01  1.51D+00  5.64D-01  6.71D-01  6.73D-01
                    CP:  7.10D-01  7.41D-01  6.95D-01
 E= -1220.04649269168     Delta-E=       -0.000008860012 Rises=F Damp=F
 DIIS: error= 3.21D-05 at cycle   9 NSaved=   9.
 NSaved= 9 IEnMin= 9 EnMin= -1220.04649269168     IErMin= 9 ErrMin= 3.21D-05
 ErrMax= 3.21D-05  0.00D+00 EMaxC= 1.00D-01 BMatC= 1.18D-06 BMatP= 9.72D-06
 IDIUse=1 WtCom= 1.00D+00 WtEn= 0.00D+00
 Coeff-Com:  0.112D-03-0.307D-03 0.482D-04 0.547D-04 0.203D-01 0.590D-01
 Coeff-Com:  0.147D+00 0.321D+00 0.453D+00
 Coeff:      0.112D-03-0.307D-03 0.482D-04 0.547D-04 0.203D-01 0.590D-01
 Coeff:      0.147D+00 0.321D+00 0.453D+00
 Gap=     0.060 Goal=   None    Shift=    0.000
 RMSDP=1.33D-06 MaxDP=1.31D-04 DE=-8.86D-06 OVMax= 3.41D-04

 Cycle  10  Pass 1  IDiag  1:
 RMSU=  8.53D-07    CP:  9.65D-01  1.51D+00  5.65D-01  6.71D-01  6.73D-01
                    CP:  7.17D-01  7.44D-01  7.27D-01  7.61D-01
 E= -1220.04649382310     Delta-E=       -0.000001131429 Rises=F Damp=F
 DIIS: error= 7.29D-06 at cycle  10 NSaved=  10.
 NSaved=10 IEnMin=10 EnMin= -1220.04649382310     IErMin=10 ErrMin= 7.29D-06
 ErrMax= 7.29D-06  0.00D+00 EMaxC= 1.00D-01 BMatC= 7.71D-08 BMatP= 1.18D-06
 IDIUse=1 WtCom= 1.00D+00 WtEn= 0.00D+00
 Coeff-Com:  0.422D-04-0.122D-03-0.154D-03-0.378D-03 0.851D-02 0.268D-01
 Coeff-Com:  0.701D-01 0.160D+00 0.275D+00 0.459D+00
 Coeff:      0.422D-04-0.122D-03-0.154D-03-0.378D-03 0.851D-02 0.268D-01
 Coeff:      0.701D-01 0.160D+00 0.275D+00 0.459D+00
 Gap=     0.060 Goal=   None    Shift=    0.000
 RMSDP=4.09D-07 MaxDP=3.24D-05 DE=-1.13D-06 OVMax= 1.32D-04

 Cycle  11  Pass 1  IDiag  1:
 RMSU=  2.94D-07    CP:  9.65D-01  1.51D+00  5.65D-01  6.71D-01  6.72D-01
                    CP:  7.19D-01  7.46D-01  7.26D-01  8.01D-01  7.91D-01
 E= -1220.04649389084     Delta-E=       -0.000000067736 Rises=F Damp=F
 DIIS: error= 3.91D-06 at cycle  11 NSaved=  11.
 NSaved=11 IEnMin=11 EnMin= -1220.04649389084     IErMin=11 ErrMin= 3.91D-06
 ErrMax= 3.91D-06  0.00D+00 EMaxC= 1.00D-01 BMatC= 1.18D-08 BMatP= 7.71D-08
 IDIUse=1 WtCom= 1.00D+00 WtEn= 0.00D+00
 Coeff-Com:  0.109D-04-0.359D-04-0.101D-03-0.268D-03 0.307D-02 0.102D-01
 Coeff-Com:  0.278D-01 0.649D-01 0.123D+00 0.306D+00 0.465D+00
 Coeff:      0.109D-04-0.359D-04-0.101D-03-0.268D-03 0.307D-02 0.102D-01
 Coeff:      0.278D-01 0.649D-01 0.123D+00 0.306D+00 0.465D+00
 Gap=     0.060 Goal=   None    Shift=    0.000
 RMSDP=1.60D-07 MaxDP=1.35D-05 DE=-6.77D-08 OVMax= 5.68D-05

 Cycle  12  Pass 1  IDiag  1:
 RMSU=  1.06D-07    CP:  9.65D-01  1.51D+00  5.65D-01  6.71D-01  6.72D-01
                    CP:  7.19D-01  7.47D-01  7.27D-01  7.93D-01  8.77D-01
                    CP:  7.27D-01
 E= -1220.04649390155     Delta-E=       -0.000000010714 Rises=F Damp=F
 DIIS: error= 1.24D-06 at cycle  12 NSaved=  12.
 NSaved=12 IEnMin=12 EnMin= -1220.04649390155     IErMin=12 ErrMin= 1.24D-06
 ErrMax= 1.24D-06  0.00D+00 EMaxC= 1.00D-01 BMatC= 1.87D-09 BMatP= 1.18D-08
 IDIUse=1 WtCom= 1.00D+00 WtEn= 0.00D+00
 Coeff-Com: -0.163D-05 0.221D-05-0.234D-04-0.847D-04 0.279D-03 0.111D-02
 Coeff-Com:  0.357D-02 0.896D-02 0.229D-01 0.108D+00 0.319D+00 0.536D+00
 Coeff:     -0.163D-05 0.221D-05-0.234D-04-0.847D-04 0.279D-03 0.111D-02
 Coeff:      0.357D-02 0.896D-02 0.229D-01 0.108D+00 0.319D+00 0.536D+00
 Gap=     0.060 Goal=   None    Shift=    0.000
 RMSDP=7.77D-08 MaxDP=5.28D-06 DE=-1.07D-08 OVMax= 1.51D-05

 Cycle  13  Pass 1  IDiag  1:
 RMSU=  3.66D-08    CP:  9.65D-01  1.51D+00  5.65D-01  6.71D-01  6.72D-01
                    CP:  7.19D-01  7.48D-01  7.30D-01  8.02D-01  8.72D-01
                    CP:  7.98D-01  7.24D-01
 E= -1220.04649390347     Delta-E=       -0.000000001918 Rises=F Damp=F
 DIIS: error= 1.99D-07 at cycle  13 NSaved=  13.
 NSaved=13 IEnMin=13 EnMin= -1220.04649390347     IErMin=13 ErrMin= 1.99D-07
 ErrMax= 1.99D-07  0.00D+00 EMaxC= 1.00D-01 BMatC= 5.55D-11 BMatP= 1.87D-09
 IDIUse=1 WtCom= 1.00D+00 WtEn= 0.00D+00
 Coeff-Com: -0.781D-06 0.187D-05-0.462D-05-0.217D-04-0.542D-04-0.105D-03
 Coeff-Com: -0.736D-04 0.209D-03 0.315D-02 0.321D-01 0.121D+00 0.253D+00
 Coeff-Com:  0.591D+00
 Coeff:     -0.781D-06 0.187D-05-0.462D-05-0.217D-04-0.542D-04-0.105D-03
 Coeff:     -0.736D-04 0.209D-03 0.315D-02 0.321D-01 0.121D+00 0.253D+00
 Coeff:      0.591D+00
 Gap=     0.060 Goal=   None    Shift=    0.000
 RMSDP=1.36D-08 MaxDP=1.14D-06 DE=-1.92D-09 OVMax= 2.03D-06

 Cycle  14  Pass 1  IDiag  1:
 RMSU=  1.00D-08    CP:  9.65D-01  1.51D+00  5.65D-01  6.71D-01  6.72D-01
                    CP:  7.19D-01  7.48D-01  7.30D-01  8.04D-01  8.78D-01
                    CP:  8.00D-01  7.19D-01  9.90D-01
 E= -1220.04649390352     Delta-E=       -0.000000000047 Rises=F Damp=F
 DIIS: error= 6.75D-08 at cycle  14 NSaved=  14.
 NSaved=14 IEnMin=14 EnMin= -1220.04649390352     IErMin=14 ErrMin= 6.75D-08
 ErrMax= 6.75D-08  0.00D+00 EMaxC= 1.00D-01 BMatC= 1.42D-11 BMatP= 5.55D-11
 IDIUse=1 WtCom= 1.00D+00 WtEn= 0.00D+00
 Coeff-Com: -0.155D-06 0.547D-06-0.961D-06-0.413D-05-0.735D-04-0.215D-03
 Coeff-Com: -0.527D-03-0.104D-02-0.935D-03 0.622D-02 0.333D-01 0.893D-01
 Coeff-Com:  0.373D+00 0.501D+00
 Coeff:     -0.155D-06 0.547D-06-0.961D-06-0.413D-05-0.735D-04-0.215D-03
 Coeff:     -0.527D-03-0.104D-02-0.935D-03 0.622D-02 0.333D-01 0.893D-01
 Coeff:      0.373D+00 0.501D+00
 Gap=     0.060 Goal=   None    Shift=    0.000
 RMSDP=5.47D-09 MaxDP=4.78D-07 DE=-4.68D-11 OVMax= 1.04D-06

 Error on total polarization charges =  0.06045
 SCF Done:  E(RTPSS-TPSS) =  -1220.04649390     A.U. after   14 cycles
            NFock= 14  Conv=0.55D-08     -V/T= 2.0047
 KE= 1.214364927689D+03 PE=-7.888438211935D+03 EE= 2.925237270934D+03
 SMD-CDS (non-electrostatic) energy       (kcal/mol) =      -0.77
 (included in total energy above)
 Leave Link  502 at Tue Nov 23 11:08:50 2021, MaxMem=  5242880000 cpu:     10357.0
 (Enter /opt/nce/packages/global/g09/l601.exe)
 Copying SCF densities to generalized density rwf, IOpCl= 0 IROHF=0.

 **********************************************************************

            Population analysis using the SCF density.

 **********************************************************************

 Alpha  occ. eigenvalues --  -14.14598 -14.14093 -14.10799 -14.10798 -10.04577
 Alpha  occ. eigenvalues --  -10.04429 -10.03989 -10.03879 -10.03750 -10.03735
 Alpha  occ. eigenvalues --  -10.03651 -10.03584 -10.03450 -10.03448 -10.01416
 Alpha  occ. eigenvalues --  -10.01412 -10.01385 -10.01371 -10.00652 -10.00634
 Alpha  occ. eigenvalues --  -10.00583 -10.00540  -9.98974  -9.98636  -9.98490
 Alpha  occ. eigenvalues --   -9.98437  -9.98401  -9.98179  -9.98083  -9.98025
 Alpha  occ. eigenvalues --   -0.92918  -0.89244  -0.85437  -0.85406  -0.81806
 Alpha  occ. eigenvalues --   -0.81072  -0.80223  -0.77396  -0.73401  -0.71959
 Alpha  occ. eigenvalues --   -0.71343  -0.71246  -0.70450  -0.69958  -0.67301
 Alpha  occ. eigenvalues --   -0.65980  -0.61120  -0.60172  -0.58838  -0.58205
 Alpha  occ. eigenvalues --   -0.58119  -0.55454  -0.55047  -0.51633  -0.51596
 Alpha  occ. eigenvalues --   -0.51507  -0.51381  -0.48831  -0.48122  -0.44996
 Alpha  occ. eigenvalues --   -0.44517  -0.44300  -0.42366  -0.42018  -0.41739
 Alpha  occ. eigenvalues --   -0.41314  -0.40013  -0.39816  -0.39763  -0.39729
 Alpha  occ. eigenvalues --   -0.38944  -0.38694  -0.38509  -0.37213  -0.36715
 Alpha  occ. eigenvalues --   -0.36643  -0.36074  -0.34386  -0.34039  -0.33540
 Alpha  occ. eigenvalues --   -0.33501  -0.33485  -0.33389  -0.32689  -0.32054
 Alpha  occ. eigenvalues --   -0.31273  -0.31202  -0.30923  -0.30777  -0.30657
 Alpha  occ. eigenvalues --   -0.29635  -0.28575  -0.25349  -0.25130  -0.24539
 Alpha  occ. eigenvalues --   -0.24448  -0.23600  -0.23243  -0.20058  -0.14630
 Alpha virt. eigenvalues --   -0.08613  -0.08548  -0.05997  -0.05790  -0.04640
 Alpha virt. eigenvalues --   -0.03348  -0.02685  -0.00965  -0.00937   0.00139
 Alpha virt. eigenvalues --    0.02653   0.02740   0.02996   0.03514   0.04562
 Alpha virt. eigenvalues --    0.05506   0.05933   0.06507   0.07220   0.07467
 Alpha virt. eigenvalues --    0.07675   0.07746   0.08780   0.09019   0.09647
 Alpha virt. eigenvalues --    0.10357   0.10603   0.10734   0.10802   0.10885
 Alpha virt. eigenvalues --    0.11262   0.11482   0.11655   0.12204   0.13091
 Alpha virt. eigenvalues --    0.13853   0.14735   0.15700   0.16095   0.16666
 Alpha virt. eigenvalues --    0.17000   0.17145   0.17723   0.18589   0.18669
 Alpha virt. eigenvalues --    0.18792   0.19015   0.19358   0.19509   0.19666
 Alpha virt. eigenvalues --    0.19844   0.20430   0.20569   0.20765   0.20812
 Alpha virt. eigenvalues --    0.21104   0.21515   0.21694   0.21824   0.22292
 Alpha virt. eigenvalues --    0.22668   0.22973   0.23287   0.23660   0.23968
 Alpha virt. eigenvalues --    0.24614   0.25062   0.25250   0.25680   0.26067
 Alpha virt. eigenvalues --    0.26219   0.26538   0.26614   0.27058   0.27212
 Alpha virt. eigenvalues --    0.27694   0.27904   0.28403   0.28973   0.29127
 Alpha virt. eigenvalues --    0.29356   0.29615   0.29768   0.29851   0.30754
 Alpha virt. eigenvalues --    0.31847   0.31999   0.32228   0.32400   0.32668
 Alpha virt. eigenvalues --    0.32973   0.33309   0.33781   0.34039   0.34410
 Alpha virt. eigenvalues --    0.34983   0.35049   0.35292   0.35406   0.35842
 Alpha virt. eigenvalues --    0.36274   0.36510   0.36743   0.37071   0.37811
 Alpha virt. eigenvalues --    0.38205   0.38890   0.39493   0.39977   0.40326
 Alpha virt. eigenvalues --    0.40579   0.40776   0.40799   0.41402   0.41518
 Alpha virt. eigenvalues --    0.41578   0.41629   0.42240   0.42356   0.42551
 Alpha virt. eigenvalues --    0.42740   0.43076   0.43507   0.43764   0.44394
 Alpha virt. eigenvalues --    0.44686   0.44986   0.45193   0.45718   0.46076
 Alpha virt. eigenvalues --    0.46253   0.46480   0.46825   0.47937   0.48080
 Alpha virt. eigenvalues --    0.48705   0.48773   0.49460   0.49742   0.50205
 Alpha virt. eigenvalues --    0.50242   0.50533   0.51030   0.51976   0.52652
 Alpha virt. eigenvalues --    0.53098   0.53240   0.54019   0.54308   0.55006
 Alpha virt. eigenvalues --    0.55476   0.56291   0.56601   0.56941   0.57397
 Alpha virt. eigenvalues --    0.57768   0.58420   0.59011   0.59361   0.59642
 Alpha virt. eigenvalues --    0.60634   0.60960   0.61517   0.61862   0.62122
 Alpha virt. eigenvalues --    0.62163   0.62798   0.63185   0.63326   0.63704
 Alpha virt. eigenvalues --    0.64063   0.64526   0.64654   0.64862   0.65187
 Alpha virt. eigenvalues --    0.65365   0.66037   0.66226   0.66686   0.67003
 Alpha virt. eigenvalues --    0.67632   0.68391   0.68686   0.69294   0.69572
 Alpha virt. eigenvalues --    0.69806   0.70547   0.70959   0.71322   0.71873
 Alpha virt. eigenvalues --    0.72374   0.72961   0.73182   0.73324   0.73951
 Alpha virt. eigenvalues --    0.74188   0.74775   0.75276   0.75652   0.75731
 Alpha virt. eigenvalues --    0.76276   0.76852   0.77551   0.77848   0.78859
 Alpha virt. eigenvalues --    0.79264   0.79946   0.80456   0.80689   0.81449
 Alpha virt. eigenvalues --    0.81566   0.82589   0.82889   0.83385   0.83840
 Alpha virt. eigenvalues --    0.84176   0.84664   0.85064   0.85539   0.86158
 Alpha virt. eigenvalues --    0.86533   0.86796   0.87009   0.87594   0.87978
 Alpha virt. eigenvalues --    0.88300   0.89204   0.89741   0.89920   0.90571
 Alpha virt. eigenvalues --    0.91564   0.92240   0.92348   0.93591   0.95668
 Alpha virt. eigenvalues --    0.95862   0.96291   0.96951   0.97816   0.98258
 Alpha virt. eigenvalues --    0.98659   0.99326   1.00301   1.01267   1.01769
 Alpha virt. eigenvalues --    1.02356   1.03055   1.03323   1.03704   1.04103
 Alpha virt. eigenvalues --    1.04944   1.04966   1.05740   1.05973   1.06399
 Alpha virt. eigenvalues --    1.06884   1.07200   1.07859   1.08328   1.08836
 Alpha virt. eigenvalues --    1.10732   1.11382   1.11644   1.12101   1.13227
 Alpha virt. eigenvalues --    1.13357   1.13435   1.14025   1.15175   1.15957
 Alpha virt. eigenvalues --    1.16675   1.17288   1.17585   1.18995   1.19188
 Alpha virt. eigenvalues --    1.19793   1.20113   1.21304   1.21369   1.21466
 Alpha virt. eigenvalues --    1.21883   1.22222   1.22522   1.22704   1.23161
 Alpha virt. eigenvalues --    1.23772   1.24063   1.24216   1.24455   1.25065
 Alpha virt. eigenvalues --    1.25179   1.26146   1.28122   1.28589   1.28735
 Alpha virt. eigenvalues --    1.28933   1.29735   1.29872   1.30457   1.31239
 Alpha virt. eigenvalues --    1.31614   1.31876   1.32688   1.33507   1.33768
 Alpha virt. eigenvalues --    1.34649   1.34869   1.35320   1.35674   1.36096
 Alpha virt. eigenvalues --    1.37487   1.38321   1.39244   1.39636   1.40019
 Alpha virt. eigenvalues --    1.40460   1.41328   1.41752   1.42451   1.43456
 Alpha virt. eigenvalues --    1.45065   1.45485   1.45898   1.46520   1.46807
 Alpha virt. eigenvalues --    1.47880   1.48347   1.48487   1.48669   1.49299
 Alpha virt. eigenvalues --    1.50023   1.50324   1.50501   1.51331   1.52078
 Alpha virt. eigenvalues --    1.52744   1.53096   1.53365   1.53904   1.54510
 Alpha virt. eigenvalues --    1.54787   1.55378   1.55642   1.56419   1.56654
 Alpha virt. eigenvalues --    1.56739   1.57088   1.57791   1.58151   1.58503
 Alpha virt. eigenvalues --    1.59336   1.59628   1.59831   1.60802   1.61114
 Alpha virt. eigenvalues --    1.61359   1.61602   1.62547   1.63414   1.63704
 Alpha virt. eigenvalues --    1.64799   1.65125   1.65467   1.65804   1.66639
 Alpha virt. eigenvalues --    1.66859   1.67783   1.68063   1.69037   1.69607
 Alpha virt. eigenvalues --    1.69869   1.70959   1.71143   1.72337   1.73213
 Alpha virt. eigenvalues --    1.73363   1.74078   1.74809   1.75517   1.76692
 Alpha virt. eigenvalues --    1.78179   1.80155   1.81157   1.81840   1.81966
 Alpha virt. eigenvalues --    1.82125   1.82429   1.82804   1.83244   1.83973
 Alpha virt. eigenvalues --    1.84195   1.85559   1.86038   1.86652   1.86696
 Alpha virt. eigenvalues --    1.86987   1.88255   1.88573   1.88775   1.89181
 Alpha virt. eigenvalues --    1.89647   1.90771   1.91816   1.92114   1.92969
 Alpha virt. eigenvalues --    1.93958   1.94311   1.95089   1.96462   1.97063
 Alpha virt. eigenvalues --    1.98139   1.99185   2.00087   2.01394   2.02104
[...]
    14  H   -0.000000  -0.000000  -0.000000  -0.000001  -0.000001  -0.008787
    15  H    0.000951  -0.000007  -0.000018   0.000216   0.000138  -0.000184
    16  H   -0.000002   0.000000   0.000000   0.000001   0.000002  -0.009858
    17  H    0.000000  -0.000000   0.000000  -0.000000  -0.000000  -0.000000
    18  H   -0.000002   0.000000   0.000000   0.000002   0.000001   0.000000
    19  N    0.000002  -0.000000  -0.000000   0.000008   0.000008  -0.000101
    20  C   -0.157652   0.019359   0.019363  -0.076425  -0.076437  -0.000015
    21  C    0.079397  -0.062841  -0.002806   0.471641   0.011262   0.000001
    22  C    0.079357  -0.002803  -0.062846   0.011261   0.471644   0.000002
    23  C    0.325660   0.464047   0.010281  -0.073912  -0.003309  -0.000000
    24  C    0.325700   0.010278   0.464052  -0.003308  -0.073906  -0.000000
    25  C    5.189726  -0.074355  -0.074360   0.017966   0.017967   0.000000
    26  H   -0.074355   0.507231  -0.000230  -0.010366   0.000044   0.000000
    27  H   -0.074360  -0.000230   0.507234   0.000044  -0.010367  -0.000000
    28  H    0.017966  -0.010366   0.000044   0.515660  -0.000211  -0.000000
    29  H    0.017967   0.000044  -0.010367  -0.000211   0.515657  -0.000000
    30  H    0.000000   0.000000  -0.000000  -0.000000  -0.000000   0.539031
    31  N    0.001257  -0.000387  -0.000387  -0.002011  -0.002006   0.000022
    32  C    0.000000  -0.000000  -0.000000   0.000009   0.000009  -0.000001
    33  C    0.000000  -0.000000   0.000000  -0.000001   0.000000   0.000009
    34  C    0.000000   0.000000  -0.000000   0.000000  -0.000001  -0.000003
    35  C   -0.000000  -0.000000   0.000000  -0.000000  -0.000000   0.000001
    36  H    0.000000   0.000000  -0.000000   0.000001   0.000000   0.000003
    37  C   -0.000000   0.000000  -0.000000  -0.000000  -0.000000   0.000003
    38  H    0.000000  -0.000000   0.000000   0.000000   0.000001   0.000001
    39  C    0.000000  -0.000000  -0.000000   0.000000   0.000000  -0.000002
    40  H   -0.000000   0.000000  -0.000000   0.000000  -0.000000   0.000000
    41  H   -0.000000  -0.000000   0.000000  -0.000000   0.000000   0.000000
    42  H    0.000951  -0.000018  -0.000007   0.000138   0.000216  -0.000000
    43  C    0.031269  -0.005195  -0.005196  -0.000165  -0.000165   0.000000
    44  C    0.000000  -0.000000  -0.000000   0.000000   0.000000   0.000000
    45  N   -0.070925   0.000997   0.000997   0.000006   0.000006   0.000000
    46  N    0.000000  -0.000000  -0.000000   0.000000   0.000000  -0.000000
              31         32         33         34         35         36
     1  C    0.000968  -0.006808   0.001070   0.000320  -0.000085   0.000241
     2  C    0.000298  -0.012116  -0.004588  -0.002234  -0.003299   0.001760
     3  C   -0.054074  -0.081829   0.008433   0.003763  -0.002479   0.001167
     4  C    0.425057   0.016523   0.001930   0.001441  -0.000519   0.000367
     5  C   -0.082413  -0.000726  -0.000277  -0.000022  -0.000005   0.000005
     6  C    0.005935   0.000428   0.000031  -0.000040   0.000021  -0.000015
     7  C    0.425064   0.016525   0.001439   0.001931  -0.000432   0.000634
     8  C   -0.054079  -0.081825   0.003776   0.008425  -0.001939   0.003085
     9  C    0.000296  -0.012123  -0.002231  -0.004582  -0.001646   0.000473
    10  H   -0.000173   0.006861   0.001363  -0.001674  -0.000601   0.000216
    11  C    0.000969  -0.006810   0.000321   0.001065   0.000094  -0.000053
    12  C    0.005933   0.000428  -0.000040   0.000032  -0.000005   0.000010
    13  C   -0.082411  -0.000727  -0.000022  -0.000277   0.000016  -0.000039
    14  H   -0.000173   0.006866  -0.001687   0.001362  -0.000175  -0.000035
    15  H   -0.011657   0.000017  -0.000003  -0.000001   0.000000  -0.000001
    16  H   -0.000101  -0.000014   0.000003   0.000001  -0.000000  -0.000000
    17  H    0.000022  -0.000001  -0.000003   0.000009   0.000003   0.000001
    18  H   -0.000101  -0.000014   0.000001   0.000003  -0.000000   0.000000
    19  N   -0.000328   0.082759  -0.029860  -0.029853   0.012663  -0.001628
    20  C    0.065171   0.000184  -0.000005  -0.000005  -0.000002   0.000010
    21  C   -0.030493  -0.000011   0.000019  -0.000008   0.000001  -0.000001
    22  C   -0.030483  -0.000011  -0.000008   0.000019  -0.000000   0.000000
    23  C    0.013340  -0.000002   0.000001  -0.000000   0.000000  -0.000000
    24  C    0.013330  -0.000002  -0.000000   0.000001  -0.000000  -0.000000
    25  C    0.001257   0.000000   0.000000   0.000000  -0.000000   0.000000
    26  H   -0.000387  -0.000000  -0.000000   0.000000  -0.000000   0.000000
    27  H   -0.000387  -0.000000   0.000000  -0.000000   0.000000  -0.000000
    28  H   -0.002011   0.000009  -0.000001   0.000000  -0.000000   0.000001
    29  H   -0.002006   0.000009   0.000000  -0.000001  -0.000000   0.000000
    30  H    0.000022  -0.000001   0.000009  -0.000003   0.000001   0.000003
    31  N    6.314340  -0.002739   0.000358   0.000359   0.000006   0.000006
    32  C   -0.002739   5.507124   0.338666   0.338746   0.076268  -0.077694
    33  C    0.000358   0.338666   5.077914   0.049596   0.284205   0.472588
    34  C    0.000359   0.338746   0.049596   5.077743  -0.101398   0.011644
    35  C    0.000006   0.076268   0.284205  -0.101398   5.220656  -0.074357
    36  H    0.000006  -0.077694   0.472588   0.011644  -0.074357   0.516185
    37  C    0.000006   0.076229  -0.101399   0.284369   0.039185  -0.003439
    38  H    0.000006  -0.077698   0.011644   0.472584  -0.003440  -0.000216
    39  C    0.000002  -0.167134   0.088824   0.088783   0.315292   0.018359
    40  H   -0.000000   0.019692  -0.063553  -0.002989   0.464727  -0.010496
    41  H   -0.000000   0.019696  -0.002992  -0.063557   0.010512   0.000043
    42  H   -0.011656   0.000017  -0.000001  -0.000003   0.000000  -0.000001
    43  C   -0.000132  -0.000000   0.000000   0.000000  -0.000000   0.000000
    44  C   -0.000000  -0.010468   0.010920   0.010912  -0.063460  -0.000162
    45  N   -0.000001  -0.000000   0.000000   0.000000  -0.000000   0.000000
    46  N   -0.000000  -0.000430   0.000373   0.000373   0.002225   0.000006
              37         38         39         40         41         42
     1  C    0.000094  -0.000053  -0.000022  -0.000006  -0.000002   0.000001
     2  C   -0.001642   0.000470   0.000086  -0.000012   0.000033  -0.000001
     3  C   -0.001941   0.003083   0.000814  -0.000015  -0.000051   0.000185
     4  C   -0.000432   0.000634   0.000129  -0.000002  -0.000004  -0.001451
     5  C    0.000016  -0.000039  -0.000005   0.000000   0.000000   0.000068
     6  C   -0.000005   0.000010   0.000004  -0.000000  -0.000000  -0.000004
     7  C   -0.000519   0.000368   0.000129  -0.000004  -0.000002  -0.062796
     8  C   -0.002482   0.001167   0.000814  -0.000051  -0.000015   0.017634
     9  C   -0.003299   0.001758   0.000087   0.000033  -0.000012  -0.004129
    10  H   -0.000178  -0.000033   0.000777  -0.000005  -0.000015   0.000005
    11  C   -0.000085   0.000240  -0.000022  -0.000002  -0.000006   0.013754
    12  C    0.000021  -0.000015   0.000004  -0.000000  -0.000000  -0.057766
    13  C   -0.000005   0.000005  -0.000005   0.000000   0.000000   0.447344
    14  H   -0.000598   0.000216   0.000775  -0.000015  -0.000005   0.000000
    15  H    0.000000  -0.000001  -0.000000  -0.000000  -0.000000   0.000029
    16  H   -0.000000   0.000000   0.000000   0.000000  -0.000000  -0.000000
    17  H    0.000001   0.000003  -0.000002   0.000000   0.000000  -0.000184
    18  H   -0.000000  -0.000000   0.000000  -0.000000   0.000000  -0.008766
    19  N    0.012653  -0.001624   0.001445  -0.000382  -0.000382  -0.000174
    20  C   -0.000002   0.000010   0.000000  -0.000000  -0.000000   0.007113
    21  C   -0.000000   0.000000   0.000000  -0.000000   0.000000  -0.000205
    22  C    0.000001  -0.000001   0.000000   0.000000  -0.000000   0.001106
    23  C   -0.000000  -0.000000  -0.000000  -0.000000   0.000000  -0.000520
    24  C    0.000000  -0.000000  -0.000000   0.000000  -0.000000  -0.000822
    25  C   -0.000000   0.000000   0.000000  -0.000000  -0.000000   0.000951
    26  H    0.000000  -0.000000  -0.000000   0.000000  -0.000000  -0.000018
    27  H   -0.000000   0.000000  -0.000000  -0.000000   0.000000  -0.000007
    28  H   -0.000000   0.000000   0.000000   0.000000  -0.000000   0.000138
    29  H   -0.000000   0.000001   0.000000  -0.000000   0.000000   0.000216
    30  H    0.000003   0.000001  -0.000002   0.000000   0.000000  -0.000000
    31  N    0.000006   0.000006   0.000002  -0.000000  -0.000000  -0.011656
    32  C    0.076229  -0.077698  -0.167134   0.019692   0.019696   0.000017
    33  C   -0.101399   0.011644   0.088824  -0.063553  -0.002992  -0.000001
    34  C    0.284369   0.472584   0.088783  -0.002989  -0.063557  -0.000003
    35  C    0.039185  -0.003440   0.315292   0.464727   0.010512   0.000000
    36  H   -0.003439  -0.000216   0.018359  -0.010496   0.000043  -0.000001
    37  C    5.220495  -0.074349   0.315334   0.010509   0.464731   0.000000
    38  H   -0.074349   0.516182   0.018359   0.000043  -0.010496  -0.000001
    39  C    0.315334   0.018359   5.205313  -0.075030  -0.075034  -0.000000
    40  H    0.010509   0.000043  -0.075030   0.507575  -0.000227  -0.000000
    41  H    0.464731  -0.010496  -0.075034  -0.000227   0.507579  -0.000000
    42  H    0.000000  -0.000001  -0.000000  -0.000000  -0.000000   0.511035
    43  C   -0.000000   0.000000   0.000000  -0.000000  -0.000000  -0.000021
    44  C   -0.063459  -0.000162   0.030933  -0.005231  -0.005234  -0.000000
    45  N   -0.000000   0.000000   0.000000  -0.000000  -0.000000  -0.000000
    46  N    0.002225   0.000006  -0.071187   0.000998   0.000998   0.000000
              43         44         45         46
     1  C   -0.000000   0.000005  -0.000000   0.000000
     2  C    0.000000  -0.000014   0.000000   0.000000
     3  C   -0.000003  -0.000072  -0.000000  -0.000001
     4  C   -0.000073  -0.000003  -0.000001  -0.000000
     5  C   -0.000015   0.000000   0.000000   0.000000
     6  C    0.000005  -0.000000   0.000000  -0.000000
     7  C   -0.000073  -0.000003  -0.000001  -0.000000
     8  C   -0.000003  -0.000072  -0.000000  -0.000001
     9  C    0.000000  -0.000014   0.000000   0.000000
    10  H   -0.000000  -0.000022   0.000000  -0.000000
    11  C   -0.000000   0.000005  -0.000000   0.000000
    12  C    0.000005  -0.000000   0.000000  -0.000000
    13  C   -0.000015   0.000000   0.000000   0.000000
    14  H   -0.000000  -0.000022   0.000000  -0.000000
    15  H   -0.000021  -0.000000  -0.000000   0.000000
    16  H    0.000000   0.000000  -0.000000   0.000000
    17  H    0.000000   0.000000   0.000000  -0.000000
    18  H    0.000000   0.000000  -0.000000   0.000000
    19  N   -0.000000  -0.000120  -0.000000  -0.000001
    20  C   -0.010562  -0.000000  -0.000442  -0.000000
    21  C    0.011138   0.000000   0.000395   0.000000
    22  C    0.011132   0.000000   0.000394   0.000000
    23  C   -0.063632  -0.000000   0.002183  -0.000000
    24  C   -0.063631  -0.000000   0.002183  -0.000000
    25  C    0.031269   0.000000  -0.070925   0.000000
    26  H   -0.005195  -0.000000   0.000997  -0.000000
    27  H   -0.005196  -0.000000   0.000997  -0.000000
    28  H   -0.000165   0.000000   0.000006   0.000000
    29  H   -0.000165   0.000000   0.000006   0.000000
    30  H    0.000000   0.000000   0.000000  -0.000000
    31  N   -0.000132  -0.000000  -0.000001  -0.000000
    32  C   -0.000000  -0.010468  -0.000000  -0.000430
    33  C    0.000000   0.010920   0.000000   0.000373
    34  C    0.000000   0.010912   0.000000   0.000373
    35  C   -0.000000  -0.063460  -0.000000   0.002225
    36  H    0.000000  -0.000162   0.000000   0.000006
    37  C   -0.000000  -0.063459  -0.000000   0.002225
    38  H    0.000000  -0.000162   0.000000   0.000006
    39  C    0.000000   0.030933   0.000000  -0.071187
    40  H   -0.000000  -0.005231  -0.000000   0.000998
    41  H   -0.000000  -0.005234  -0.000000   0.000998
    42  H   -0.000021  -0.000000  -0.000000   0.000000
    43  C    5.337072  -0.000000   0.980476  -0.000000
    44  C   -0.000000   5.336808  -0.000000   0.980610
    45  N    0.980476  -0.000000   6.148929   0.000000
    46  N   -0.000000   0.980610   0.000000   6.149556
 Mulliken charges:
               1
     1  C   -0.185303
     2  C   -0.202858
     3  C    0.057605
     4  C    0.060215
     5  C   -0.200564
     6  C   -0.187193
     7  C    0.060207
     8  C    0.057605
     9  C   -0.202838
    10  H    0.148810
    11  C   -0.185313
    12  C   -0.187187
    13  C   -0.200571
    14  H    0.148810
    15  H    0.148930
    16  H    0.134325
    17  H    0.134449
    18  H    0.134325
    19  N    0.090573
    20  C    0.021721
    21  C   -0.142562
    22  C   -0.142579
    23  C   -0.173707
    24  C   -0.173717
    25  C    0.305154
    26  H    0.154302
    27  H    0.154300
    28  H    0.141643
    29  H    0.141649
    30  H    0.134450
    31  N    0.093061
    32  C    0.032135
    33  C   -0.146816
    34  C   -0.146834
    35  C   -0.172034
    36  H    0.141334
    37  C   -0.172038
    38  H    0.141340
    39  C    0.302179
    40  H    0.154443
    41  H    0.154441
    42  H    0.148930
    43  C   -0.222195
    44  C   -0.221678
    45  N   -0.065197
    46  N   -0.065750
 Sum of Mulliken charges =  -0.00000
 Mulliken charges with hydrogens summed into heavy atoms:
               1
     1  C   -0.050853
     2  C   -0.054048
     3  C    0.057605
     4  C    0.060215
     5  C   -0.051634
     6  C   -0.052869
     7  C    0.060207
     8  C    0.057605
     9  C   -0.054027
    11  C   -0.050864
    12  C   -0.052862
    13  C   -0.051641
    19  N    0.090573
    20  C    0.021721
    21  C   -0.000919
    22  C   -0.000931
    23  C   -0.019405
    24  C   -0.019417
    25  C    0.305154
    31  N    0.093061
    32  C    0.032135
    33  C   -0.005482
    34  C   -0.005494
    35  C   -0.017591
    37  C   -0.017597
    39  C    0.302179
    43  C   -0.222195
    44  C   -0.221678
    45  N   -0.065197
    46  N   -0.065750
 Electronic spatial extent (au):  <R**2>=          14374.8658
 Charge=              0.0000 electrons
 Dipole moment (field-independent basis, Debye):
    X=             -0.0657    Y=              0.0001    Z=             -0.0019  Tot=              0.0657
 Quadrupole moment (field-independent basis, Debye-Ang):
   XX=           -292.0190   YY=           -170.8880   ZZ=           -158.2322
   XY=              0.0002   XZ=             -0.0019   YZ=             -0.7922
 Traceless Quadrupole moment (field-independent basis, Debye-Ang):
   XX=            -84.9726   YY=             36.1584   ZZ=             48.8142
   XY=              0.0002   XZ=             -0.0019   YZ=             -0.7922
 Octapole moment (field-independent basis, Debye-Ang**2):
  XXX=             -2.9067  YYY=              0.0004  ZZZ=              0.0261  XYY=              0.5798
  XXY=              0.0084  XXZ=             -0.2625  XZZ=             -0.7311  YZZ=             -0.0008
  YYZ=             -0.0071  XYZ=             -7.9072
 Hexadecapole moment (field-independent basis, Debye-Ang**3):
 XXXX=         -30137.4240 YYYY=          -3006.3973 ZZZZ=           -596.7561 XXXY=              0.0106
 XXXZ=             -0.1157 YYYX=              0.0009 YYYZ=              3.6304 ZZZX=             -0.0044
 ZZZY=             -7.0839 XXYY=          -3288.0542 XXZZ=          -2490.3274 YYZZ=           -745.1158
 XXYZ=            -17.1579 YYXZ=             -0.0024 ZZXY=             -0.0044
 N-N= 2.529524686127D+03 E-N=-7.889882026026D+03  KE= 1.214427036591D+03
 Leave Link  601 at Wed Nov 24 02:08:11 2021, MaxMem=  5242880000 cpu:         5.9
 (Enter /opt/nce/packages/global/g09/l9999.exe)
 1\1\GINC-CN043\SP\RTPSSTPSS TD-FC\Gen\C26H16N4\PNG4RJV\24-Nov-2021\0\\
 #p TPSSTPSS chkbasis geom=allcheck Guess=Read int=ultrafine scrf=(SMD,
 solvent=n,n-DiMethylFormamide) td=(NStates=30)\\Title\\0,1\C,0,0.69319
 15038,3.6661059306,0.0629851416\C,0,1.3880165339,2.4488002157,0.051508
 3905\C,0,0.7087701224,1.2281793323,0.0155504475\C,0,-0.7081366417,1.22
 78358283,0.0082164601\C,0,-1.3885391532,2.4484135269,0.0148936452\C,0,
 -0.6946022184,3.6659826726,0.0405376815\C,0,-0.7077205222,-1.228568151
 ,-0.020108196\C,0,0.7091885889,-1.2284318756,-0.0268432446\C,0,1.38886
 63319,-2.4488156965,-0.0626842917\H,0,2.4736782274,-2.4515064202,-0.08
 02782407\C,0,0.6944610691,-3.6663564935,-0.0745957118\C,0,-0.693342255
 3,-3.6667060833,-0.0527448063\C,0,-1.3877045325,-2.4493764154,-0.02724
 42368\H,0,2.4728194236,2.4518675237,0.0695708779\H,0,-2.4734389943,2.4
 511372754,0.0009659919\H,0,-1.2536498906,4.5974331361,0.0450516418\H,0
 ,1.2531646125,-4.5976594716,-0.1006002342\H,0,-1.2520723585,-4.5983453
 493,-0.0576021472\N,0,1.3996313374,-0.000013159,-0.005384908\C,0,-2.83
 46107631,-0.0007231212,-0.0060271258\C,0,-3.5276274435,-0.0486773042,-
 1.219495719\C,0,-3.5277007354,0.0469955614,1.2074097418\C,0,-4.9180909
 661,-0.0497913451,-1.2257562144\C,0,-4.9181636981,0.0476278096,1.21361
 09893\C,0,-5.6157656883,-0.0012035078,-0.0060890765\H,0,-5.4653692469,
 -0.0856912945,-2.1620627349\H,0,-5.4654957104,0.0833378072,2.149893392
 8\H,0,-2.9756972373,-0.0842556236,-2.1537942108\H,0,-2.9758221531,0.08
 27640237,2.1417317874\H,0,1.2515687171,4.5976010424,0.0891179654\N,0,-
 1.3981293617,-0.0004833869,-0.0059725254\C,0,2.8356417549,0.0002106775
 ,-0.0047766948\C,0,3.5297093642,0.1615551201,-1.2080485617\C,0,3.52868
 26775,-0.1609272804,1.1991131856\C,0,4.9200644792,0.1642789737,-1.2133
 839735\H,0,2.9789586184,0.284339625,-2.1356440984\C,0,4.9190290445,-0.
 1632244686,1.205693316\H,0,2.9771385411,-0.2838775543,2.1262151037\C,0
 ,5.6174640529,0.0006350908,-0.0035306839\H,0,5.4673347394,0.2876952367
 ,-2.1422552524\H,0,5.4655036515,-0.2864780037,2.1350549089\H,0,-2.4726
 082145,-2.4524755583,-0.0137609393\C,0,-7.0443294176,-0.0014559646,-0.
 0061221592\C,0,7.045915733,0.0008620948,-0.0028623174\N,0,-8.207431465
 1,-0.0016606866,-0.0061463998\N,0,8.2090692131,0.0010463305,-0.0023142
 347\\Version=ES64L-G09RevE.01\State=1-A\HF=-1220.0616517\RMSD=5.869e-0
 9\PG=C01 [X(C26H16N4)]\\@


 THOUGH I SPEAK WITH THE TONGUES OF MEN AND OF ANGELS, 
 AND HAVE NOT LOVE,
 I AM BECOME AS SOUNDING BRASS, A TINKLING CYMBAL.
 AND THOUGH I HAVE THE GIFT OF PROPHECY,
 AND UNDERSTAND ALL MYSTERIES, AND ALL KNOWLEDGE.
 AND THOUGH I HAVE ALL FAITH, SO THAT I COULD REMOVE MOUNTAINS,
 AND HAVE NOT LOVE, I AM NOTHING.
 AND THOUGH I BESTOW ALL MY GOODS TO FEED THE POOR,
 AND THOUGH I GIVE MY BODY TO BE BURNED,
 AND HAVE NOT LOVE IT PROFITETH ME NOTHING.
 LOVE SUFFERETH LONG, AND IS KIND,
 LOVE ENVIETH NOT,
 LOVE VAUNTETH NOT ITSELF, IS NOT PUFFED UP,
 DOTH NOT BEHAVE ITSELF UNSEEMLY, SEEKETH NOT HER OWN,
 IS NOT EASILY PROVOKED, THINKETH NO EVIL,
 REJOICETH NOT IN INIQUITY, BUT REJOICETH IN THE TRUTH,
 BEARETH ALL THINGS, BELIEVETH ALL THINGS,
 HOPETH ALL THINGS, ENDURETH ALL THINGS.
 LOVE NEVER FAILETH, BUT WHETHER THERE BE PROPHECIES, THEY SHALL FAIL, 
 WHETHER THERE BE TONGUES, THEY SHALL CEASE,
 WHETHER THERE BE KNOWLEDGE, IT SHALL VANISH AWAY.
 FOR WE KNOW IN PART, AND WE PROPHESY IN PART.
 BUT WHEN THAT WHICH IS PERFECT IS COME, THEN THAT WHICH IS IN PART 
 SHALL BE DONE AWAY. 
 WHEN I WAS A CHILD, I SPAKE AS A CHILD, I UNDERSTOOD AS A CHILD, 
 I THOUGHT AS A CHILD.
 BUT WHEN I BECAME A MAN, I PUT AWAY CHILDISH THINGS.
 FOR NOW WE SEE THROUGH A GLASS, DARKLY, BUT THEN FACE TO FACE.
 NOW I KNOW IN PART. BUT THEN SHALL I KNOW EVEN AS ALSO I AM KNOWN.
 AND NOW ABIDETH FAITH, HOPE AND LOVE, THESE THREE.
 BUT THE GREATEST OF THESE IS LOVE.

                     I CORINTHIANS 13
 Job cpu time:       1 days 12 hours 59 minutes 10.5 seconds.
 File lengths (MBytes):  RWF=   3867 Int=      0 D2E=      0 Chk=    937 Scr=      1
 Normal termination of Gaussian 09 at Wed Nov 24 02:08:12 2021.
