
                                 *****************
                                 * O   R   C   A *
                                 *****************

                                            #,                                       
                                            ###                                      
                                            ####                                     
                                            #####                                    
                                            ######                                   
                                           ########,                                 
                                     ,,################,,,,,                         
                               ,,#################################,,                 
                          ,,##########################################,,             
                       ,#########################################, ''#####,          
                    ,#############################################,,   '####,        
                  ,##################################################,,,,####,       
                ,###########''''           ''''###############################       
              ,#####''   ,,,,##########,,,,          '''####'''          '####       
            ,##' ,,,,###########################,,,                        '##       
           ' ,,###''''                  '''############,,,                           
         ,,##''                                '''############,,,,        ,,,,,,###''
      ,#''                                            '''#######################'''  
     '                                                          ''''####''''         
             ,#######,   #######,   ,#######,      ##                                
            ,#'     '#,  ##    ##  ,#'     '#,    #''#        ######   ,####,        
            ##       ##  ##   ,#'  ##            #'  '#       #        #'  '#        
            ##       ##  #######   ##           ,######,      #####,   #    #        
            '#,     ,#'  ##    ##  '#,     ,#' ,#      #,         ##   #,  ,#        
             '#######'   ##     ##  '#######'  #'      '#     #####' # '####'        



                  #######################################################
                  #                        -***-                        #
                  #          Department of theory and spectroscopy      #
                  #    Directorship and core code : Frank Neese         #
                  #        Max Planck Institute fuer Kohlenforschung    #
                  #                Kaiser Wilhelm Platz 1               #
                  #                 D-45470 Muelheim/Ruhr               #
                  #                      Germany                        #
                  #                                                     #
                  #                  All rights reserved                #
                  #                        -***-                        #
                  #######################################################


                         Program Version 5.0.2 -  RELEASE  -


 With contributions from (in alphabetic order):
   Daniel Aravena         : Magnetic Suceptibility
   Michael Atanasov       : Ab Initio Ligand Field Theory (pilot matlab implementation)
   Alexander A. Auer      : GIAO ZORA, VPT2 properties, NMR spectrum
   Ute Becker             : Parallelization
   Giovanni Bistoni       : ED, misc. LED, open-shell LED, HFLD
   Martin Brehm           : Molecular dynamics
   Dmytro Bykov           : SCF Hessian
   Vijay G. Chilkuri      : MRCI spin determinant printing, contributions to CSF-ICE
   Dipayan Datta          : RHF DLPNO-CCSD density
   Achintya Kumar Dutta   : EOM-CC, STEOM-CC
   Dmitry Ganyushin       : Spin-Orbit,Spin-Spin,Magnetic field MRCI
   Miquel Garcia          : C-PCM and meta-GGA Hessian, CC/C-PCM, Gaussian charge scheme
   Yang Guo               : DLPNO-NEVPT2, F12-NEVPT2, CIM, IAO-localization
   Andreas Hansen         : Spin unrestricted coupled pair/coupled cluster methods
   Benjamin Helmich-Paris : MC-RPA, TRAH-SCF, COSX integrals
   Lee Huntington         : MR-EOM, pCC
   Robert Izsak           : Overlap fitted RIJCOSX, COSX-SCS-MP3, EOM
   Marcus Kettner         : VPT2
   Christian Kollmar      : KDIIS, OOCD, Brueckner-CCSD(T), CCSD density, CASPT2, CASPT2-K
   Simone Kossmann        : Meta GGA functionals, TD-DFT gradient, OOMP2, MP2 Hessian
   Martin Krupicka        : Initial AUTO-CI
   Lucas Lang             : DCDCAS
   Marvin Lechner         : AUTO-CI (C++ implementation), FIC-MRCC
   Dagmar Lenk            : GEPOL surface, SMD
   Dimitrios Liakos       : Extrapolation schemes; Compound Job, initial MDCI parallelization
   Dimitrios Manganas     : Further ROCIS development; embedding schemes
   Dimitrios Pantazis     : SARC Basis sets
   Anastasios Papadopoulos: AUTO-CI, single reference methods and gradients
   Taras Petrenko         : DFT Hessian,TD-DFT gradient, ASA, ECA, R-Raman, ABS, FL, XAS/XES, NRVS
   Peter Pinski           : DLPNO-MP2, DLPNO-MP2 Gradient
   Christoph Reimann      : Effective Core Potentials
   Marius Retegan         : Local ZFS, SOC
   Christoph Riplinger    : Optimizer, TS searches, QM/MM, DLPNO-CCSD(T), (RO)-DLPNO pert. Triples
   Tobias Risthaus        : Range-separated hybrids, TD-DFT gradient, RPA, STAB
   Michael Roemelt        : Original ROCIS implementation
   Masaaki Saitow         : Open-shell DLPNO-CCSD energy and density
   Barbara Sandhoefer     : DKH picture change effects
   Avijit Sen             : IP-ROCIS
   Kantharuban Sivalingam : CASSCF convergence, NEVPT2, FIC-MRCI
   Bernardo de Souza      : ESD, SOC TD-DFT
   Georgi Stoychev        : AutoAux, RI-MP2 NMR, DLPNO-MP2 response
   Willem Van den Heuvel  : Paramagnetic NMR
   Boris Wezisla          : Elementary symmetry handling
   Frank Wennmohs         : Technical directorship


 We gratefully acknowledge several colleagues who have allowed us to
 interface, adapt or use parts of their codes:
   Stefan Grimme, W. Hujo, H. Kruse, P. Pracht,  : VdW corrections, initial TS optimization,
                  C. Bannwarth, S. Ehlert          DFT functionals, gCP, sTDA/sTD-DF
   Ed Valeev, F. Pavosevic, A. Kumar             : LibInt (2-el integral package), F12 methods
   Garnet Chan, S. Sharma, J. Yang, R. Olivares  : DMRG
   Ulf Ekstrom                                   : XCFun DFT Library
   Mihaly Kallay                                 : mrcc  (arbitrary order and MRCC methods)
   Jiri Pittner, Ondrej Demel                    : Mk-CCSD
   Frank Weinhold                                : gennbo (NPA and NBO analysis)
   Christopher J. Cramer and Donald G. Truhlar   : smd solvation model
   Lars Goerigk                                  : TD-DFT with DH, B97 family of functionals
   V. Asgeirsson, H. Jonsson                     : NEB implementation
   FAccTs GmbH                                   : IRC, NEB, NEB-TS, DLPNO-Multilevel, CI-OPT
                                                   MM, QMMM, 2- and 3-layer-ONIOM, Crystal-QMMM,
                                                   LR-CPCM, SF, NACMEs, symmetry and pop. for TD-DFT,
                                                   nearIR, NL-DFT gradient (VV10), updates on ESD,
                                                   ML-optimized integration grids
   S Lehtola, MJT Oliveira, MAL Marques          : LibXC Library
   Liviu Ungur et al                             : ANISO software


 Your calculation uses the libint2 library for the computation of 2-el integrals
 For citations please refer to: http://libint.valeyev.net

 Your ORCA version has been built with support for libXC version: 5.1.0
 For citations please refer to: https://tddft.org/programs/libxc/

 This ORCA versions uses:
   CBLAS   interface :  Fast vector & matrix operations
   LAPACKE interface :  Fast linear algebra routines
   SCALAPACK package :  Parallel linear algebra routines
   Shared memory     :  Shared parallel matrices
   BLAS/LAPACK       :  OpenBLAS 0.3.15  USE64BITINT DYNAMIC_ARCH NO_AFFINITY Zen SINGLE_THREADED
        Core in use  :  Zen
   Copyright (c) 2011-2014, The OpenBLAS Project


Your calculation utilizes the SMD solvation module
Please cite in your paper:
A.V. Marenich, C.J. Cramer, D.G. Truhlar J. Phys. Chem. B, 113, (2009), 6378 

================================================================================

----- Orbital basis set information -----
Your calculation utilizes the basis: def2-TZVP
   F. Weigend and R. Ahlrichs, Phys. Chem. Chem. Phys. 7, 3297 (2005).

----- AuxJ basis set information -----
Your calculation utilizes the auxiliary basis: def2/J
   F. Weigend, Phys. Chem. Chem. Phys. 8, 1057 (2006).

----- AuxC basis set information -----
Your calculation utilizes the auxiliary basis: def2-TZVP/C
  H-La, Hf-Rn : A. Hellweg, C. Hattig, S. Hofener and W. Klopper, Theor. Chem. Acc. 117, 587 (2007).
        Ce-Lu : J. Chmela and M. E. Harding, Mol. Phys. (2018).

================================================================================
                                        WARNINGS
                       Please study these warnings very carefully!
================================================================================


WARNING: Post HF methods need fully converged wavefunctions
  ===> : Setting SCFConvForced true
         You can overwrite this default with %scf ConvForced false 


WARNING: MDCI localization with Augmented Hessian Foster-Boys
  ===> : Switching off randomization!

INFO   : the flag for use of the SHARK integral package has been found!

================================================================================
                                       INPUT FILE
================================================================================
NAME = PA_3_STEOM-DLPNO-CCSD_DEF2-TZVP_RIJCOSX_SMD.inp
|  1> %maxcore 60000
|  2> %pal
|  3>  nprocs= 4
|  4> end
|  5> !STEOM-DLPNO-CCSD DEF2-TZVP DEF2-TZVP/C def2/J TightSCF TightPNO CPCM
|  6> %MDCI
|  7>    Dorootwise true
|  8>    OTHRESH 0.005
|  9>    VTHRESH 0.005
| 10>    TCutPNOSingles 1e-11
| 11>    DTol 1e-5
| 12>    NROOTS  25
| 13>    DOSOLV  TRUE
| 14>    MAXITER 500
| 15> END
| 16> %CPCM
| 17>    SMD          TRUE
| 18>    SMDsolvent   "N,N-DIMETHYLFORMAMIDE"
| 19> END
| 20> 
| 21> 
| 22> * xyz 0 1
| 23> C                  -0.69204800   -3.64386400   -0.00787400
| 24> C                  -1.38063400   -2.43381100    0.01449500
| 25> C                  -0.70412400   -1.22065400    0.00031700
| 26> C                   0.70453700   -1.22132400   -0.01151200
| 27> C                   1.37757400   -2.43577000   -0.05047100
| 28> C                   0.68626500   -3.64462700   -0.04839400
| 29> C                   0.70452700    1.22133800    0.01141000
| 30> C                  -0.70413500    1.22065200   -0.00038400
| 31> C                  -1.38065800    2.43380100   -0.01460900
| 32> H                  -2.46172000    2.43500700   -0.04119000
| 33> C                  -0.69208600    3.64386400    0.00768500
| 34> C                   0.68622800    3.64464400    0.04816700
| 35> C                   1.37755000    2.43579500    0.05028500
| 36> H                  -2.46169400   -2.43503000    0.04110900
| 37> H                   2.45827400   -2.44078500   -0.08404200
| 38> H                   1.24095300   -4.57320800   -0.07768800
| 39> H                  -1.24837500    4.57189400   -0.00273000
| 40> H                   1.24090700    4.57323200    0.07740300
| 41> N                  -1.38783400   -0.00000400    0.00001600
| 42> C                   2.81359400    0.00001000    0.00001200
| 43> C                   3.50492200    0.26808100   -1.17600900
| 44> C                   3.50487000   -0.26806900    1.17606000
| 45> C                   4.88571300    0.27165100   -1.18089900
| 46> C                   4.88566100   -0.27164800    1.18100900
| 47> C                   5.58200100   -0.00000100    0.00007000
| 48> H                   5.43094000    0.47772700   -2.09179700
| 49> H                   5.43084800   -0.47772900    2.09193100
| 50> H                   2.95295300    0.47632700   -2.08345700
| 51> H                   2.95286100   -0.47631300    2.08348400
| 52> H                  -1.24832600   -4.57190200    0.00251200
| 53> N                   1.38978900    0.00001000   -0.00001500
| 54> C                  -2.81267800   -0.00000700    0.00003000
| 55> C                  -3.50271800   -0.16014900   -1.19561600
| 56> C                  -3.50269000    0.16013500    1.19569200
| 57> C                  -4.88377600   -0.16242500   -1.20102800
| 58> H                  -2.94982500   -0.28486500   -2.11773400
| 59> C                  -4.88374800    0.16241100    1.20113700
| 60> H                  -2.94977500    0.28485300    2.11779700
| 61> C                  -5.57941300   -0.00000800    0.00006200
| 62> H                  -5.42939900   -0.28554300   -2.12654800
| 63> H                  -5.42934900    0.28552900    2.12666900
| 64> H                   2.45825100    2.44082500    0.08382800
| 65> C                   7.00167700   -0.00000500    0.00010100
| 66> C                  -6.99939900   -0.00000900    0.00008000
| 67> N                   8.15878000   -0.00000800    0.00012600
| 68> N                  -8.15639400   -0.00000900    0.00009400
| 69> *
| 70> 
| 71> 
| 72>                          ****END OF INPUT****
================================================================================

                       ****************************
                       * Single Point Calculation *
                       ****************************

---------------------------------
CARTESIAN COORDINATES (ANGSTROEM)
---------------------------------
  C     -0.692048   -3.643864   -0.007874
  C     -1.380634   -2.433811    0.014495
  C     -0.704124   -1.220654    0.000317
  C      0.704537   -1.221324   -0.011512
  C      1.377574   -2.435770   -0.050471
  C      0.686265   -3.644627   -0.048394
  C      0.704527    1.221338    0.011410
  C     -0.704135    1.220652   -0.000384
  C     -1.380658    2.433801   -0.014609
  H     -2.461720    2.435007   -0.041190
  C     -0.692086    3.643864    0.007685
  C      0.686228    3.644644    0.048167
  C      1.377550    2.435795    0.050285
  H     -2.461694   -2.435030    0.041109
  H      2.458274   -2.440785   -0.084042
  H      1.240953   -4.573208   -0.077688
  H     -1.248375    4.571894   -0.002730
  H      1.240907    4.573232    0.077403
  N     -1.387834   -0.000004    0.000016
  C      2.813594    0.000010    0.000012
  C      3.504922    0.268081   -1.176009
  C      3.504870   -0.268069    1.176060
  C      4.885713    0.271651   -1.180899
  C      4.885661   -0.271648    1.181009
  C      5.582001   -0.000001    0.000070
  H      5.430940    0.477727   -2.091797
  H      5.430848   -0.477729    2.091931
  H      2.952953    0.476327   -2.083457
  H      2.952861   -0.476313    2.083484
  H     -1.248326   -4.571902    0.002512
  N      1.389789    0.000010   -0.000015
  C     -2.812678   -0.000007    0.000030
  C     -3.502718   -0.160149   -1.195616
  C     -3.502690    0.160135    1.195692
  C     -4.883776   -0.162425   -1.201028
  H     -2.949825   -0.284865   -2.117734
  C     -4.883748    0.162411    1.201137
  H     -2.949775    0.284853    2.117797
  C     -5.579413   -0.000008    0.000062
  H     -5.429399   -0.285543   -2.126548
  H     -5.429349    0.285529    2.126669
  H      2.458251    2.440825    0.083828
  C      7.001677   -0.000005    0.000101
  C     -6.999399   -0.000009    0.000080
  N      8.158780   -0.000008    0.000126
  N     -8.156394   -0.000009    0.000094

----------------------------
CARTESIAN COORDINATES (A.U.)
----------------------------
  NO LB      ZA    FRAG     MASS         X           Y           Z
   0 C     6.0000    0    12.011   -1.307781   -6.885905   -0.014880
   1 C     6.0000    0    12.011   -2.609020   -4.599236    0.027392
   2 C     6.0000    0    12.011   -1.330602   -2.306702    0.000599
   3 C     6.0000    0    12.011    1.331382   -2.307968   -0.021755
   4 C     6.0000    0    12.011    2.603238   -4.602938   -0.095376
   5 C     6.0000    0    12.011    1.296853   -6.887347   -0.091451
   6 C     6.0000    0    12.011    1.331363    2.307994    0.021562
   7 C     6.0000    0    12.011   -1.330622    2.306698   -0.000726
   8 C     6.0000    0    12.011   -2.609066    4.599217   -0.027607
   9 H     1.0000    0     1.008   -4.651977    4.601496   -0.077838
  10 C     6.0000    0    12.011   -1.307853    6.885905    0.014523
  11 C     6.0000    0    12.011    1.296783    6.887379    0.091022
  12 C     6.0000    0    12.011    2.603192    4.602985    0.095025
  13 H     1.0000    0     1.008   -4.651927   -4.601540    0.077685
  14 H     1.0000    0     1.008    4.645465   -4.612415   -0.158816
  15 H     1.0000    0     1.008    2.345061   -8.642111   -0.146809
  16 H     1.0000    0     1.008   -2.359087    8.639628   -0.005159
  17 H     1.0000    0     1.008    2.344974    8.642156    0.146270
  18 N     7.0000    0    14.007   -2.622626   -0.000008    0.000030
  19 C     6.0000    0    12.011    5.316922    0.000019    0.000023
  20 C     6.0000    0    12.011    6.623343    0.506600   -2.222335
  21 C     6.0000    0    12.011    6.623244   -0.506577    2.222431
  22 C     6.0000    0    12.011    9.232660    0.513346   -2.231576
  23 C     6.0000    0    12.011    9.232561   -0.513340    2.231784
  24 C     6.0000    0    12.011   10.548453   -0.000002    0.000132
  25 H     1.0000    0     1.008   10.262989    0.902773   -3.952923
  26 H     1.0000    0     1.008   10.262815   -0.902777    3.953177
  27 H     1.0000    0     1.008    5.580272    0.900128   -3.937163
  28 H     1.0000    0     1.008    5.580099   -0.900101    3.937214
  29 H     1.0000    0     1.008   -2.358994   -8.639643    0.004747
  30 N     7.0000    0    14.007    2.626321    0.000019   -0.000028
  31 C     6.0000    0    12.011   -5.315191   -0.000013    0.000057
  32 C     6.0000    0    12.011   -6.619178   -0.302638   -2.259387
  33 C     6.0000    0    12.011   -6.619125    0.302611    2.259530
  34 C     6.0000    0    12.011   -9.228999   -0.306939   -2.269614
  35 H     1.0000    0     1.008   -5.574361   -0.538317   -4.001937
  36 C     6.0000    0    12.011   -9.228946    0.306912    2.269820
  37 H     1.0000    0     1.008   -5.574267    0.538294    4.002056
  38 C     6.0000    0    12.011  -10.543563   -0.000015    0.000117
  39 H     1.0000    0     1.008  -10.260077   -0.539598   -4.018593
  40 H     1.0000    0     1.008  -10.259983    0.539572    4.018822
  41 H     1.0000    0     1.008    4.645421    4.612491    0.158412
  42 C     6.0000    0    12.011   13.231252   -0.000009    0.000191
  43 C     6.0000    0    12.011  -13.226947   -0.000017    0.000151
  44 N     7.0000    0    14.007   15.417860   -0.000015    0.000238
  45 N     7.0000    0    14.007  -15.413351   -0.000017    0.000178

--------------------------------
INTERNAL COORDINATES (ANGSTROEM)
--------------------------------
 C      0   0   0     0.000000000000     0.00000000     0.00000000
 C      1   0   0     1.392436466905     0.00000000     0.00000000
 C      2   1   0     1.389106440282   121.19452733     0.00000000
 C      3   2   1     1.408710824499   119.12155254   358.79464307
 C      4   3   2     1.389019688113   119.02395337     1.97253426
 C      1   2   3     1.378908691153   119.68677034   359.82756619
 C      4   3   2     2.442769547957    89.96800149   180.93880880
 C      7   4   3     1.408711538703    89.96783322   359.03974240
 C      8   7   4     1.389106265321   119.12152839   180.94182063
 H      9   8   7     1.081389408049   119.21568202   178.93657936
 C      9   8   7     1.392437031104   121.19462106   358.79436570
 C     11   9   8     1.378908584106   119.68669385   359.82802443
 C      7   4   3     1.389020168681   150.99159071   177.18127533
 H      2   1   3     1.081388234889   119.58962760   179.85792220
 H      5   4   3     1.081232931549   119.28987387   178.51959851
 H      6   1   2     1.082034929816   120.90946931   180.70056306
 H     11   9   8     1.082037709438   119.40296353   180.09138810
 H     12  11   9     1.082034754747   120.90949901   180.70057814
 N      8   7   4     1.399087400035   119.28014771     0.82516201
 C      4   3   2     2.437193256880   149.88891787   181.77120612
 C     20   4   3     1.390259636566   121.52982484   263.03070959
 C     20   4   3     1.390258161897   109.73395034   114.80529937
 C     21  20   4     1.380804273849   120.04995115   214.94622907
 C     22  20   4     1.380804507352   120.04998619   148.54034738
 C     24  22  20     1.397604525583   119.65003956     0.22662946
 H     23  21  20     1.081422658219   120.50719091   179.90535085
 H     24  22  20     1.081423660558   120.50717629   179.90523910
 H     21  20   4     1.082357633216   119.51892884    35.14375982
 H     22  20   4     1.082357526602   119.51889894   328.73779117
 H      1   2   3     1.082038636891   119.40295129   180.09101198
 N      7   4   3     1.400484424352    29.29458168   179.51614872
 C     19   8   7     1.424844000072   119.25364948   179.44938198
 C     32  19   8     1.389737392128   119.76984942    97.61008869
 C     32  19   8     1.389737255222   119.76960670   277.61021009
 C     33  32  19     1.381070479477   120.00544431   179.92657139
 H     33  32  19     1.082379949939   119.51161552     0.07315459
 C     34  32  19     1.381070609189   120.00547459   179.92633308
 H     34  32  19     1.082380343398   119.51159954     0.07303207
 C     35  33  32     1.397464599107   119.61839480     0.14535250
 H     35  33  32     1.081411009031   120.53630055   179.94775172
 H     37  34  32     1.081410179418   120.53633329   179.94775704
 H     13   7   4     1.081233131730   119.28985272     0.64514699
 C     25  24  22     1.419676000344   119.88225483   179.88629418
 C     39  35  33     1.419986000114   119.85428299   179.92713229
 N     43  25  24     1.157103000274   179.99998153     0.00000000
 N     44  39  35     1.156995000085   179.99994788     0.00000000

---------------------------
INTERNAL COORDINATES (A.U.)
---------------------------
 C      0   0   0     0.000000000000     0.00000000     0.00000000
 C      1   0   0     2.631323581335     0.00000000     0.00000000
 C      2   1   0     2.625030742999   121.19452733     0.00000000
 C      3   2   1     2.662077660194   119.12155254   358.79464307
 C      4   3   2     2.624866805159   119.02395337     1.97253426
 C      1   2   3     2.605759789963   119.68677034   359.82756619
 C      4   3   2     4.616165453922    89.96800149   180.93880880
 C      7   4   3     2.662079009844    89.96783322   359.03974240
 C      8   7   4     2.625030412371   119.12152839   180.94182063
 H      9   8   7     2.043529825336   119.21568202   178.93657936
 C      9   8   7     2.631324647516   121.19462106   358.79436570
 C     11   9   8     2.605759587673   119.68669385   359.82802443
 C      7   4   3     2.624867713300   150.99159071   177.18127533
 H      2   1   3     2.043527608385   119.58962760   179.85792220
 H      5   4   3     2.043234127604   119.28987387   178.51959851
 H      6   1   2     2.044749684688   120.90946931   180.70056306
 H     11   9   8     2.044754937413   119.40296353   180.09138810
 H     12  11   9     2.044749353857   120.90949901   180.70057814
 N      8   7   4     2.643892023486   119.28014771     0.82516201
 C      4   3   2     4.605627790943   149.88891787   181.77120612
 C     20   4   3     2.627209968156   121.52982484   263.03070959
 C     20   4   3     2.627207181434   109.73395034   114.80529937
 C     21  20   4     2.609341922124   120.04995115   214.94622907
 C     22  20   4     2.609342363379   120.04998619   148.54034738
 C     24  22  20     2.641089796881   119.65003956     0.22662946
 H     23  21  20     2.043592659051   120.50719091   179.90535085
 H     24  22  20     2.043594553197   120.50717629   179.90523910
 H     21  20   4     2.045359505737   119.51892884    35.14375982
 H     22  20   4     2.045359304267   119.51889894   328.73779117
 H      1   2   3     2.044756690045   119.40295129   180.09101198
 N      7   4   3     2.646532016848    29.29458168   179.51614872
 C     19   8   7     2.692564943697   119.25364948   179.44938198
 C     32  19   8     2.626223069193   119.76984942    97.61008869
 C     32  19   8     2.626222810477   119.76960670   277.61021009
 C     33  32  19     2.609844977856   120.00544431   179.92657139
 H     33  32  19     2.045401678231   119.51161552     0.07315459
 C     34  32  19     2.609845222975   120.00547459   179.92633308
 H     34  32  19     2.045402421762   119.51159954     0.07303207
 C     35  33  32     2.640825374163   119.61839480     0.14535250
 H     35  33  32     2.043570645276   120.53630055   179.94775172
 H     37  34  32     2.043569077535   120.53633329   179.94775704
 H     13   7   4     2.043234505891   119.28985272     0.64514699
 C     25  24  22     2.682798839551   119.88225483   179.88629418
 C     39  35  33     2.683384654219   119.85428299   179.92713229
 N     43  25  24     2.186607779256   179.99998153     0.00000000
 N     44  39  35     2.186403688476   179.99994788     0.00000000

---------------------
BASIS SET INFORMATION
---------------------
There are 3 groups of distinct atoms

 Group   1 Type C   : 11s6p2d1f contracted to 5s3p2d1f pattern {62111/411/11/1}
 Group   2 Type H   : 5s1p contracted to 3s1p pattern {311/1}
 Group   3 Type N   : 11s6p2d1f contracted to 5s3p2d1f pattern {62111/411/11/1}

Atom   0C    basis set group =>   1
Atom   1C    basis set group =>   1
Atom   2C    basis set group =>   1
Atom   3C    basis set group =>   1
Atom   4C    basis set group =>   1
Atom   5C    basis set group =>   1
Atom   6C    basis set group =>   1
Atom   7C    basis set group =>   1
Atom   8C    basis set group =>   1
Atom   9H    basis set group =>   2
Atom  10C    basis set group =>   1
Atom  11C    basis set group =>   1
Atom  12C    basis set group =>   1
Atom  13H    basis set group =>   2
Atom  14H    basis set group =>   2
Atom  15H    basis set group =>   2
Atom  16H    basis set group =>   2
Atom  17H    basis set group =>   2
Atom  18N    basis set group =>   3
Atom  19C    basis set group =>   1
Atom  20C    basis set group =>   1
Atom  21C    basis set group =>   1
Atom  22C    basis set group =>   1
Atom  23C    basis set group =>   1
Atom  24C    basis set group =>   1
Atom  25H    basis set group =>   2
Atom  26H    basis set group =>   2
Atom  27H    basis set group =>   2
Atom  28H    basis set group =>   2
Atom  29H    basis set group =>   2
Atom  30N    basis set group =>   3
Atom  31C    basis set group =>   1
Atom  32C    basis set group =>   1
Atom  33C    basis set group =>   1
Atom  34C    basis set group =>   1
Atom  35H    basis set group =>   2
Atom  36C    basis set group =>   1
Atom  37H    basis set group =>   2
Atom  38C    basis set group =>   1
Atom  39H    basis set group =>   2
Atom  40H    basis set group =>   2
Atom  41H    basis set group =>   2
Atom  42C    basis set group =>   1
Atom  43C    basis set group =>   1
Atom  44N    basis set group =>   3
Atom  45N    basis set group =>   3
---------------------------------
AUXILIARY/J BASIS SET INFORMATION
---------------------------------
There are 3 groups of distinct atoms

 Group   1 Type C   : 12s5p4d2f1g contracted to 6s4p3d1f1g pattern {711111/2111/211/2/1}
 Group   2 Type H   : 5s2p1d contracted to 3s1p1d pattern {311/2/1}
 Group   3 Type N   : 12s5p4d2f1g contracted to 6s4p3d1f1g pattern {711111/2111/211/2/1}

Atom   0C    basis set group =>   1
Atom   1C    basis set group =>   1
Atom   2C    basis set group =>   1
Atom   3C    basis set group =>   1
Atom   4C    basis set group =>   1
Atom   5C    basis set group =>   1
Atom   6C    basis set group =>   1
Atom   7C    basis set group =>   1
Atom   8C    basis set group =>   1
Atom   9H    basis set group =>   2
Atom  10C    basis set group =>   1
Atom  11C    basis set group =>   1
Atom  12C    basis set group =>   1
Atom  13H    basis set group =>   2
Atom  14H    basis set group =>   2
Atom  15H    basis set group =>   2
Atom  16H    basis set group =>   2
Atom  17H    basis set group =>   2
Atom  18N    basis set group =>   3
Atom  19C    basis set group =>   1
Atom  20C    basis set group =>   1
Atom  21C    basis set group =>   1
Atom  22C    basis set group =>   1
Atom  23C    basis set group =>   1
Atom  24C    basis set group =>   1
Atom  25H    basis set group =>   2
Atom  26H    basis set group =>   2
Atom  27H    basis set group =>   2
Atom  28H    basis set group =>   2
Atom  29H    basis set group =>   2
Atom  30N    basis set group =>   3
Atom  31C    basis set group =>   1
Atom  32C    basis set group =>   1
Atom  33C    basis set group =>   1
Atom  34C    basis set group =>   1
Atom  35H    basis set group =>   2
Atom  36C    basis set group =>   1
Atom  37H    basis set group =>   2
Atom  38C    basis set group =>   1
Atom  39H    basis set group =>   2
Atom  40H    basis set group =>   2
Atom  41H    basis set group =>   2
Atom  42C    basis set group =>   1
Atom  43C    basis set group =>   1
Atom  44N    basis set group =>   3
Atom  45N    basis set group =>   3
---------------------------------
AUXILIARY/C BASIS SET INFORMATION
---------------------------------
There are 3 groups of distinct atoms

 Group   1 Type C   : 8s6p5d3f1g contracted to 8s6p4d3f1g pattern {11111111/111111/2111/111/1}
 Group   2 Type H   : 4s3p2d contracted to 4s2p1d pattern {1111/21/2}
 Group   3 Type N   : 8s6p5d3f1g contracted to 8s6p4d3f1g pattern {11111111/111111/2111/111/1}

Atom   0C    basis set group =>   1
Atom   1C    basis set group =>   1
Atom   2C    basis set group =>   1
Atom   3C    basis set group =>   1
Atom   4C    basis set group =>   1
Atom   5C    basis set group =>   1
Atom   6C    basis set group =>   1
Atom   7C    basis set group =>   1
Atom   8C    basis set group =>   1
Atom   9H    basis set group =>   2
Atom  10C    basis set group =>   1
Atom  11C    basis set group =>   1
Atom  12C    basis set group =>   1
Atom  13H    basis set group =>   2
Atom  14H    basis set group =>   2
Atom  15H    basis set group =>   2
Atom  16H    basis set group =>   2
Atom  17H    basis set group =>   2
Atom  18N    basis set group =>   3
Atom  19C    basis set group =>   1
Atom  20C    basis set group =>   1
Atom  21C    basis set group =>   1
Atom  22C    basis set group =>   1
Atom  23C    basis set group =>   1
Atom  24C    basis set group =>   1
Atom  25H    basis set group =>   2
Atom  26H    basis set group =>   2
Atom  27H    basis set group =>   2
Atom  28H    basis set group =>   2
Atom  29H    basis set group =>   2
Atom  30N    basis set group =>   3
Atom  31C    basis set group =>   1
Atom  32C    basis set group =>   1
Atom  33C    basis set group =>   1
Atom  34C    basis set group =>   1
Atom  35H    basis set group =>   2
Atom  36C    basis set group =>   1
Atom  37H    basis set group =>   2
Atom  38C    basis set group =>   1
Atom  39H    basis set group =>   2
Atom  40H    basis set group =>   2
Atom  41H    basis set group =>   2
Atom  42C    basis set group =>   1
Atom  43C    basis set group =>   1
Atom  44N    basis set group =>   3
Atom  45N    basis set group =>   3


           ************************************************************
           *        Program running with 4 parallel MPI-processes     *
           *              working on a common directory               *
           ************************************************************
------------------------------------------------------------------------------
                           ORCA GTO INTEGRAL CALCULATION
------------------------------------------------------------------------------
------------------------------------------------------------------------------
                   ___                                                        
                  /   \      - P O W E R E D   B Y -                         
                 /     \                                                     
                 |  |  |   _    _      __       _____    __    __             
                 |  |  |  | |  | |    /  \     |  _  \  |  |  /  |          
                  \  \/   | |  | |   /    \    | | | |  |  | /  /          
                 / \  \   | |__| |  /  /\  \   | |_| |  |  |/  /          
                |  |  |   |  __  | /  /__\  \  |    /   |      \           
                |  |  |   | |  | | |   __   |  |    \   |  |\   \          
                \     /   | |  | | |  |  |  |  | |\  \  |  | \   \       
                 \___/    |_|  |_| |__|  |__|  |_| \__\ |__|  \__/        
                                                                              
                      - O R C A' S   B I G   F R I E N D -                    
                                      &                                       
                       - I N T E G R A L  F E E D E R -                       
                                                                              
 v1 FN, 2020, v2 2021                                                         
------------------------------------------------------------------------------


Reading SHARK input file PA_3_STEOM-DLPNO-CCSD_DEF2-TZVP_RIJCOSX_SMD.SHARKINP.tmp ... ok
----------------------
SHARK INTEGRAL PACKAGE
----------------------

Number of atoms                             ...     46
Number of basis functions                   ...   1026
Number of shells                            ...    394
Maximum angular momentum                    ...      3
Integral batch strategy                     ... SHARK/LIBINT Hybrid
RI-J (if used) integral strategy            ... SPLIT-RIJ (Revised 2003 algorithm where possible)
Printlevel                                  ...      1
Contraction scheme used                     ... SEGMENTED contraction
Coulomb Range Separation                    ... NOT USED
Exchange Range Separation                   ... NOT USED
Finite Nucleus Model                        ... NOT USED
Auxiliary Coulomb fitting basis             ... AVAILABLE
   # of basis functions in Aux-J            ...   1646
   # of shells in Aux-J                     ...    530
   Maximum angular momentum in Aux-J        ...      4
Auxiliary J/K fitting basis                 ... NOT available
Auxiliary Correlation fitting basis         ... AVAILABLE
   # of basis functions in Aux-C            ...   2520
   # of shells in Aux-C                     ...    772
   Maximum angular momentum in Aux-C        ...      4
Auxiliary 'external' fitting basis          ... NOT available
Integral threshold                          ...     2.500000e-11
Primitive cut-off                           ...     2.500000e-12
Primitive pair pre-selection threshold      ...     2.500000e-12

Calculating pre-screening integrals         ... done (  0.1 sec) Dimension = 394
Organizing shell pair data                  ... done (  0.7 sec)
Shell pair information
Total number of shell pairs                 ...     77815
Shell pairs after pre-screening             ...     49816
Total number of primitive shell pairs       ...    243264
Primitive shell pairs kept                  ...    100564
          la=0 lb=0:  12056 shell pairs
          la=1 lb=0:  14258 shell pairs
          la=1 lb=1:   4188 shell pairs
          la=2 lb=0:   7238 shell pairs
          la=2 lb=1:   4312 shell pairs
          la=2 lb=2:   1117 shell pairs
          la=3 lb=0:   3330 shell pairs
          la=3 lb=1:   2032 shell pairs
          la=3 lb=2:   1034 shell pairs
          la=3 lb=3:    251 shell pairs

Calculating one electron integrals          ... done (  0.1 sec)
Calculating RI/J V-Matrix + Cholesky decomp.... done (  0.1 sec)
Calculating RI/C V-Matrix + Cholesky decomp.... done (  0.2 sec)
Calculating Nuclear repulsion               ... done (  0.0 sec) ENN=   2546.024177325277 Eh

SHARK setup successfully completed in   1.7 seconds

Maximum memory used throughout the entire GTOINT-calculation: 101.3 MB


           ************************************************************
           *        Program running with 4 parallel MPI-processes     *
           *              working on a common directory               *
           ************************************************************
-------------------------------------------------------------------------------
                                 ORCA SCF
-------------------------------------------------------------------------------

------------
SCF SETTINGS
------------
Hamiltonian:
 Ab initio Hamiltonian  Method          .... Hartree-Fock(GTOs)


General Settings:
 Integral files         IntName         .... PA_3_STEOM-DLPNO-CCSD_DEF2-TZVP_RIJCOSX_SMD
 Hartree-Fock type      HFTyp           .... RHF
 Total Charge           Charge          ....    0
 Multiplicity           Mult            ....    1
 Number of Electrons    NEL             ....  200
 Basis Dimension        Dim             .... 1026
 Nuclear Repulsion      ENuc            ....   2546.0241773253 Eh

Convergence Acceleration:
 DIIS                   CNVDIIS         .... on
   Start iteration      DIISMaxIt       ....    12
   Startup error        DIISStart       ....  0.200000
   # of expansion vecs  DIISMaxEq       ....     5
   Bias factor          DIISBfac        ....   1.050
   Max. coefficient     DIISMaxC        ....  10.000
 Trust-Rad. Augm. Hess. CNVTRAH         .... auto
   Auto Start mean grad. ratio tolernc. ....  1.125000
   Auto Start start iteration           ....    20
   Auto Start num. interpolation iter.  ....    10
   Max. Number of Micro iterations      ....    16
   Max. Number of Macro iterations      .... Maxiter - #DIIS iter
   Number of Davidson start vectors     ....     2
   Converg. threshold I  (grad. norm)   ....   1.000e-05
   Converg. threshold II (energy diff.) ....   1.000e-08
   Grad. Scal. Fac. for Micro threshold ....   0.100
   Minimum threshold for Micro iter.    ....   0.010
   NR start threshold (gradient norm)   ....   0.001
   Initial trust radius                 ....   0.400
   Minimum AH scaling param. (alpha)    ....   1.000
   Maximum AH scaling param. (alpha)    .... 1000.000
   Orbital update algorithm             .... Taylor
   White noise on init. David. guess    .... on
   Maximum white noise                  ....   0.010
   Quad. conv. algorithm                .... NR
 SOSCF                  CNVSOSCF        .... on
   Start iteration      SOSCFMaxIt      ....   150
   Startup grad/error   SOSCFStart      ....  0.003300
 Level Shifting         CNVShift        .... on
   Level shift para.    LevelShift      ....    0.2500
   Turn off err/grad.   ShiftErr        ....    0.0010
 Zerner damping         CNVZerner       .... off
 Static damping         CNVDamp         .... on
   Fraction old density DampFac         ....    0.7000
   Max. Damping (<1)    DampMax         ....    0.9800
   Min. Damping (>=0)   DampMin         ....    0.0000
   Turn off err/grad.   DampErr         ....    0.1000
 Fernandez-Rico         CNVRico         .... off

SCF Procedure:
 Maximum # iterations   MaxIter         ....   125
 SCF integral mode      SCFMode         .... Direct
   Integral package                     .... SHARK and LIBINT hybrid scheme
 Reset frequency        DirectResetFreq ....    20
 Integral Threshold     Thresh          ....  2.500e-11 Eh
 Primitive CutOff       TCut            ....  2.500e-12 Eh

Convergence Tolerance:
 Convergence Check Mode ConvCheckMode   .... Total+1el-Energy
 Convergence forced     ConvForced      .... 1
 Energy Change          TolE            ....  1.000e-08 Eh
 1-El. energy change                    ....  1.000e-05 Eh
 Orbital Gradient       TolG            ....  1.000e-05
 Orbital Rotation angle TolX            ....  1.000e-05
 DIIS Error             TolErr          ....  5.000e-07


Diagonalization of the overlap matrix:
Smallest eigenvalue                        ... 3.472e-06
Time for diagonalization                   ...    0.117 sec
Threshold for overlap eigenvalues          ... 1.000e-08
Number of eigenvalues below threshold      ... 0
Time for construction of square roots      ...    0.087 sec
Total time needed                          ...    0.207 sec

Time for model grid setup =    0.448 sec

------------------------------
INITIAL GUESS: MODEL POTENTIAL
------------------------------
Loading Hartree-Fock densities                     ... done
Calculating cut-offs                               ... done
Initializing the effective Hamiltonian             ... done
Setting up the integral package (SHARK)            ... done
Starting the Coulomb interaction                   ... done (   1.3 sec)
Reading the grid                                   ... done
Mapping shells                                     ... done
Starting the XC term evaluation                    ... done (   0.3 sec)
Transforming the Hamiltonian                       ... done (   0.1 sec)
Diagonalizing the Hamiltonian                      ... done (   0.1 sec)
Back transforming the eigenvectors                 ... done (   0.0 sec)
Now organizing SCF variables                       ... done
                      ------------------
                      INITIAL GUESS DONE (   2.3 sec)
                      ------------------

--------------------
CPCM SOLVATION MODEL
--------------------
CPCM parameters:
  Epsilon                                         ...      37.2190
  Refrac                                          ...       1.4305
  Rsolv                                           ...       1.3000
  Surface type                                    ... GAUSSIAN VDW
  Epsilon function type                           ...         CPCM
Solvent:                                     ... N,N-DIMETHYLFORMAMIDE
SMD-CDS solvent descriptors:
  Soln                                       ...    1.4305
  Soln25                                     ...    1.4280
  Sola                                       ...    0.0000
  Solb                                       ...    0.7400
  Solg                                       ...   49.5600
  Solc                                       ...    0.0000
  Solh                                       ...    0.0000
Radii:
 Radius for C  used is    3.4960 Bohr (=   1.8500 Ang.)
 Radius for H  used is    2.2677 Bohr (=   1.2000 Ang.)
 Radius for N  used is    3.5716 Bohr (=   1.8900 Ang.)
Calculating surface                               ...        done! (  0.0s)
GEPOL surface points                              ...         2568
GEPOL Volume                                      ...    2642.8648
GEPOL Surface-area                                ...    1434.6741
Calculating surface distance matrix               ...        done! (  0.0s)
Performing Cholesky decomposition & store         ...        done! (  0.1s)
Overall time for CPCM initialization              ...                 0.2s
--------------
SCF ITERATIONS
--------------
ITER       Energy         Delta-E        Max-DP      RMS-DP      [F,P]     Damp
               ***  Starting incremental Fock matrix formation  ***
  0  -1211.0388860188   0.000000000000 0.07627626  0.00066173  0.2639029 0.7000
  1  -1211.3991554226  -0.360269403811 0.06753470  0.00055014  0.1921237 0.7000
                               ***Turning on DIIS***
  2  -1211.6273932416  -0.228237818971 0.05213352  0.00040642  0.1409534 0.7000
  3  -1214.3577969654  -2.730403723831 0.04065287  0.00031030  0.1044294 0.7000
  4  -1214.2229346775   0.134862287900 0.10477004  0.00079364  0.0735955 0.0000
  5  -1212.2034177603   2.019516917152 0.00778987  0.00008730  0.0052158 0.0000
                      *** Initiating the SOSCF procedure ***
                           *** Shutting down DIIS ***
                      *** Re-Reading the Fockian *** 
                      *** Removing any level shift *** 
ITER      Energy       Delta-E        Grad      Rot      Max-DP    RMS-DP
  6  -1212.12429514   0.0791226242  0.003179  0.003179  0.003821  0.000041
               *** Restarting incremental Fock matrix formation ***
  7  -1212.12276253   0.0015326076  0.002410  0.006460  0.001718  0.000027
  8  -1212.12284603  -0.0000835052  0.000921  0.006526  0.002097  0.000029
  9  -1212.12287902  -0.0000329863  0.000260  0.000459  0.000883  0.000010
 10  -1212.12288278  -0.0000037638  0.000109  0.000412  0.000622  0.000006
 11  -1212.12288390  -0.0000011137  0.000051  0.000231  0.000097  0.000002
 12  -1212.12288409  -0.0000001966  0.000024  0.000064  0.000118  0.000001
 13  -1212.12288414  -0.0000000441  0.000009  0.000023  0.000071  0.000001
 14  -1212.12288415  -0.0000000079  0.000004  0.000015  0.000015  0.000000
                  ***Gradient check signals convergence***
              ***Rediagonalizing the Fockian in SOSCF/NRSCF***

               *****************************************************
               *                     SUCCESS                       *
               *           SCF CONVERGED AFTER  15 CYCLES          *
               *****************************************************


SMD CDS free energy correction energy :                -1.04225     Kcal/mol
Total Energy after SMD CDS correction =             -1212.124545088 Eh

----------------
TOTAL SCF ENERGY
----------------

Total Energy       :        -1212.12454509 Eh          -32983.58572 eV

Components:
Nuclear Repulsion  :         2546.02417733 Eh           69280.84003 eV
Electronic Energy  :        -3758.14872241 Eh         -102264.42576 eV
One Electron Energy:        -6703.39904869 Eh         -182408.76160 eV
Two Electron Energy:         2945.25032627 Eh           80144.33584 eV
CPCM Dielectric    :           -0.04354384 Eh              -1.18489 eV
SMD CDS (Gcds)     :           -0.00166093 Eh              -0.04520 eV

Virial components:
Potential Energy   :        -2423.13386718 Eh          -65936.82469 eV
Kinetic Energy     :         1211.00932209 Eh           32953.23896 eV
Virial Ratio       :            2.00092090

CPCM Solvation Model Properties:
Surface-charge          :           -0.06243452
Charge-correction       :            0.00060129 Eh               0.01636 eV
Free-energy (cav+disp)  :           -0.00166093 Eh              -0.04520 eV

---------------
SCF CONVERGENCE
---------------

  Last Energy change         ...   -7.3653e-09  Tolerance :   1.0000e-08
  Last MAX-Density change    ...    1.8487e-05  Tolerance :   1.0000e-07
  Last RMS-Density change    ...    2.6307e-07  Tolerance :   5.0000e-09
  Last Orbital Gradient      ...    1.7972e-06  Tolerance :   1.0000e-05
  Last Orbital Rotation      ...    8.3829e-06  Tolerance :   1.0000e-05

             **** THE GBW FILE WAS UPDATED (PA_3_STEOM-DLPNO-CCSD_DEF2-TZVP_RIJCOSX_SMD.gbw) ****
             **** DENSITY PA_3_STEOM-DLPNO-CCSD_DEF2-TZVP_RIJCOSX_SMD.scfp WAS UPDATED ****
             **** ENERGY FILE WAS UPDATED (PA_3_STEOM-DLPNO-CCSD_DEF2-TZVP_RIJCOSX_SMD.en.tmp) ****
             **** THE GBW FILE WAS UPDATED (PA_3_STEOM-DLPNO-CCSD_DEF2-TZVP_RIJCOSX_SMD.gbw) ****
             **** DENSITY PA_3_STEOM-DLPNO-CCSD_DEF2-TZVP_RIJCOSX_SMD.scfp WAS UPDATED ****
----------------
ORBITAL ENERGIES
----------------

  NO   OCC          E(Eh)            E(eV) 
   0   2.0000     -15.594419      -424.3457 
   1   2.0000     -15.593933      -424.3325 
   2   2.0000     -15.579825      -423.9486 
   3   2.0000     -15.579600      -423.9425 
   4   2.0000     -11.292341      -307.2802 
   5   2.0000     -11.292201      -307.2764 
   6   2.0000     -11.291519      -307.2578 
   7   2.0000     -11.291168      -307.2483 
   8   2.0000     -11.287317      -307.1435 
   9   2.0000     -11.287290      -307.1428 
  10   2.0000     -11.286177      -307.1125 
  11   2.0000     -11.286168      -307.1122 
  12   2.0000     -11.278899      -306.9144 
  13   2.0000     -11.278411      -306.9012 
  14   2.0000     -11.259247      -306.3797 
  15   2.0000     -11.259194      -306.3783 
  16   2.0000     -11.259071      -306.3749 
  17   2.0000     -11.259019      -306.3735 
  18   2.0000     -11.243884      -305.9616 
  19   2.0000     -11.243855      -305.9609 
  20   2.0000     -11.243655      -305.9554 
  21   2.0000     -11.243627      -305.9547 
  22   2.0000     -11.228235      -305.5358 
  23   2.0000     -11.228234      -305.5358 
  24   2.0000     -11.228145      -305.5334 
  25   2.0000     -11.228145      -305.5334 
  26   2.0000     -11.225086      -305.4501 
  27   2.0000     -11.225086      -305.4501 
  28   2.0000     -11.223791      -305.4149 
  29   2.0000     -11.223791      -305.4149 
  30   2.0000      -1.324654       -36.0457 
  31   2.0000      -1.276994       -34.7488 
  32   2.0000      -1.235481       -33.6191 
  33   2.0000      -1.235087       -33.6084 
  34   2.0000      -1.180264       -32.1166 
  35   2.0000      -1.170315       -31.8459 
  36   2.0000      -1.165621       -31.7181 
  37   2.0000      -1.127470       -30.6800 
  38   2.0000      -1.066238       -29.0138 
  39   2.0000      -1.047781       -28.5116 
  40   2.0000      -1.041345       -28.3364 
  41   2.0000      -1.040648       -28.3175 
  42   2.0000      -1.033980       -28.1360 
  43   2.0000      -1.029645       -28.0181 
  44   2.0000      -0.995271       -27.0827 
  45   2.0000      -0.966540       -26.3009 
  46   2.0000      -0.898855       -24.4591 
  47   2.0000      -0.880999       -23.9732 
  48   2.0000      -0.867938       -23.6178 
  49   2.0000      -0.856644       -23.3105 
  50   2.0000      -0.855304       -23.2740 
  51   2.0000      -0.822128       -22.3712 
  52   2.0000      -0.821583       -22.3564 
  53   2.0000      -0.773346       -21.0438 
  54   2.0000      -0.757997       -20.6261 
  55   2.0000      -0.757877       -20.6229 
  56   2.0000      -0.754114       -20.5205 
  57   2.0000      -0.723669       -19.6920 
  58   2.0000      -0.713593       -19.4179 
  59   2.0000      -0.680153       -18.5079 
  60   2.0000      -0.673259       -18.3203 
  61   2.0000      -0.672003       -18.2861 
  62   2.0000      -0.645686       -17.5700 
  63   2.0000      -0.641588       -17.4585 
  64   2.0000      -0.635484       -17.2924 
  65   2.0000      -0.626400       -17.0452 
  66   2.0000      -0.612819       -16.6757 
  67   2.0000      -0.609656       -16.5896 
  68   2.0000      -0.606748       -16.5105 
  69   2.0000      -0.606447       -16.5023 
  70   2.0000      -0.601230       -16.3603 
  71   2.0000      -0.600076       -16.3289 
  72   2.0000      -0.594181       -16.1685 
  73   2.0000      -0.587100       -15.9758 
  74   2.0000      -0.579260       -15.7625 
  75   2.0000      -0.555162       -15.1067 
  76   2.0000      -0.552516       -15.0347 
  77   2.0000      -0.551767       -15.0144 
  78   2.0000      -0.550304       -14.9745 
  79   2.0000      -0.537454       -14.6249 
  80   2.0000      -0.533480       -14.5167 
  81   2.0000      -0.521485       -14.1903 
  82   2.0000      -0.518265       -14.1027 
  83   2.0000      -0.510258       -13.8848 
  84   2.0000      -0.505555       -13.7569 
  85   2.0000      -0.490463       -13.3462 
  86   2.0000      -0.489458       -13.3188 
  87   2.0000      -0.484336       -13.1794 
  88   2.0000      -0.481758       -13.1093 
  89   2.0000      -0.477985       -13.0066 
  90   2.0000      -0.477314       -12.9884 
  91   2.0000      -0.449321       -12.2266 
  92   2.0000      -0.366128        -9.9629 
  93   2.0000      -0.359426        -9.7805 
  94   2.0000      -0.354149        -9.6369 
  95   2.0000      -0.353562        -9.6209 
  96   2.0000      -0.347568        -9.4578 
  97   2.0000      -0.344082        -9.3630 
  98   2.0000      -0.311675        -8.4811 
  99   2.0000      -0.243693        -6.6312 
 100   0.0000       0.071263         1.9392 
 101   0.0000       0.073072         1.9884 
 102   0.0000       0.098501         2.6803 
 103   0.0000       0.099627         2.7110 
 104   0.0000       0.125496         3.4149 
 105   0.0000       0.130234         3.5439 
 106   0.0000       0.137055         3.7295 
 107   0.0000       0.143366         3.9012 
 108   0.0000       0.147756         4.0206 
 109   0.0000       0.156755         4.2655 
 110   0.0000       0.169630         4.6159 
 111   0.0000       0.170332         4.6350 
 112   0.0000       0.176756         4.8098 
 113   0.0000       0.180891         4.9223 
 114   0.0000       0.183536         4.9943 
 115   0.0000       0.185153         5.0383 
 116   0.0000       0.186052         5.0627 
 117   0.0000       0.186172         5.0660 
 118   0.0000       0.191977         5.2239 
 119   0.0000       0.196394         5.3441 
 120   0.0000       0.199875         5.4389 
 121   0.0000       0.208267         5.6672 
 122   0.0000       0.213167         5.8006 
 123   0.0000       0.217304         5.9131 
 124   0.0000       0.221603         6.0301 
 125   0.0000       0.224746         6.1156 
 126   0.0000       0.227942         6.2026 
 127   0.0000       0.228270         6.2115 
 128   0.0000       0.234297         6.3755 
 129   0.0000       0.247567         6.7366 
 130   0.0000       0.248667         6.7666 
 131   0.0000       0.255824         6.9613 
 132   0.0000       0.272969         7.4279 
 133   0.0000       0.285373         7.7654 
 134   0.0000       0.287283         7.8174 
 135   0.0000       0.290540         7.9060 
 136   0.0000       0.292675         7.9641 
 137   0.0000       0.293638         7.9903 
 138   0.0000       0.295066         8.0292 
 139   0.0000       0.313856         8.5404 
 140   0.0000       0.314019         8.5449 
 141   0.0000       0.318982         8.6799 
 142   0.0000       0.319501         8.6941 
 143   0.0000       0.323805         8.8112 
 144   0.0000       0.329026         8.9533 
 145   0.0000       0.331009         9.0072 
 146   0.0000       0.338102         9.2002 
 147   0.0000       0.338191         9.2026 
 148   0.0000       0.345320         9.3966 
 149   0.0000       0.350253         9.5309 
 150   0.0000       0.350519         9.5381 
 151   0.0000       0.352847         9.6015 
 152   0.0000       0.357630         9.7316 
 153   0.0000       0.361564         9.8386 
 154   0.0000       0.374243        10.1837 
 155   0.0000       0.375691        10.2231 
 156   0.0000       0.379639        10.3305 
 157   0.0000       0.380578        10.3561 
 158   0.0000       0.382593        10.4109 
 159   0.0000       0.383775        10.4431 
 160   0.0000       0.387688        10.5495 
 161   0.0000       0.388988        10.5849 
 162   0.0000       0.397906        10.8276 
 163   0.0000       0.406470        11.0606 
 164   0.0000       0.410548        11.1716 
 165   0.0000       0.411672        11.2022 
 166   0.0000       0.415437        11.3046 
 167   0.0000       0.418163        11.3788 
 168   0.0000       0.424608        11.5542 
 169   0.0000       0.427171        11.6239 
 170   0.0000       0.428124        11.6498 
 171   0.0000       0.429164        11.6781 
 172   0.0000       0.429753        11.6942 
 173   0.0000       0.437251        11.8982 
 174   0.0000       0.437756        11.9119 
 175   0.0000       0.439879        11.9697 
 176   0.0000       0.445891        12.1333 
 177   0.0000       0.457689        12.4543 
 178   0.0000       0.459712        12.5094 
 179   0.0000       0.470673        12.8077 
 180   0.0000       0.470995        12.8164 
 181   0.0000       0.475363        12.9353 
 182   0.0000       0.479325        13.0431 
 183   0.0000       0.483477        13.1561 
 184   0.0000       0.484657        13.1882 
 185   0.0000       0.494931        13.4678 
 186   0.0000       0.495736        13.4897 
 187   0.0000       0.504414        13.7258 
 188   0.0000       0.508027        13.8241 
 189   0.0000       0.512464        13.9448 
 190   0.0000       0.513465        13.9721 
 191   0.0000       0.516310        14.0495 
 192   0.0000       0.516400        14.0520 
 193   0.0000       0.522208        14.2100 
 194   0.0000       0.529858        14.4182 
 195   0.0000       0.530261        14.4291 
 196   0.0000       0.533519        14.5178 
 197   0.0000       0.541767        14.7422 
 198   0.0000       0.542243        14.7552 
 199   0.0000       0.544174        14.8077 
 200   0.0000       0.552630        15.0378 
 201   0.0000       0.556913        15.1544 
 202   0.0000       0.558075        15.1860 
 203   0.0000       0.560890        15.2626 
 204   0.0000       0.562947        15.3186 
 205   0.0000       0.563207        15.3256 
 206   0.0000       0.566525        15.4159 
 207   0.0000       0.572537        15.5795 
 208   0.0000       0.573685        15.6108 
 209   0.0000       0.573937        15.6176 
 210   0.0000       0.576790        15.6953 
 211   0.0000       0.579265        15.7626 
 212   0.0000       0.579395        15.7661 
 213   0.0000       0.586559        15.9611 
 214   0.0000       0.588603        16.0167 
 215   0.0000       0.602130        16.3848 
 216   0.0000       0.603091        16.4109 
 217   0.0000       0.606669        16.5083 
 218   0.0000       0.611703        16.6453 
 219   0.0000       0.612155        16.6576 
 220   0.0000       0.614811        16.7299 
 221   0.0000       0.617593        16.8056 
 222   0.0000       0.626340        17.0436 
 223   0.0000       0.634047        17.2533 
 224   0.0000       0.634478        17.2650 
 225   0.0000       0.637318        17.3423 
 226   0.0000       0.641813        17.4646 
 227   0.0000       0.643587        17.5129 
 228   0.0000       0.649183        17.6652 
 229   0.0000       0.651938        17.7401 
 230   0.0000       0.655981        17.8501 
 231   0.0000       0.656052        17.8521 
 232   0.0000       0.658595        17.9213 
 233   0.0000       0.667117        18.1532 
 234   0.0000       0.668306        18.1855 
 235   0.0000       0.671416        18.2702 
 236   0.0000       0.673218        18.3192 
 237   0.0000       0.677493        18.4355 
 238   0.0000       0.679653        18.4943 
 239   0.0000       0.690772        18.7969 
 240   0.0000       0.694446        18.8968 
 241   0.0000       0.703665        19.1477 
 242   0.0000       0.704453        19.1691 
 243   0.0000       0.708837        19.2884 
 244   0.0000       0.711164        19.3518 
 245   0.0000       0.730929        19.8896 
 246   0.0000       0.734324        19.9820 
 247   0.0000       0.740619        20.1533 
 248   0.0000       0.742742        20.2110 
 249   0.0000       0.748111        20.3571 
 250   0.0000       0.756878        20.5957 
 251   0.0000       0.759902        20.6780 
 252   0.0000       0.767715        20.8906 
 253   0.0000       0.771075        20.9820 
 254   0.0000       0.771728        20.9998 
 255   0.0000       0.775025        21.0895 
 256   0.0000       0.777643        21.1607 
 257   0.0000       0.785292        21.3689 
 258   0.0000       0.794298        21.6139 
 259   0.0000       0.794737        21.6259 
 260   0.0000       0.797650        21.7052 
 261   0.0000       0.813333        22.1319 
 262   0.0000       0.815886        22.2014 
 263   0.0000       0.821857        22.3639 
 264   0.0000       0.826671        22.4949 
 265   0.0000       0.826849        22.4997 
 266   0.0000       0.829024        22.5589 
 267   0.0000       0.831332        22.6217 
 268   0.0000       0.835266        22.7287 
 269   0.0000       0.837751        22.7964 
 270   0.0000       0.854867        23.2621 
 271   0.0000       0.855012        23.2660 
 272   0.0000       0.860971        23.4282 
 273   0.0000       0.865053        23.5393 
 274   0.0000       0.879202        23.9243 
 275   0.0000       0.883677        24.0461 
 276   0.0000       0.886576        24.1250 
 277   0.0000       0.894423        24.3385 
 278   0.0000       0.895296        24.3622 
 279   0.0000       0.895644        24.3717 
 280   0.0000       0.899341        24.4723 
 281   0.0000       0.905784        24.6476 
 282   0.0000       0.914153        24.8754 
 283   0.0000       0.914810        24.8933 
 284   0.0000       0.926788        25.2192 
 285   0.0000       0.928746        25.2725 
 286   0.0000       0.929633        25.2966 
 287   0.0000       0.932806        25.3830 
 288   0.0000       0.936039        25.4709 
 289   0.0000       0.937702        25.5162 
 290   0.0000       0.944515        25.7016 
 291   0.0000       0.948875        25.8202 
 292   0.0000       0.958061        26.0702 
 293   0.0000       0.959865        26.1193 
 294   0.0000       0.960813        26.1451 
 295   0.0000       0.967000        26.3134 
 296   0.0000       0.968064        26.3423 
 297   0.0000       0.970497        26.4086 
 298   0.0000       0.973237        26.4831 
 299   0.0000       0.975853        26.5543 
 300   0.0000       0.985995        26.8303 
 301   0.0000       0.992093        26.9962 
 302   0.0000       0.996460        27.1150 
 303   0.0000       1.006658        27.3926 
 304   0.0000       1.013603        27.5815 
 305   0.0000       1.014274        27.5998 
 306   0.0000       1.017531        27.6884 
 307   0.0000       1.023745        27.8575 
 308   0.0000       1.026704        27.9380 
 309   0.0000       1.028548        27.9882 
 310   0.0000       1.048024        28.5182 
 311   0.0000       1.057996        28.7895 
 312   0.0000       1.062616        28.9152 
 313   0.0000       1.066128        29.0108 
 314   0.0000       1.069743        29.1092 
 315   0.0000       1.069822        29.1113 
 316   0.0000       1.075332        29.2613 
 317   0.0000       1.080432        29.4001 
 318   0.0000       1.088137        29.6097 
 319   0.0000       1.089190        29.6384 
 320   0.0000       1.092496        29.7283 
 321   0.0000       1.097884        29.8749 
 322   0.0000       1.102628        30.0040 
 323   0.0000       1.107668        30.1412 
 324   0.0000       1.115383        30.3511 
 325   0.0000       1.119821        30.4719 
 326   0.0000       1.121898        30.5284 
 327   0.0000       1.134118        30.8609 
 328   0.0000       1.142868        31.0990 
 329   0.0000       1.149258        31.2729 
 330   0.0000       1.156516        31.4704 
 331   0.0000       1.157783        31.5049 
 332   0.0000       1.159776        31.5591 
 333   0.0000       1.170206        31.8429 
 334   0.0000       1.179919        32.1072 
 335   0.0000       1.181938        32.1622 
 336   0.0000       1.200324        32.6625 
 337   0.0000       1.211360        32.9628 
 338   0.0000       1.218902        33.1680 
 339   0.0000       1.222622        33.2692 
 340   0.0000       1.224529        33.3211 
 341   0.0000       1.245699        33.8972 
 342   0.0000       1.251414        34.0527 
 343   0.0000       1.253740        34.1160 
 344   0.0000       1.267110        34.4798 
 345   0.0000       1.273644        34.6576 
 346   0.0000       1.283865        34.9357 
 347   0.0000       1.287702        35.0401 
 348   0.0000       1.291608        35.1464 
 349   0.0000       1.292670        35.1753 
 350   0.0000       1.302499        35.4428 
 351   0.0000       1.304025        35.4843 
 352   0.0000       1.305423        35.5224 
 353   0.0000       1.317191        35.8426 
 354   0.0000       1.324358        36.0376 
 355   0.0000       1.327087        36.1119 
 356   0.0000       1.334386        36.3105 
 357   0.0000       1.334531        36.3144 
 358   0.0000       1.355417        36.8828 
 359   0.0000       1.360596        37.0237 
 360   0.0000       1.363647        37.1067 
 361   0.0000       1.378758        37.5179 
 362   0.0000       1.380537        37.5663 
 363   0.0000       1.387767        37.7631 
 364   0.0000       1.390445        37.8359 
 365   0.0000       1.399106        38.0716 
 366   0.0000       1.406110        38.2622 
 367   0.0000       1.409127        38.3443 
 368   0.0000       1.412682        38.4410 
 369   0.0000       1.422637        38.7119 
 370   0.0000       1.428445        38.8700 
 371   0.0000       1.434752        39.0416 
 372   0.0000       1.442185        39.2439 
 373   0.0000       1.450796        39.4782 
 374   0.0000       1.452652        39.5287 
 375   0.0000       1.460603        39.7450 
 376   0.0000       1.461945        39.7815 
 377   0.0000       1.464265        39.8447 
 378   0.0000       1.470303        40.0090 
 379   0.0000       1.471876        40.0518 
 380   0.0000       1.482846        40.3503 
 381   0.0000       1.485658        40.4268 
 382   0.0000       1.492678        40.6178 
 383   0.0000       1.501925        40.8695 
 384   0.0000       1.502148        40.8755 
 385   0.0000       1.504345        40.9353 
 386   0.0000       1.504582        40.9418 
 387   0.0000       1.507775        41.0286 
 388   0.0000       1.514882        41.2220 
 389   0.0000       1.524491        41.4835 
 390   0.0000       1.527573        41.5674 
 391   0.0000       1.537793        41.8455 
 392   0.0000       1.547024        42.0967 
 393   0.0000       1.561789        42.4985 
 394   0.0000       1.563575        42.5470 
 395   0.0000       1.570039        42.7229 
 396   0.0000       1.579786        42.9882 
 397   0.0000       1.586144        43.1612 
 398   0.0000       1.589518        43.2530 
 399   0.0000       1.594032        43.3758 
 400   0.0000       1.603482        43.6330 
 401   0.0000       1.607908        43.7534 
 402   0.0000       1.611014        43.8379 
 403   0.0000       1.615799        43.9681 
 404   0.0000       1.617280        44.0084 
 405   0.0000       1.626836        44.2685 
 406   0.0000       1.628885        44.3242 
 407   0.0000       1.631096        44.3844 
 408   0.0000       1.650113        44.9018 
 409   0.0000       1.659608        45.1602 
 410   0.0000       1.672815        45.5196 
 411   0.0000       1.675675        45.5974 
 412   0.0000       1.690730        46.0071 
 413   0.0000       1.698473        46.2178 
 414   0.0000       1.700184        46.2644 
 415   0.0000       1.704193        46.3734 
 416   0.0000       1.720297        46.8117 
 417   0.0000       1.729380        47.0588 
 418   0.0000       1.735669        47.2299 
 419   0.0000       1.740345        47.3572 
 420   0.0000       1.751971        47.6736 
 421   0.0000       1.757659        47.8283 
 422   0.0000       1.762492        47.9598 
 423   0.0000       1.763650        47.9914 
 424   0.0000       1.767101        48.0853 
 425   0.0000       1.770502        48.1778 
 426   0.0000       1.774519        48.2871 
 427   0.0000       1.781762        48.4842 
 428   0.0000       1.798239        48.9326 
 429   0.0000       1.799999        48.9805 
 430   0.0000       1.809172        49.2301 
 431   0.0000       1.809710        49.2447 
 432   0.0000       1.811721        49.2994 
 433   0.0000       1.814821        49.3838 
 434   0.0000       1.815494        49.4021 
 435   0.0000       1.819813        49.5196 
 436   0.0000       1.839712        50.0611 
 437   0.0000       1.845905        50.2296 
 438   0.0000       1.848384        50.2971 
 439   0.0000       1.851335        50.3774 
 440   0.0000       1.854317        50.4585 
 441   0.0000       1.856789        50.5258 
 442   0.0000       1.856892        50.5286 
 443   0.0000       1.862978        50.6942 
 444   0.0000       1.868782        50.8521 
 445   0.0000       1.873875        50.9907 
 446   0.0000       1.882937        51.2373 
 447   0.0000       1.885728        51.3133 
 448   0.0000       1.888901        51.3996 
 449   0.0000       1.890213        51.4353 
 450   0.0000       1.892440        51.4959 
 451   0.0000       1.898508        51.6610 
 452   0.0000       1.902960        51.7822 
 453   0.0000       1.906170        51.8695 
 454   0.0000       1.920368        52.2559 
 455   0.0000       1.924236        52.3611 
 456   0.0000       1.928219        52.4695 
 457   0.0000       1.940355        52.7997 
 458   0.0000       1.951125        53.0928 
 459   0.0000       1.956967        53.2518 
 460   0.0000       1.960689        53.3531 
 461   0.0000       1.961584        53.3774 
 462   0.0000       1.968386        53.5625 
 463   0.0000       1.978549        53.8390 
 464   0.0000       1.991075        54.1799 
 465   0.0000       1.997256        54.3481 
 466   0.0000       2.006792        54.6076 
 467   0.0000       2.020507        54.9808 
 468   0.0000       2.021757        55.0148 
 469   0.0000       2.024504        55.0895 
 470   0.0000       2.026243        55.1369 
 471   0.0000       2.032921        55.3186 
 472   0.0000       2.040962        55.5374 
 473   0.0000       2.047524        55.7160 
 474   0.0000       2.061120        56.0859 
 475   0.0000       2.067833        56.2686 
 476   0.0000       2.071130        56.3583 
 477   0.0000       2.074445        56.4485 
 478   0.0000       2.074727        56.4562 
 479   0.0000       2.077038        56.5191 
 480   0.0000       2.091607        56.9155 
 481   0.0000       2.106782        57.3284 
 482   0.0000       2.115987        57.5789 
 483   0.0000       2.127362        57.8885 
 484   0.0000       2.129401        57.9439 
 485   0.0000       2.145573        58.3840 
 486   0.0000       2.154073        58.6153 
 487   0.0000       2.156381        58.6781 
 488   0.0000       2.157274        58.7024 
 489   0.0000       2.167106        58.9699 
 490   0.0000       2.170902        59.0733 
 491   0.0000       2.175514        59.1987 
 492   0.0000       2.177756        59.2597 
 493   0.0000       2.187832        59.5339 
 494   0.0000       2.193881        59.6985 
 495   0.0000       2.196818        59.7785 
 496   0.0000       2.196829        59.7787 
 497   0.0000       2.200060        59.8667 
 498   0.0000       2.202966        59.9458 
 499   0.0000       2.207777        60.0767 
 500   0.0000       2.213640        60.2362 
 501   0.0000       2.220004        60.4094 
 502   0.0000       2.236037        60.8457 
 503   0.0000       2.254564        61.3498 
 504   0.0000       2.256320        61.3976 
 505   0.0000       2.259432        61.4823 
 506   0.0000       2.267537        61.7028 
 507   0.0000       2.270672        61.7881 
 508   0.0000       2.295369        62.4602 
 509   0.0000       2.295876        62.4740 
 510   0.0000       2.297360        62.5143 
 511   0.0000       2.315350        63.0039 
 512   0.0000       2.318681        63.0945 
 513   0.0000       2.321234        63.1640 
 514   0.0000       2.339969        63.6738 
 515   0.0000       2.346857        63.8612 
 516   0.0000       2.350759        63.9674 
 517   0.0000       2.365483        64.3681 
 518   0.0000       2.377156        64.6857 
 519   0.0000       2.379765        64.7567 
 520   0.0000       2.380863        64.7866 
 521   0.0000       2.419145        65.8283 
 522   0.0000       2.424101        65.9631 
 523   0.0000       2.430989        66.1506 
 524   0.0000       2.435640        66.2771 
 525   0.0000       2.457372        66.8685 
 526   0.0000       2.458992        66.9126 
 527   0.0000       2.461129        66.9707 
 528   0.0000       2.468854        67.1809 
 529   0.0000       2.473326        67.3026 
 530   0.0000       2.488766        67.7228 
 531   0.0000       2.497977        67.9734 
 532   0.0000       2.500392        68.0391 
 533   0.0000       2.501648        68.0733 
 534   0.0000       2.507694        68.2378 
 535   0.0000       2.515525        68.4509 
 536   0.0000       2.527350        68.7727 
 537   0.0000       2.532342        68.9085 
 538   0.0000       2.532688        68.9179 
 539   0.0000       2.560938        69.6867 
 540   0.0000       2.561807        69.7103 
 541   0.0000       2.566696        69.8434 
 542   0.0000       2.569330        69.9150 
 543   0.0000       2.586715        70.3881 
 544   0.0000       2.587081        70.3980 
 545   0.0000       2.597918        70.6929 
 546   0.0000       2.608347        70.9767 
 547   0.0000       2.609048        70.9958 
 548   0.0000       2.612021        71.0767 
 549   0.0000       2.613844        71.1263 
 550   0.0000       2.620501        71.3074 
 551   0.0000       2.626828        71.4796 
 552   0.0000       2.631595        71.6093 
 553   0.0000       2.638130        71.7872 
 554   0.0000       2.658000        72.3279 
 555   0.0000       2.658429        72.3395 
 556   0.0000       2.680165        72.9310 
 557   0.0000       2.681960        72.9799 
 558   0.0000       2.712585        73.8132 
 559   0.0000       2.730922        74.3122 
 560   0.0000       2.736350        74.4599 
 561   0.0000       2.742792        74.6352 
 562   0.0000       2.764270        75.2196 
 563   0.0000       2.766618        75.2835 
 564   0.0000       2.779261        75.6275 
 565   0.0000       2.791052        75.9484 
 566   0.0000       2.792949        76.0000 
 567   0.0000       2.799620        76.1815 
 568   0.0000       2.804501        76.3144 
 569   0.0000       2.807092        76.3848 
 570   0.0000       2.812368        76.5284 
 571   0.0000       2.814463        76.5854 
 572   0.0000       2.816866        76.6508 
 573   0.0000       2.835474        77.1572 
 574   0.0000       2.841854        77.3308 
 575   0.0000       2.843557        77.3771 
 576   0.0000       2.844792        77.4107 
 577   0.0000       2.856122        77.7190 
 578   0.0000       2.870573        78.1123 
 579   0.0000       2.877880        78.3111 
 580   0.0000       2.890150        78.6450 
 581   0.0000       2.895851        78.8001 
 582   0.0000       2.896351        78.8137 
 583   0.0000       2.902134        78.9711 
 584   0.0000       2.913341        79.2760 
 585   0.0000       2.915526        79.3355 
 586   0.0000       2.918203        79.4083 
 587   0.0000       2.918923        79.4279 
 588   0.0000       2.927108        79.6507 
 589   0.0000       2.935772        79.8864 
 590   0.0000       2.940797        80.0232 
 591   0.0000       2.943584        80.0990 
 592   0.0000       2.945966        80.1638 
 593   0.0000       2.949825        80.2688 
 594   0.0000       2.958921        80.5163 
 595   0.0000       2.967268        80.7435 
 596   0.0000       2.967379        80.7465 
 597   0.0000       2.972347        80.8817 
 598   0.0000       2.973667        80.9176 
 599   0.0000       2.989178        81.3397 
 600   0.0000       2.993383        81.4541 
 601   0.0000       2.997518        81.5666 
 602   0.0000       2.999539        81.6216 
 603   0.0000       3.010893        81.9306 
 604   0.0000       3.016066        82.0713 
 605   0.0000       3.016467        82.0823 
 606   0.0000       3.019522        82.1654 
 607   0.0000       3.022833        82.2555 
 608   0.0000       3.028104        82.3989 
 609   0.0000       3.031017        82.4782 
 610   0.0000       3.034194        82.5646 
 611   0.0000       3.039106        82.6983 
 612   0.0000       3.046444        82.8980 
 613   0.0000       3.053075        83.0784 
 614   0.0000       3.054298        83.1117 
 615   0.0000       3.054604        83.1200 
 616   0.0000       3.058792        83.2339 
 617   0.0000       3.063851        83.3716 
 618   0.0000       3.072231        83.5997 
 619   0.0000       3.073572        83.6361 
 620   0.0000       3.073794        83.6422 
 621   0.0000       3.076383        83.7126 
 622   0.0000       3.089492        84.0693 
 623   0.0000       3.091072        84.1123 
 624   0.0000       3.094817        84.2142 
 625   0.0000       3.098592        84.3170 
 626   0.0000       3.102832        84.4324 
 627   0.0000       3.105714        84.5108 
 628   0.0000       3.107793        84.5673 
 629   0.0000       3.109055        84.6017 
 630   0.0000       3.120321        84.9082 
 631   0.0000       3.121400        84.9376 
 632   0.0000       3.128192        85.1224 
 633   0.0000       3.136911        85.3597 
 634   0.0000       3.141032        85.4718 
 635   0.0000       3.143780        85.5466 
 636   0.0000       3.152571        85.7858 
 637   0.0000       3.158687        85.9522 
 638   0.0000       3.161001        86.0152 
 639   0.0000       3.167774        86.1995 
 640   0.0000       3.171954        86.3132 
 641   0.0000       3.173826        86.3642 
 642   0.0000       3.182967        86.6129 
 643   0.0000       3.188285        86.7576 
 644   0.0000       3.197364        87.0047 
 645   0.0000       3.201348        87.1131 
 646   0.0000       3.201529        87.1180 
 647   0.0000       3.202742        87.1510 
 648   0.0000       3.210103        87.3513 
 649   0.0000       3.216520        87.5260 
 650   0.0000       3.218112        87.5693 
 651   0.0000       3.227594        87.8273 
 652   0.0000       3.230022        87.8934 
 653   0.0000       3.231290        87.9279 
 654   0.0000       3.239877        88.1615 
 655   0.0000       3.243409        88.2577 
 656   0.0000       3.243858        88.2699 
 657   0.0000       3.264489        88.8313 
 658   0.0000       3.271522        89.0226 
 659   0.0000       3.272274        89.0431 
 660   0.0000       3.275521        89.1315 
 661   0.0000       3.290275        89.5329 
 662   0.0000       3.299607        89.7869 
 663   0.0000       3.316114        90.2360 
 664   0.0000       3.319670        90.3328 
 665   0.0000       3.327873        90.5560 
 666   0.0000       3.332891        90.6926 
 667   0.0000       3.341176        90.9180 
 668   0.0000       3.347698        91.0955 
 669   0.0000       3.348905        91.1283 
 670   0.0000       3.355136        91.2979 
 671   0.0000       3.361604        91.4739 
 672   0.0000       3.367206        91.6263 
 673   0.0000       3.374320        91.8199 
 674   0.0000       3.379087        91.9496 
 675   0.0000       3.382778        92.0501 
 676   0.0000       3.384675        92.1017 
 677   0.0000       3.386365        92.1477 
 678   0.0000       3.388972        92.2186 
 679   0.0000       3.396897        92.4343 
 680   0.0000       3.398968        92.4906 
 681   0.0000       3.400680        92.5372 
 682   0.0000       3.415564        92.9422 
 683   0.0000       3.422059        93.1190 
 684   0.0000       3.423033        93.1455 
 685   0.0000       3.429456        93.3202 
 686   0.0000       3.432608        93.4060 
 687   0.0000       3.440585        93.6231 
 688   0.0000       3.442360        93.6714 
 689   0.0000       3.443957        93.7148 
 690   0.0000       3.449324        93.8609 
 691   0.0000       3.451031        93.9073 
 692   0.0000       3.459105        94.1270 
 693   0.0000       3.462029        94.2066 
 694   0.0000       3.464858        94.2836 
 695   0.0000       3.465618        94.3043 
 696   0.0000       3.468406        94.3801 
 697   0.0000       3.471633        94.4679 
 698   0.0000       3.482444        94.7621 
 699   0.0000       3.483597        94.7935 
 700   0.0000       3.490758        94.9883 
 701   0.0000       3.494566        95.0920 
 702   0.0000       3.498666        95.2035 
 703   0.0000       3.506439        95.4151 
 704   0.0000       3.515369        95.6581 
 705   0.0000       3.520184        95.7891 
 706   0.0000       3.520607        95.8006 
 707   0.0000       3.527358        95.9843 
 708   0.0000       3.528243        96.0084 
 709   0.0000       3.532769        96.1315 
 710   0.0000       3.535187        96.1973 
 711   0.0000       3.539930        96.3264 
 712   0.0000       3.562233        96.9333 
 713   0.0000       3.562301        96.9351 
 714   0.0000       3.564947        97.0071 
 715   0.0000       3.571648        97.1895 
 716   0.0000       3.573748        97.2466 
 717   0.0000       3.578593        97.3785 
 718   0.0000       3.584649        97.5433 
[...]
   0.102666    96 -> 106
   0.883344    99 -> 111
   0.217128    99 -> 116
   0.236578    99 -> 119
  Ground state amplitude:  0.009664

Percentage Active Character     82.28

Warning:: the state may have not converged with respect to active space 
-------------------- Handle with Care -------------------- 

  Amplitude    Excitation in Canonical Basis
  -0.122706    91 -> 114
  -0.100898    96 -> 106
  -0.913013    99 -> 114
   0.207294    99 -> 124
  -0.121736    99 -> 137

IROOT= 24:  0.299457 au     8.149 eV   65723.2 cm**-1
  Amplitude    Excitation
  -0.302607    81 -> 100
   0.175792    81 -> 101
   0.125670    90 -> 101
   0.492280    91 -> 100
  -0.338554    91 -> 101
   0.208355    91 -> 112
   0.230774    91 -> 113
  -0.519008    94 -> 105
  Ground state amplitude: -0.001128

Percentage Active Character     80.56

Warning:: the state may have not converged with respect to active space 
-------------------- Handle with Care -------------------- 

  Amplitude    Excitation in Canonical Basis
  -0.102684    79 -> 100
   0.115341    79 -> 101
  -0.398285    81 -> 100
   0.233401    81 -> 101
   0.125783    86 -> 101
  -0.101818    88 -> 101
  -0.348123    89 -> 100
   0.188085    89 -> 101
  -0.107488    89 -> 125
  -0.200564    90 -> 100
   0.219043    90 -> 101
  -0.107286    90 -> 122
   0.518931    94 -> 105

IROOT= 25:  0.302394 au     8.229 eV   66367.9 cm**-1
  Amplitude    Excitation
  -0.242013    81 -> 100
  -0.260518    81 -> 101
   0.333723    90 -> 100
   0.374572    90 -> 101
   0.232412    90 -> 112
  -0.174136    90 -> 113
   0.257592    91 -> 100
   0.281440    91 -> 101
   0.131134    91 -> 112
   0.347423    96 -> 107
   0.183643    96 -> 110
  -0.142635    99 -> 127
  Ground state amplitude: -0.001230

Percentage Active Character     74.71

Warning:: the state may have not converged with respect to active space 
-------------------- Handle with Care -------------------- 

  Amplitude    Excitation in Canonical Basis
  -0.322679    81 -> 100
  -0.347438    81 -> 101
   0.114377    86 -> 101
  -0.100468    88 -> 100
  -0.112828    88 -> 101
  -0.327652    89 -> 100
  -0.361069    89 -> 101
   0.132894    89 -> 122
  -0.112233    89 -> 125
  -0.109170    89 -> 130
   0.109713    90 -> 100
   0.122452    90 -> 101
  -0.267282    96 -> 107
   0.276546    96 -> 109
   0.100144    99 -> 112
   0.104538    99 -> 127
   0.146405    99 -> 130



-------------------
CPCM SOLVENT SHIFT
-------------------

Reading the CPCM data                  ... done
Making difference densities            ... done
Computing the potentials               ... done
Calculating charges                    ... done

---------------------------------
     CALCULATED SOLVENT SHIFTS   
            CPCM  MODEL          
---------------------------------

Contributions of the 'fast' term to the solvent shift

 State Shift(Eh) Shift(eV) Shift(cm**-1) Shift(nm) Esteom(eV)  Esteom+SHIFT(eV)
-------------------------------------------------------------------------------
   0: -0.0115650 -0.315    -2538.2       44.3      3.130          2.815
   1: -0.0009810 -0.027     -215.3        3.3      3.166          3.139
   2: -0.0136989 -0.373    -3006.6       51.2      3.198          2.825
   3: -0.0016015 -0.044     -351.5        4.6      3.464          3.421
   4: -0.0005418 -0.015     -118.9        1.2      3.919          3.904
   5: -0.0097094 -0.264    -2131.0       19.9      4.191          3.927
   6: -0.0086832 -0.236    -1905.8       16.8      4.298          4.062
   7: -0.0002154 -0.006      -47.3        0.3      4.625          4.619
   8: -0.0001538 -0.004      -33.7        0.2      4.633          4.628
   9: -0.0004013 -0.011      -88.1        0.6      4.649          4.639
  10: -0.0020163 -0.055     -442.5        2.6      5.161          5.106
  11: -0.0089322 -0.243    -1960.4       11.4      5.269          5.026
  12: -0.0094397 -0.257    -2071.8       12.1      5.270          5.013
  13: -0.0125288 -0.341    -2749.7       15.8      5.347          5.006
  14: -0.0003264 -0.009      -71.6        0.4      5.355          5.347
  15: -0.0022781 -0.062     -500.0        2.3      5.792          5.730
  16: -0.0002763 -0.008      -60.6        0.3      5.800          5.793
  17: -0.0003005 -0.008      -66.0        0.3      5.826          5.818
  18: -0.0096571 -0.263    -2119.5        9.5      6.001          5.739
  19: -0.0096331 -0.262    -2114.2        9.4      6.002          5.740
  20: -0.0001192 -0.003      -26.2        0.1      6.206          6.203
  21: -0.0142017 -0.386    -3116.9       13.2      6.224          5.837
  22: -0.0062223 -0.169    -1365.6        4.6      6.863          6.693
  23: -0.0032320 -0.088     -709.3        1.7      8.149          8.061
  24: -0.0026738 -0.073     -586.8        1.3      8.229          8.156

-------------------
CPCM SOLVENT SHIFT
-------------------

Reading the CPCM data                  ... done
Making difference densities            ... done
Computing the potentials               ... done
Calculating charges                    ... done

R0 correction
 State Shift(Eh) Shift(eV)
--------------------------
   0: -0.0115609 -0.315
   1: -0.0009810 -0.027
   2: -0.0136992 -0.373
   3: -0.0016015 -0.044
   4: -0.0005805 -0.016
   5: -0.0097094 -0.264
   6: -0.0086833 -0.236
   7: -0.0002154 -0.006
   8: -0.0001538 -0.004
   9: -0.0004013 -0.011
  10: -0.0020163 -0.055
  11: -0.0089270 -0.243
  12: -0.0094338 -0.257
  13: -0.0125040 -0.340
  14: -0.0003264 -0.009
  15: -0.0022781 -0.062
  16: -0.0002427 -0.007
  17: -0.0002999 -0.008
  18: -0.0096571 -0.263
  19: -0.0096331 -0.262
  20: -0.0001192 -0.003
  21: -0.0142017 -0.386
  22: -0.0062138 -0.169
  23: -0.0032317 -0.088
  24: -0.0026739 -0.073

STEOM-CCSD done (18873.1 sec)

PAIRWISE REDUNDANCY FOUND (L1=1.998457E+00,L2=1.543161E-03) AND REMOVED FOR IROOT=12 and IROOT=13!

PAIRWISE REDUNDANCY FOUND (L1=1.997345E+00,L2=2.654633E-03) AND REMOVED FOR IROOT=19 and IROOT=20!


WARNING: fewer states than desired (NRoots)!
Calculating the Dipole integrals                  ... done
Transforming integrals                            ... done
Calculating the Linear Momentum integrals         ... done
Transforming integrals                            ... done
Calculating angular momentum integrals            ... done
Transforming integrals                            ... done

--------------------------------------------------------------------
               UNRELAXED EXCITED STATE DIPOLE MOMENTS
--------------------------------------------------------------------
               E(eV)     DX(au)      DY(au)      DZ(au)      |D|(D)
IROOT=  0:     0.000   -0.027411    0.000158   -0.002993    0.070088
IROOT=  1:     2.815   -2.802875   -0.003850    0.004362    7.124357
IROOT=  2:     3.139    0.019687   -0.004999    0.003642    0.052452
IROOT=  3:     2.825    3.046537   -0.000527    0.004406    7.743690
IROOT=  4:     3.421   -0.064333    0.000233    0.005762    0.164177
IROOT=  5:     3.904   -0.282657    0.020422   -0.001666    0.720341
IROOT=  6:     3.927   -1.616961    0.000262    0.001671    4.109990
IROOT=  7:     4.062    2.044224   -0.020310   -0.000171    5.196261
IROOT=  8:     4.619    0.928609    0.000158   -0.001817    2.360342
IROOT=  9:     4.628    0.174342   -0.002343   -0.001213    0.443194
IROOT= 10:     4.639   -1.600606   -0.002452    0.000219    4.068423
IROOT= 11:     5.106   -0.013160    0.000138   -0.008500    0.039821
IROOT= 12:     5.026   -2.349485    0.004309   -0.000786    5.971927
IROOT= 13:     5.006    2.945937   -0.000023    0.000650    7.487978
IROOT= 14:     5.347    0.023263    0.042696   -0.000241    0.123589
IROOT= 15:     5.730   -0.082059   -0.005881   -0.001471    0.209147
IROOT= 16:     5.793   -0.490168   -0.005675   -0.006076    1.246088
IROOT= 17:     5.818    0.145111    0.002996   -0.006132    0.369251
IROOT= 18:     5.739   -0.146017    0.000253    0.001679    0.371170
IROOT= 19:     6.203   -0.140862    0.004172   -0.002812    0.358270
IROOT= 20:     5.837    0.237680   -0.046846   -0.007294    0.616035
IROOT= 21:     6.693   -0.148149   -0.067566   -0.007716    0.414343
IROOT= 22:     8.061   -1.975716   -0.063901   -0.005330    5.024516
IROOT= 23:     8.156    2.017901   -0.030326    0.028958    5.130204
--------------------------------------------------------------------

-----------------------------------------------------------------------------
         ABSORPTION SPECTRUM VIA TRANSITION ELECTRIC DIPOLE MOMENTS
-----------------------------------------------------------------------------
State   Energy  Wavelength   fosc         T2         TX        TY        TZ  
        (cm-1)    (nm)                  (au**2)     (au)      (au)      (au) 
-----------------------------------------------------------------------------
   1   22704.7    440.4   0.004549147   0.06596   0.25682   0.00097   0.00105
   2   25316.8    395.0   0.000060432   0.00079   0.00137   0.00326   0.02769
   3   22786.0    438.9   0.024797133   0.35827   0.59848   0.00483   0.00005
   4   27588.5    362.5   0.097793724   1.16697   0.00269   1.08003   0.02152
   5   31491.4    317.5   0.000814636   0.00852   0.09224   0.00127   0.00103
   6   31672.0    315.7   0.000454484   0.00472   0.00205   0.06348   0.02549
   7   32758.3    305.3   0.012509103   0.12571   0.00866   0.35355   0.00746
   8   37253.3    268.4   0.006291786   0.05560   0.00784   0.01392   0.23499
   9   37330.0    267.9   0.000375701   0.00331   0.00864   0.01556   0.04894
  10   37412.2    267.3   0.012201168   0.10737   0.00534   0.01070   0.32707
  11   41180.1    242.8   0.003758844   0.03005   0.00093   0.00339   0.17272
  12   40538.7    246.7   0.106096033   0.86160   0.92820   0.00184   0.00341
  13   40373.2    247.7   0.000120696   0.00098   0.03125   0.00185   0.00194
  14   43122.7    231.9   1.211468949   9.24873   0.00153   3.04105   0.02719
  15   46213.2    216.4   0.006066415   0.04322   0.00614   0.08518   0.18571
  16   46723.0    214.0   0.007984977   0.05626   0.23704   0.00589   0.00367
  17   46923.6    213.1   0.690684820   4.84578   2.20131   0.00414   0.00056
  18   46285.2    216.1   0.000137868   0.00098   0.00415   0.00747   0.02721
  19   50028.9    199.9   0.329062053   2.16537   1.47151   0.00461   0.00161
  20   47079.1    212.4   0.000927912   0.00649   0.00122   0.08051   0.00052
  21   53986.6    185.2   0.000603072   0.00368   0.05903   0.01343   0.00297
  22   65013.9    153.8   0.001125736   0.00570   0.07004   0.02569   0.01095
  23   65781.1    152.0   0.000096646   0.00048   0.00397   0.01602   0.00901

-------------------------------------------------------------------
                             CD SPECTRUM
-------------------------------------------------------------------
State   Energy Wavelength       R         MX        MY        MZ   
        (cm-1)   (nm)       (1e40*cgs)   (au)      (au)      (au)  
-------------------------------------------------------------------
   1     440.4   22704.7      0.29496  -0.02948  -0.00036  -0.00162
   2     395.0   25316.8      6.34353  -0.00030  -0.00520   1.19596
   3     438.9   22786.0      3.45417  -0.14072  -0.00108   0.00013
   4     362.5   27588.5      0.12523   0.00101  -0.00577  -0.00889
   5     317.5   31491.4      0.01691   0.00295   0.00026   0.00019
   6     315.7   31672.0      0.41026   0.00116   0.01226   0.03724
   7     305.3   32758.3      0.57356   0.00067   0.04803   0.00142
   8     268.4   37253.3      0.09065  -0.00018  -0.13817   0.00148
   9     267.9   37330.0      0.68094   0.00027   0.16723   0.00078
  10     267.3   37412.2      0.38758   0.00021   0.10384   0.00297
  11     242.8   41180.1     -2.21744  -0.00023  -0.00046   0.09423
  12     246.7   40538.7      9.12727  -0.11727   0.00312  -0.00359
  13     247.7   40373.2      0.04560  -0.01529   0.00002   0.00483
  14     231.9   43122.7     -4.01062   0.00057  -0.03526  -0.03779
  15     216.4   46213.2      9.17689  -0.00039   0.00170  -0.88145
  16     214.0   46723.0      0.01107   0.00087   0.00267  -0.00397
  17     213.1   46923.6      1.30801  -0.00761  -0.00290   0.00036
  18     216.1   46285.2      0.11659   0.00042  -0.00138  -0.00355
  19     199.9   50028.9     -0.85840  -0.03394   0.00018  -0.00075
  20     212.4   47079.1     -0.03946   0.00011   0.00682   0.00049
  21     185.2   53986.6      0.07833   0.02668  -0.00071   0.00214
  22     153.8   65013.9      0.04485   0.01382  -0.00682  -0.02374
  23     152.0   65781.1     -0.89497   0.19793   0.00683   0.01904

TDM done (19039.7 sec)
STEOM-CCSD done in (19040.2)


--------------------------------------------------------------------------------
                                    TIMINGS
--------------------------------------------------------------------------------


Total execution time                   ...    86076.605 sec

Localization of occupied MO's          ...        3.534 sec (  0.0%)
Fock Matrix Formation                  ...      279.648 sec (  0.3%)
Global overlap, Fock, MKN matrices     ...        1.463 sec (  0.0%)
Differential overlap integrals         ...        5.059 sec (  0.0%)
Organizing maps                        ...        0.111 sec (  0.0%)
RI 3-index integral generations        ...       96.768 sec (  0.1%)
RI-PNO integral transformation         ...     5087.755 sec (  5.9%)
Initial Guess                          ...     1002.433 sec (  1.2%)
DIIS Solver                            ...       10.351 sec (  0.0%)
State Vector Update                    ...        0.082 sec (  0.0%)
Sigma-vector construction              ...     3926.231 sec (  4.6%)
  <0|H|D>                              ...        0.006 sec (  0.0% of sigma)
  <D|H|D>(0-ext)                       ...      223.151 sec (  5.7% of sigma)
  <D|H|D>(2-ext Fock)                  ...        0.243 sec (  0.0% of sigma)
  <D|H|D>(2-ext)                       ...      859.270 sec ( 21.9% of sigma)
  <D|H|D>(4-ext)                       ...      253.986 sec (  6.5% of sigma)
  <D|H|D>(4-ext-corr)                  ...     1554.081 sec ( 39.6% of sigma)
  CCSD doubles correction              ...        4.326 sec (  0.1% of sigma)
  <S|H|S>                              ...      131.575 sec (  3.4% of sigma)
  <S|H|D>(1-ext)                       ...       24.388 sec (  0.6% of sigma)
  <D|H|S>(1-ext)                       ...        0.248 sec (  0.0% of sigma)
  <S|H|D>(3-ext)                       ...        3.894 sec (  0.1% of sigma)
  CCSD singles correction              ...        0.004 sec (  0.0% of sigma)
  Fock-dressing                        ...      606.470 sec ( 15.4% of sigma)
  Singles amplitudes                   ...       14.272 sec (  0.4% of sigma)
  (ik|jl)-dressing                     ...      173.047 sec (  4.4% of sigma)
  (ij|ab),(ia|jb)-dressing             ...       45.558 sec (  1.2% of sigma)
  Pair energies                        ...        0.058 sec (  0.0% of sigma)
Total Time for computing EOM-CCSD      ...    51775.280 sec ( 60.2% of ALL)
  Dressing integrals                   ...      218.472 sec (  0.4% of (EOM))
  Initial EOM-Guess                    ...        0.009 sec (  0.0% of (EOM))
  EOM Singles                          ...      989.648 sec (  1.9% of (EOM))
  EOM Doubles                          ...    48509.707 sec ( 93.7% of (EOM))
  Build Hamiltonian                    ...      196.037 sec (  0.4% of (EOM))
  Diagonalize Hamiltonian              ...       19.918 sec (  0.0% of (EOM))
  Ritz vectors                         ...      412.627 sec (  0.8% of (EOM))
  Residual vectors                     ...      442.237 sec (  0.9% of (EOM))
One-particle density matrix            ...       12.381 sec (  0.0%)


Maximum memory used throughout the entire MDCI-calculation: 60462.3 MB

-------------------------   --------------------
FINAL SINGLE POINT ENERGY     -1216.810859236613
-------------------------   --------------------


                            ***************************************
                            *     ORCA property calculations      *
                            ***************************************

                                    ---------------------
                                    Active property flags
                                    ---------------------
   (+) Dipole Moment


------------------------------------------------------------------------------
                       ORCA ELECTRIC PROPERTIES CALCULATION
------------------------------------------------------------------------------

Dipole Moment Calculation                       ... on
Quadrupole Moment Calculation                   ... off
Polarizability Calculation                      ... off
GBWName                                         ... PA_3_STEOM-DLPNO-CCSD_DEF2-TZVP_RIJCOSX_SMD.gbw
Electron density                                ... PA_3_STEOM-DLPNO-CCSD_DEF2-TZVP_RIJCOSX_SMD.scfp
The origin for moment calculation is the CENTER OF MASS  = ( 0.000061, -0.000000  0.000002)

-------------
DIPOLE MOMENT
-------------
                                X             Y             Z
Electronic contribution:     -0.01399      -0.00002       0.00036
Nuclear contribution   :     -0.01216       0.00002      -0.00044
                        -----------------------------------------
Total Dipole Moment    :     -0.02615       0.00000      -0.00009
                        -----------------------------------------
Magnitude (a.u.)       :      0.02615
Magnitude (Debye)      :      0.06647



--------------------
Rotational spectrum 
--------------------
 
Rotational constants in cm-1:     0.013166     0.002691     0.002341 
Rotational constants in MHz :   394.716059    80.676940    70.178145 

 Dipole components along the rotational axes: 
x,y,z [a.u.] :    -0.026149     0.000000    -0.000085 
x,y,z [Debye]:    -0.066466     0.000001    -0.000216 

 

                           *** MDCI DENSITY ***

------------------------------------------------------------------------------
                       ORCA ELECTRIC PROPERTIES CALCULATION
------------------------------------------------------------------------------

Dipole Moment Calculation                       ... on
Quadrupole Moment Calculation                   ... off
Polarizability Calculation                      ... off
GBWName                                         ... PA_3_STEOM-DLPNO-CCSD_DEF2-TZVP_RIJCOSX_SMD.gbw
Electron density                                ... PA_3_STEOM-DLPNO-CCSD_DEF2-TZVP_RIJCOSX_SMD.mdcip
The origin for moment calculation is the CENTER OF MASS  = ( 0.000061, -0.000000  0.000002)

-------------
DIPOLE MOMENT
-------------
                                X             Y             Z
Electronic contribution:     -0.01534       0.00012      -0.00259
Nuclear contribution   :     -0.01216       0.00002      -0.00044
                        -----------------------------------------
Total Dipole Moment    :     -0.02750       0.00014      -0.00303
                        -----------------------------------------
Magnitude (a.u.)       :      0.02767
Magnitude (Debye)      :      0.07033



--------------------
Rotational spectrum 
--------------------
 
Rotational constants in cm-1:     0.013166     0.002691     0.002341 
Rotational constants in MHz :   394.716059    80.676940    70.178145 

 Dipole components along the rotational axes: 
x,y,z [a.u.] :    -0.027503     0.000138    -0.003030 
x,y,z [Debye]:    -0.069906     0.000351    -0.007701 

 

Timings for individual modules:

Sum of individual times         ...    88415.272 sec (=1473.588 min)
GTO integral calculation        ...        3.444 sec (=   0.057 min)   0.0 %
SCF iterations                  ...     2329.726 sec (=  38.829 min)   2.6 %
MDCI module                     ...    86082.102 sec (=1434.702 min)  97.4 %
                             ****ORCA TERMINATED NORMALLY****
TOTAL RUN TIME: 1 days 0 hours 33 minutes 38 seconds 251 msec
