 Entering Gaussian System, Link 0=g09
 Input=/home/png4rjv/fotokatalizis/benchmark/OPCs/RESTART_2/PA_3_M06_def2TZVP.gjf
 Output=/home/png4rjv/fotokatalizis/benchmark/OPCs/RESTART_2/PA_3_M06_def2TZVP.log
 Initial command:
 /opt/nce/packages/global/g09/l1.exe "/home/png4rjv/fotokatalizis/benchmark/OPCs/RESTART_2/PA_3_M06_def2TZVP/Gau-28549.inp" -scrdir="/home/png4rjv/fotokatalizis/benchmark/OPCs/RESTART_2/PA_3_M06_def2TZVP/"
 Default is to use a total of  12 processors:
                               12 via shared-memory
                                1 via Linda
 Entering Link 1 = /opt/nce/packages/global/g09/l1.exe PID=     28550.
  
 Copyright (c) 1988,1990,1992,1993,1995,1998,2003,2009,2015,
            Gaussian, Inc.  All Rights Reserved.
  
 This is part of the Gaussian(R) 09 program.  It is based on
 the Gaussian(R) 03 system (copyright 2003, Gaussian, Inc.),
 the Gaussian(R) 98 system (copyright 1998, Gaussian, Inc.),
 the Gaussian(R) 94 system (copyright 1995, Gaussian, Inc.),
 the Gaussian 92(TM) system (copyright 1992, Gaussian, Inc.),
 the Gaussian 90(TM) system (copyright 1990, Gaussian, Inc.),
 the Gaussian 88(TM) system (copyright 1988, Gaussian, Inc.),
 the Gaussian 86(TM) system (copyright 1986, Carnegie Mellon
 University), and the Gaussian 82(TM) system (copyright 1983,
 Carnegie Mellon University). Gaussian is a federally registered
 trademark of Gaussian, Inc.
  
 This software contains proprietary and confidential information,
 including trade secrets, belonging to Gaussian, Inc.
  
 This software is provided under written license and may be
 used, copied, transmitted, or stored only in accord with that
 written license.
  
 The following legend is applicable only to US Government
 contracts under FAR:
  
                    RESTRICTED RIGHTS LEGEND
  
 Use, reproduction and disclosure by the US Government is
 subject to restrictions as set forth in subparagraphs (a)
 and (c) of the Commercial Computer Software - Restricted
 Rights clause in FAR 52.227-19.
  
 Gaussian, Inc.
 340 Quinnipiac St., Bldg. 40, Wallingford CT 06492
  
  
 ---------------------------------------------------------------
 Warning -- This program may not be used in any manner that
 competes with the business of Gaussian, Inc. or will provide
 assistance to any competitor of Gaussian, Inc.  The licensee
 of this program is prohibited from giving any competitor of
 Gaussian, Inc. access to this program.  By using this program,
 the user acknowledges that Gaussian, Inc. is engaged in the
 business of creating and licensing software in the field of
 computational chemistry and represents and warrants to the
 licensee that it is not a competitor of Gaussian, Inc. and that
 it will not use this program in any manner prohibited above.
 ---------------------------------------------------------------
  

 Cite this work as:
 Gaussian 09, Revision E.01,
 M. J. Frisch, G. W. Trucks, H. B. Schlegel, G. E. Scuseria, 
 M. A. Robb, J. R. Cheeseman, G. Scalmani, V. Barone, B. Mennucci, 
 G. A. Petersson, H. Nakatsuji, M. Caricato, X. Li, H. P. Hratchian, 
 A. F. Izmaylov, J. Bloino, G. Zheng, J. L. Sonnenberg, M. Hada, 
 M. Ehara, K. Toyota, R. Fukuda, J. Hasegawa, M. Ishida, T. Nakajima, 
 Y. Honda, O. Kitao, H. Nakai, T. Vreven, J. A. Montgomery, Jr., 
 J. E. Peralta, F. Ogliaro, M. Bearpark, J. J. Heyd, E. Brothers, 
 K. N. Kudin, V. N. Staroverov, T. Keith, R. Kobayashi, J. Normand, 
 K. Raghavachari, A. Rendell, J. C. Burant, S. S. Iyengar, J. Tomasi, 
 M. Cossi, N. Rega, J. M. Millam, M. Klene, J. E. Knox, J. B. Cross, 
 V. Bakken, C. Adamo, J. Jaramillo, R. Gomperts, R. E. Stratmann, 
 O. Yazyev, A. J. Austin, R. Cammi, C. Pomelli, J. W. Ochterski, 
 R. L. Martin, K. Morokuma, V. G. Zakrzewski, G. A. Voth, 
 P. Salvador, J. J. Dannenberg, S. Dapprich, A. D. Daniels, 
 O. Farkas, J. B. Foresman, J. V. Ortiz, J. Cioslowski, 
 and D. J. Fox, Gaussian, Inc., Wallingford CT, 2013.
 
 ******************************************
 Gaussian 09:  ES64L-G09RevE.01 30-Nov-2015
                23-Nov-2021 
 ******************************************
 %chk=cp.chk
 Default route:  MaxDisk=500GB
 ----------------------------------------------------------------------
 #p m06/def2TZVP opt=tight freq=noraman nosymm int=ultrafine scrf=(SMD,
 solvent=n,n-DiMethylFormamide)
 ----------------------------------------------------------------------
 1/7=10,14=-1,18=20,19=15,26=4,38=1/1,3;
 2/9=110,12=2,15=1,17=6,18=5,40=1/2;
 3/5=44,7=101,11=2,16=1,25=1,30=1,70=32201,71=1,72=148,74=-54,75=-5/1,2,3;
 4//1;
 5/5=2,38=5,53=148/2;
 6/7=2,8=2,9=2,10=2,28=1/1;
 7/30=1/1,2,3,16;
 1/7=10,14=-1,18=20,19=15,26=4/3(2);
 2/9=110,15=1/2;
 99//99;
 2/9=110,15=1/2;
 3/5=44,7=101,11=2,16=1,25=1,30=1,70=32205,71=1,72=148,74=-54,75=-5/1,2,3;
 4/5=5,16=3,69=1/1;
 5/5=2,38=5,53=148/2;
 7/30=1/1,2,3,16;
 1/7=10,14=-1,18=20,19=15,26=4/3(-5);
 2/9=110,15=1/2;
 6/7=2,8=2,9=2,10=2,19=2,28=1/1;
 99/9=1/99;
 Leave Link    1 at Tue Nov 23 07:57:50 2021, MaxMem=           0 cpu:         2.0
 (Enter /opt/nce/packages/global/g09/l101.exe)
 -----
 Title
 -----
 Symbolic Z-matrix:
 Charge =  0 Multiplicity = 1
 C                     0.68788   3.64037  -0.00044 
 C                     1.37712   2.43207  -0.0004 
 C                     0.70292   1.22148  -0.00104 
 C                    -0.70294   1.22147  -0.00159 
 C                    -1.37715   2.43205  -0.00166 
 C                    -0.68793   3.64036  -0.00112 
 C                    -0.68122  -1.23361  -0.24694 
 C                     0.70294  -1.22146  -0.00117 
 C                     1.37715  -2.43204  -0.00085 
 H                     2.46018  -2.4377   -0.00059 
 C                     0.68793  -3.64035  -0.00085 
 C                    -0.68788  -3.64036  -0.00116 
 C                    -1.37712  -2.43206  -0.00151 
 H                     2.46014   2.43776   0.00014 
 H                    -2.46018   2.43771  -0.00217 
 H                    -1.24351   4.57054  -0.0012 
 H                     1.24352  -4.57053  -0.0006 
 H                    -1.24345  -4.57054  -0.00113 
 N                     1.38659   0.00001  -0.00113 
 C                    -2.80813  -0.00001  -0.00092 
 C                    -3.49649  -0.00067  -1.20485 
 C                    -3.49428   0.00064   1.20427 
 C                    -4.87634  -0.00069  -1.20907 
 C                    -4.8741    0.00065   1.21107 
 C                    -5.56587  -0.00003   0.00164 
 H                    -5.42614  -0.0012   -2.14211 
 H                    -5.42218   0.00115   2.14512 
 H                    -2.93917  -0.00118  -2.13488 
 H                    -2.93524   0.00116   2.13328 
 H                     1.24345   4.57055   0.00004 
 N                    -1.38659  0.        -0.00214 
 C                     2.80813   0.00001  -0.00028 
 C                     3.49612   0.27014  -1.17373 
 C                     3.49465  -0.27012   1.17402 
 C                     4.87596   0.27139  -1.17823 
 H                     2.93851   0.4786   -2.07993 
 C                     4.87449  -0.27137   1.18026 
 H                     2.93591  -0.47858   2.07953 
 C                     5.56587   0.00001   0.00145 
 H                     5.42547   0.48074  -2.08766 
 H                     5.42286  -0.48072   2.09038 
 H                    -2.46014  -2.43775  -0.00178 
 C                    -6.99059  -0.00003   0.00298 
 C                     6.99059   0.00001   0.00235 
 N                    -8.14136  -0.00004   0.00407 
 N                     8.14136   0.00001   0.00308 
 
 NAtoms=     46 NQM=       46 NQMF=       0 NMMI=      0 NMMIF=      0
                NMic=       0 NMicF=      0.
                    Isotopes and Nuclear Properties:
 (Nuclear quadrupole moments (NQMom) in fm**2, nuclear magnetic moments (NMagM)
  in nuclear magnetons)

  Atom         1           2           3           4           5           6           7           8           9          10
 IAtWgt=          12          12          12          12          12          12          12          12          12           1
 AtmWgt=  12.0000000  12.0000000  12.0000000  12.0000000  12.0000000  12.0000000  12.0000000  12.0000000  12.0000000   1.0078250
 NucSpn=           0           0           0           0           0           0           0           0           0           1
 AtZEff=   0.0000000   0.0000000   0.0000000   0.0000000   0.0000000   0.0000000   0.0000000   0.0000000   0.0000000   0.0000000
 NQMom=    0.0000000   0.0000000   0.0000000   0.0000000   0.0000000   0.0000000   0.0000000   0.0000000   0.0000000   0.0000000
 NMagM=    0.0000000   0.0000000   0.0000000   0.0000000   0.0000000   0.0000000   0.0000000   0.0000000   0.0000000   2.7928460
 AtZNuc=   6.0000000   6.0000000   6.0000000   6.0000000   6.0000000   6.0000000   6.0000000   6.0000000   6.0000000   1.0000000

  Atom        11          12          13          14          15          16          17          18          19          20
 IAtWgt=          12          12          12           1           1           1           1           1          14          12
 AtmWgt=  12.0000000  12.0000000  12.0000000   1.0078250   1.0078250   1.0078250   1.0078250   1.0078250  14.0030740  12.0000000
 NucSpn=           0           0           0           1           1           1           1           1           2           0
 AtZEff=   0.0000000   0.0000000   0.0000000   0.0000000   0.0000000   0.0000000   0.0000000   0.0000000   0.0000000   0.0000000
 NQMom=    0.0000000   0.0000000   0.0000000   0.0000000   0.0000000   0.0000000   0.0000000   0.0000000   2.0440000   0.0000000
 NMagM=    0.0000000   0.0000000   0.0000000   2.7928460   2.7928460   2.7928460   2.7928460   2.7928460   0.4037610   0.0000000
 AtZNuc=   6.0000000   6.0000000   6.0000000   1.0000000   1.0000000   1.0000000   1.0000000   1.0000000   7.0000000   6.0000000

  Atom        21          22          23          24          25          26          27          28          29          30
 IAtWgt=          12          12          12          12          12           1           1           1           1           1
 AtmWgt=  12.0000000  12.0000000  12.0000000  12.0000000  12.0000000   1.0078250   1.0078250   1.0078250   1.0078250   1.0078250
 NucSpn=           0           0           0           0           0           1           1           1           1           1
 AtZEff=   0.0000000   0.0000000   0.0000000   0.0000000   0.0000000   0.0000000   0.0000000   0.0000000   0.0000000   0.0000000
 NQMom=    0.0000000   0.0000000   0.0000000   0.0000000   0.0000000   0.0000000   0.0000000   0.0000000   0.0000000   0.0000000
 NMagM=    0.0000000   0.0000000   0.0000000   0.0000000   0.0000000   2.7928460   2.7928460   2.7928460   2.7928460   2.7928460
 AtZNuc=   6.0000000   6.0000000   6.0000000   6.0000000   6.0000000   1.0000000   1.0000000   1.0000000   1.0000000   1.0000000

  Atom        31          32          33          34          35          36          37          38          39          40
 IAtWgt=          14          12          12          12          12           1          12           1          12           1
 AtmWgt=  14.0030740  12.0000000  12.0000000  12.0000000  12.0000000   1.0078250  12.0000000   1.0078250  12.0000000   1.0078250
 NucSpn=           2           0           0           0           0           1           0           1           0           1
 AtZEff=   0.0000000   0.0000000   0.0000000   0.0000000   0.0000000   0.0000000   0.0000000   0.0000000   0.0000000   0.0000000
 NQMom=    2.0440000   0.0000000   0.0000000   0.0000000   0.0000000   0.0000000   0.0000000   0.0000000   0.0000000   0.0000000
 NMagM=    0.4037610   0.0000000   0.0000000   0.0000000   0.0000000   2.7928460   0.0000000   2.7928460   0.0000000   2.7928460
 AtZNuc=   7.0000000   6.0000000   6.0000000   6.0000000   6.0000000   1.0000000   6.0000000   1.0000000   6.0000000   1.0000000

  Atom        41          42          43          44          45          46
 IAtWgt=           1           1          12          12          14          14
 AtmWgt=   1.0078250   1.0078250  12.0000000  12.0000000  14.0030740  14.0030740
 NucSpn=           1           1           0           0           2           2
 AtZEff=   0.0000000   0.0000000   0.0000000   0.0000000   0.0000000   0.0000000
 NQMom=    0.0000000   0.0000000   0.0000000   0.0000000   2.0440000   2.0440000
 NMagM=    2.7928460   2.7928460   0.0000000   0.0000000   0.4037610   0.4037610
 AtZNuc=   1.0000000   1.0000000   6.0000000   6.0000000   7.0000000   7.0000000
 Leave Link  101 at Tue Nov 23 07:57:50 2021, MaxMem=  5242880000 cpu:         5.4
 (Enter /opt/nce/packages/global/g09/l103.exe)

 GradGradGradGradGradGradGradGradGradGradGradGradGradGradGradGradGradGrad
 Berny optimization.
 Initialization pass.
                           ----------------------------
                           !    Initial Parameters    !
                           ! (Angstroms and Degrees)  !
 --------------------------                            --------------------------
 ! Name  Definition              Value          Derivative Info.                !
 --------------------------------------------------------------------------------
 ! R1    R(1,2)                  1.3911         estimate D2E/DX2                !
 ! R2    R(1,6)                  1.3758         estimate D2E/DX2                !
 ! R3    R(1,30)                 1.0835         estimate D2E/DX2                !
 ! R4    R(2,3)                  1.3857         estimate D2E/DX2                !
 ! R5    R(2,14)                 1.083          estimate D2E/DX2                !
 ! R6    R(3,4)                  1.4059         estimate D2E/DX2                !
 ! R7    R(3,19)                 1.3998         estimate D2E/DX2                !
 ! R8    R(4,5)                  1.3857         estimate D2E/DX2                !
 ! R9    R(4,31)                 1.3998         estimate D2E/DX2                !
 ! R10   R(5,6)                  1.3911         estimate D2E/DX2                !
 ! R11   R(5,15)                 1.083          estimate D2E/DX2                !
 ! R12   R(6,16)                 1.0835         estimate D2E/DX2                !
 ! R13   R(7,8)                  1.4059         estimate D2E/DX2                !
 ! R14   R(7,13)                 1.4074         estimate D2E/DX2                !
 ! R15   R(7,31)                 1.442          estimate D2E/DX2                !
 ! R16   R(8,9)                  1.3857         estimate D2E/DX2                !
 ! R17   R(8,19)                 1.3998         estimate D2E/DX2                !
 ! R18   R(9,10)                 1.083          estimate D2E/DX2                !
 ! R19   R(9,11)                 1.3911         estimate D2E/DX2                !
 ! R20   R(11,12)                1.3758         estimate D2E/DX2                !
 ! R21   R(11,17)                1.0835         estimate D2E/DX2                !
 ! R22   R(12,13)                1.3911         estimate D2E/DX2                !
 ! R23   R(12,18)                1.0835         estimate D2E/DX2                !
 ! R24   R(13,42)                1.083          estimate D2E/DX2                !
 ! R25   R(19,32)                1.4215         estimate D2E/DX2                !
 ! R26   R(20,21)                1.3868         estimate D2E/DX2                !
 ! R27   R(20,22)                1.3868         estimate D2E/DX2                !
 ! R28   R(20,31)                1.4215         estimate D2E/DX2                !
 ! R29   R(21,23)                1.3799         estimate D2E/DX2                !
 ! R30   R(21,28)                1.0842         estimate D2E/DX2                !
 ! R31   R(22,24)                1.3798         estimate D2E/DX2                !
 ! R32   R(22,29)                1.0842         estimate D2E/DX2                !
 ! R33   R(23,25)                1.3933         estimate D2E/DX2                !
 ! R34   R(23,26)                1.083          estimate D2E/DX2                !
 ! R35   R(24,25)                1.3933         estimate D2E/DX2                !
 ! R36   R(24,27)                1.083          estimate D2E/DX2                !
 ! R37   R(25,43)                1.4247         estimate D2E/DX2                !
 ! R38   R(32,33)                1.3868         estimate D2E/DX2                !
 ! R39   R(32,34)                1.3868         estimate D2E/DX2                !
 ! R40   R(33,35)                1.3799         estimate D2E/DX2                !
 ! R41   R(33,36)                1.0842         estimate D2E/DX2                !
 ! R42   R(34,37)                1.3798         estimate D2E/DX2                !
 ! R43   R(34,38)                1.0842         estimate D2E/DX2                !
 ! R44   R(35,39)                1.3933         estimate D2E/DX2                !
 ! R45   R(35,40)                1.083          estimate D2E/DX2                !
 ! R46   R(37,39)                1.3933         estimate D2E/DX2                !
 ! R47   R(37,41)                1.083          estimate D2E/DX2                !
 ! R48   R(39,44)                1.4247         estimate D2E/DX2                !
 ! R49   R(43,45)                1.1508         estimate D2E/DX2                !
 ! R50   R(44,46)                1.1508         estimate D2E/DX2                !
 ! A1    A(2,1,6)              119.701          estimate D2E/DX2                !
 ! A2    A(2,1,30)             119.45           estimate D2E/DX2                !
 ! A3    A(6,1,30)             120.849          estimate D2E/DX2                !
 ! A4    A(1,2,3)              121.1845         estimate D2E/DX2                !
 ! A5    A(1,2,14)             119.4005         estimate D2E/DX2                !
 ! A6    A(3,2,14)             119.415          estimate D2E/DX2                !
 ! A7    A(2,3,4)              119.1143         estimate D2E/DX2                !
 ! A8    A(2,3,19)             121.6499         estimate D2E/DX2                !
 ! A9    A(4,3,19)             119.2358         estimate D2E/DX2                !
 ! A10   A(3,4,5)              119.1147         estimate D2E/DX2                !
 ! A11   A(3,4,31)             119.2358         estimate D2E/DX2                !
 ! A12   A(5,4,31)             121.6495         estimate D2E/DX2                !
 ! A13   A(4,5,6)              121.1845         estimate D2E/DX2                !
 ! A14   A(4,5,15)             119.4146         estimate D2E/DX2                !
 ! A15   A(6,5,15)             119.4009         estimate D2E/DX2                !
 ! A16   A(1,6,5)              119.7008         estimate D2E/DX2                !
 ! A17   A(1,6,16)             120.8489         estimate D2E/DX2                !
 ! A18   A(5,6,16)             119.4502         estimate D2E/DX2                !
 ! A19   A(8,7,13)             117.6256         estimate D2E/DX2                !
 ! A20   A(8,7,31)             116.3944         estimate D2E/DX2                !
 ! A21   A(13,7,31)            117.1942         estimate D2E/DX2                !
 ! A22   A(7,8,9)              118.1346         estimate D2E/DX2                !
 ! A23   A(7,8,19)             119.2359         estimate D2E/DX2                !
 ! A24   A(9,8,19)             121.6494         estimate D2E/DX2                !
 ! A25   A(8,9,10)             119.4145         estimate D2E/DX2                !
 ! A26   A(8,9,11)             121.1845         estimate D2E/DX2                !
 ! A27   A(10,9,11)            119.401          estimate D2E/DX2                !
 ! A28   A(9,11,12)            119.7009         estimate D2E/DX2                !
 ! A29   A(9,11,17)            119.4501         estimate D2E/DX2                !
 ! A30   A(12,11,17)           120.849          estimate D2E/DX2                !
 ! A31   A(11,12,13)           119.701          estimate D2E/DX2                !
 ! A32   A(11,12,18)           120.8491         estimate D2E/DX2                !
 ! A33   A(13,12,18)           119.45           estimate D2E/DX2                !
 ! A34   A(7,13,12)            119.6505         estimate D2E/DX2                !
 ! A35   A(7,13,42)            119.9255         estimate D2E/DX2                !
 ! A36   A(12,13,42)           119.4006         estimate D2E/DX2                !
 ! A37   A(3,19,8)             121.5284         estimate D2E/DX2                !
 ! A38   A(3,19,32)            119.2359         estimate D2E/DX2                !
 ! A39   A(8,19,32)            119.2357         estimate D2E/DX2                !
 ! A40   A(21,20,22)           120.5865         estimate D2E/DX2                !
 ! A41   A(21,20,31)           119.7106         estimate D2E/DX2                !
 ! A42   A(22,20,31)           119.7029         estimate D2E/DX2                !
 ! A43   A(20,21,23)           119.9348         estimate D2E/DX2                !
 ! A44   A(20,21,28)           119.3087         estimate D2E/DX2                !
 ! A45   A(23,21,28)           120.7565         estimate D2E/DX2                !
 ! A46   A(20,22,24)           119.9364         estimate D2E/DX2                !
 ! A47   A(20,22,29)           119.3085         estimate D2E/DX2                !
 ! A48   A(24,22,29)           120.7551         estimate D2E/DX2                !
 ! A49   A(21,23,25)           119.4873         estimate D2E/DX2                !
 ! A50   A(21,23,26)           120.6841         estimate D2E/DX2                !
 ! A51   A(25,23,26)           119.8286         estimate D2E/DX2                !
 ! A52   A(22,24,25)           119.4862         estimate D2E/DX2                !
 ! A53   A(22,24,27)           120.6859         estimate D2E/DX2                !
 ! A54   A(25,24,27)           119.828          estimate D2E/DX2                !
 ! A55   A(23,25,24)           120.5688         estimate D2E/DX2                !
 ! A56   A(23,25,43)           119.7166         estimate D2E/DX2                !
 ! A57   A(24,25,43)           119.7146         estimate D2E/DX2                !
 ! A58   A(4,31,7)             120.5097         estimate D2E/DX2                !
 ! A59   A(4,31,20)            119.2358         estimate D2E/DX2                !
 ! A60   A(7,31,20)            119.2954         estimate D2E/DX2                !
 ! A61   A(19,32,33)           119.7082         estimate D2E/DX2                !
 ! A62   A(19,32,34)           119.7052         estimate D2E/DX2                !
 ! A63   A(33,32,34)           120.5865         estimate D2E/DX2                !
 ! A64   A(32,33,35)           119.9351         estimate D2E/DX2                !
 ! A65   A(32,33,36)           119.3088         estimate D2E/DX2                !
 ! A66   A(35,33,36)           120.7561         estimate D2E/DX2                !
 ! A67   A(32,34,37)           119.9361         estimate D2E/DX2                !
 ! A68   A(32,34,38)           119.3085         estimate D2E/DX2                !
 ! A69   A(37,34,38)           120.7554         estimate D2E/DX2                !
 ! A70   A(33,35,39)           119.4871         estimate D2E/DX2                !
 ! A71   A(33,35,40)           120.6846         estimate D2E/DX2                !
 ! A72   A(39,35,40)           119.8284         estimate D2E/DX2                !
 ! A73   A(34,37,39)           119.4864         estimate D2E/DX2                !
 ! A74   A(34,37,41)           120.6854         estimate D2E/DX2                !
 ! A75   A(39,37,41)           119.8282         estimate D2E/DX2                !
 ! A76   A(35,39,37)           120.5689         estimate D2E/DX2                !
 ! A77   A(35,39,44)           119.716          estimate D2E/DX2                !
 ! A78   A(37,39,44)           119.7152         estimate D2E/DX2                !
 ! A79   L(25,43,45,27,-1)     179.9998         estimate D2E/DX2                !
 ! A80   L(39,44,46,41,-1)     180.0            estimate D2E/DX2                !
 ! A81   L(25,43,45,27,-2)     180.0            estimate D2E/DX2                !
 ! A82   L(39,44,46,41,-2)     180.0001         estimate D2E/DX2                !
 ! D1    D(6,1,2,3)              0.0008         estimate D2E/DX2                !
 ! D2    D(6,1,2,14)          -179.9996         estimate D2E/DX2                !
 ! D3    D(30,1,2,3)          -179.9983         estimate D2E/DX2                !
 ! D4    D(30,1,2,14)            0.0013         estimate D2E/DX2                !
 ! D5    D(2,1,6,5)              0.0046         estimate D2E/DX2                !
 ! D6    D(2,1,6,16)          -179.9974         estimate D2E/DX2                !
 ! D7    D(30,1,6,5)          -179.9963         estimate D2E/DX2                !
 ! D8    D(30,1,6,16)            0.0017         estimate D2E/DX2                !
 ! D9    D(1,2,3,4)             -0.0074         estimate D2E/DX2                !
 ! D10   D(1,2,3,19)           179.994          estimate D2E/DX2                !
 ! D11   D(14,2,3,4)           179.993          estimate D2E/DX2                !
 ! D12   D(14,2,3,19)           -0.0056         estimate D2E/DX2                !
 ! D13   D(2,3,4,5)              0.0085         estimate D2E/DX2                !
 ! D14   D(2,3,4,31)          -179.9949         estimate D2E/DX2                !
 ! D15   D(19,3,4,5)          -179.9928         estimate D2E/DX2                !
 ! D16   D(19,3,4,31)            0.0038         estimate D2E/DX2                !
 ! D17   D(2,3,19,8)           179.9704         estimate D2E/DX2                !
 ! D18   D(2,3,19,32)            0.0122         estimate D2E/DX2                !
 ! D19   D(4,3,19,8)            -0.0282         estimate D2E/DX2                !
 ! D20   D(4,3,19,32)         -179.9864         estimate D2E/DX2                !
 ! D21   D(3,4,5,6)             -0.0033         estimate D2E/DX2                !
 ! D22   D(3,4,5,15)           179.9944         estimate D2E/DX2                !
 ! D23   D(31,4,5,6)          -179.9998         estimate D2E/DX2                !
 ! D24   D(31,4,5,15)           -0.0021         estimate D2E/DX2                !
 ! D25   D(3,4,31,7)           -11.3648         estimate D2E/DX2                !
 ! D26   D(3,4,31,20)          179.9183         estimate D2E/DX2                !
 ! D27   D(5,4,31,7)           168.6317         estimate D2E/DX2                !
 ! D28   D(5,4,31,20)           -0.0852         estimate D2E/DX2                !
 ! D29   D(4,5,6,1)             -0.0033         estimate D2E/DX2                !
 ! D30   D(4,5,6,16)           179.9987         estimate D2E/DX2                !
 ! D31   D(15,5,6,1)           179.999          estimate D2E/DX2                !
 ! D32   D(15,5,6,16)            0.001          estimate D2E/DX2                !
 ! D33   D(13,7,8,9)            22.4601         estimate D2E/DX2                !
 ! D34   D(13,7,8,19)         -168.6743         estimate D2E/DX2                !
 ! D35   D(31,7,8,9)           169.1358         estimate D2E/DX2                !
 ! D36   D(31,7,8,19)          -21.9986         estimate D2E/DX2                !
 ! D37   D(8,7,13,12)          -22.811          estimate D2E/DX2                !
 ! D38   D(8,7,13,42)          168.8256         estimate D2E/DX2                !
 ! D39   D(31,7,13,12)        -169.2197         estimate D2E/DX2                !
 ! D40   D(31,7,13,42)          22.4169         estimate D2E/DX2                !
 ! D41   D(8,7,31,4)            22.2718         estimate D2E/DX2                !
 ! D42   D(8,7,31,20)         -169.018          estimate D2E/DX2                !
 ! D43   D(13,7,31,4)          169.0941         estimate D2E/DX2                !
 ! D44   D(13,7,31,20)         -22.1957         estimate D2E/DX2                !
 ! D45   D(7,8,9,10)           168.5808         estimate D2E/DX2                !
 ! D46   D(7,8,9,11)           -11.419          estimate D2E/DX2                !
 ! D47   D(19,8,9,10)           -0.0019         estimate D2E/DX2                !
 ! D48   D(19,8,9,11)          179.9983         estimate D2E/DX2                !
 ! D49   D(7,8,19,3)            11.5596         estimate D2E/DX2                !
 ! D50   D(7,8,19,32)         -168.4822         estimate D2E/DX2                !
 ! D51   D(9,8,19,3)          -179.9801         estimate D2E/DX2                !
 ! D52   D(9,8,19,32)           -0.0219         estimate D2E/DX2                !
 ! D53   D(8,9,11,12)           -0.001          estimate D2E/DX2                !
 ! D54   D(8,9,11,17)          179.9993         estimate D2E/DX2                !
 ! D55   D(10,9,11,12)         179.9992         estimate D2E/DX2                !
 ! D56   D(10,9,11,17)          -0.0005         estimate D2E/DX2                !
 ! D57   D(9,11,12,13)           0.0024         estimate D2E/DX2                !
 ! D58   D(9,11,12,18)        -179.998          estimate D2E/DX2                !
 ! D59   D(17,11,12,13)       -179.9979         estimate D2E/DX2                !
 ! D60   D(17,11,12,18)          0.0017         estimate D2E/DX2                !
 ! D61   D(11,12,13,7)          11.5735         estimate D2E/DX2                !
 ! D62   D(11,12,13,42)        179.9983         estimate D2E/DX2                !
 ! D63   D(18,12,13,7)        -168.4261         estimate D2E/DX2                !
 ! D64   D(18,12,13,42)         -0.0012         estimate D2E/DX2                !
 ! D65   D(3,19,32,33)         -77.0642         estimate D2E/DX2                !
 ! D66   D(3,19,32,34)         102.9358         estimate D2E/DX2                !
 ! D67   D(8,19,32,33)         102.9766         estimate D2E/DX2                !
 ! D68   D(8,19,32,34)         -77.0234         estimate D2E/DX2                !
 ! D69   D(22,20,21,23)         -0.0007         estimate D2E/DX2                !
 ! D70   D(22,20,21,28)       -179.9998         estimate D2E/DX2                !
 ! D71   D(31,20,21,23)        179.9995         estimate D2E/DX2                !
 ! D72   D(31,20,21,28)          0.0004         estimate D2E/DX2                !
 ! D73   D(21,20,22,24)         -0.0003         estimate D2E/DX2                !
 ! D74   D(21,20,22,29)       -179.9996         estimate D2E/DX2                !
 ! D75   D(31,20,22,24)        179.9996         estimate D2E/DX2                !
 ! D76   D(31,20,22,29)          0.0003         estimate D2E/DX2                !
 ! D77   D(21,20,31,4)          90.084          estimate D2E/DX2                !
 ! D78   D(21,20,31,7)         -78.7713         estimate D2E/DX2                !
 ! D79   D(22,20,31,4)         -89.9159         estimate D2E/DX2                !
 ! D80   D(22,20,31,7)         101.2288         estimate D2E/DX2                !
 ! D81   D(20,21,23,25)          0.001          estimate D2E/DX2                !
 ! D82   D(20,21,23,26)       -180.0            estimate D2E/DX2                !
 ! D83   D(28,21,23,25)       -179.9999         estimate D2E/DX2                !
 ! D84   D(28,21,23,26)         -0.0009         estimate D2E/DX2                !
 ! D85   D(20,22,24,25)          0.0009         estimate D2E/DX2                !
 ! D86   D(20,22,24,27)        179.9998         estimate D2E/DX2                !
 ! D87   D(29,22,24,25)       -179.9998         estimate D2E/DX2                !
 ! D88   D(29,22,24,27)         -0.0008         estimate D2E/DX2                !
 ! D89   D(21,23,25,24)         -0.0004         estimate D2E/DX2                !
 ! D90   D(21,23,25,43)        179.9995         estimate D2E/DX2                !
 ! D91   D(26,23,25,24)       -179.9994         estimate D2E/DX2                !
 ! D92   D(26,23,25,43)          0.0005         estimate D2E/DX2                !
 ! D93   D(22,24,25,23)         -0.0006         estimate D2E/DX2                !
 ! D94   D(22,24,25,43)        179.9995         estimate D2E/DX2                !
 ! D95   D(27,24,25,23)       -179.9995         estimate D2E/DX2                !
 ! D96   D(27,24,25,43)          0.0006         estimate D2E/DX2                !
 ! D97   D(19,32,33,35)        179.9989         estimate D2E/DX2                !
 ! D98   D(19,32,33,36)          0.0002         estimate D2E/DX2                !
 ! D99   D(34,32,33,35)         -0.0011         estimate D2E/DX2                !
 ! D100  D(34,32,33,36)       -179.9998         estimate D2E/DX2                !
 ! D101  D(19,32,34,37)        179.9995         estimate D2E/DX2                !
 ! D102  D(19,32,34,38)          0.0005         estimate D2E/DX2                !
 ! D103  D(33,32,34,37)         -0.0005         estimate D2E/DX2                !
 ! D104  D(33,32,34,38)       -179.9995         estimate D2E/DX2                !
 ! D105  D(32,33,35,39)          0.0016         estimate D2E/DX2                !
 ! D106  D(32,33,35,40)        179.9998         estimate D2E/DX2                !
 ! D107  D(36,33,35,39)       -179.9997         estimate D2E/DX2                !
 ! D108  D(36,33,35,40)         -0.0015         estimate D2E/DX2                !
 ! D109  D(32,34,37,39)          0.0014         estimate D2E/DX2                !
 ! D110  D(32,34,37,41)        179.9996         estimate D2E/DX2                !
 ! D111  D(38,34,37,39)       -179.9996         estimate D2E/DX2                !
 ! D112  D(38,34,37,41)         -0.0014         estimate D2E/DX2                !
 ! D113  D(33,35,39,37)         -0.0007         estimate D2E/DX2                !
 ! D114  D(33,35,39,44)        179.9993         estimate D2E/DX2                !
 ! D115  D(40,35,39,37)       -179.9988         estimate D2E/DX2                !
 ! D116  D(40,35,39,44)          0.0011         estimate D2E/DX2                !
 ! D117  D(34,37,39,35)         -0.0009         estimate D2E/DX2                !
 ! D118  D(34,37,39,44)        179.9992         estimate D2E/DX2                !
 ! D119  D(41,37,39,35)       -179.9991         estimate D2E/DX2                !
 ! D120  D(41,37,39,44)          0.001          estimate D2E/DX2                !
 --------------------------------------------------------------------------------
 Trust Radius=3.00D-01 FncErr=1.00D-07 GrdErr=1.00D-06
 Number of steps in this run=    262 maximum allowed number of steps=    276.
 GradGradGradGradGradGradGradGradGradGradGradGradGradGradGradGradGradGrad

 Leave Link  103 at Tue Nov 23 07:57:50 2021, MaxMem=  5242880000 cpu:         1.0
 (Enter /opt/nce/packages/global/g09/l202.exe)
                          Input orientation:                          
 ---------------------------------------------------------------------
 Center     Atomic      Atomic             Coordinates (Angstroms)
 Number     Number       Type             X           Y           Z
 ---------------------------------------------------------------------
      1          6           0        0.687878    3.640368   -0.000442
      2          6           0        1.377119    2.432069   -0.000400
      3          6           0        0.702924    1.221478   -0.001044
      4          6           0       -0.702935    1.221471   -0.001593
      5          6           0       -1.377150    2.432050   -0.001655
      6          6           0       -0.687930    3.640359   -0.001117
      7          6           0       -0.681219   -1.233610   -0.246944
      8          6           0        0.702936   -1.221462   -0.001168
      9          6           0        1.377151   -2.432041   -0.000846
     10          1           0        2.460177   -2.437702   -0.000591
     11          6           0        0.687931   -3.640350   -0.000849
     12          6           0       -0.687878   -3.640360   -0.001156
     13          6           0       -1.377118   -2.432061   -0.001511
     14          1           0        2.460144    2.437757    0.000140
     15          1           0       -2.460176    2.437713   -0.002169
     16          1           0       -1.243512    4.570536   -0.001203
     17          1           0        1.243515   -4.570526   -0.000604
     18          1           0       -1.243450   -4.570544   -0.001132
     19          7           0        1.386589    0.000009   -0.001133
     20          6           0       -2.808127   -0.000011   -0.000923
     21          6           0       -3.496490   -0.000670   -1.204845
     22          6           0       -3.494276    0.000644    1.204272
     23          6           0       -4.876344   -0.000691   -1.209067
     24          6           0       -4.874103    0.000649    1.211073
     25          6           0       -5.565872   -0.000026    0.001639
     26          1           0       -5.426140   -0.001202   -2.142108
     27          1           0       -5.422183    0.001154    2.145123
     28          1           0       -2.939173   -0.001179   -2.134883
     29          1           0       -2.935241    0.001159    2.133285
     30          1           0        1.243449    4.570553    0.000044
     31          7           0       -1.386588   -0.000004   -0.002136
     32          6           0        2.808128    0.000012   -0.000284
     33          6           0        3.496115    0.270139   -1.173734
     34          6           0        3.494653   -0.270120    1.174024
     35          6           0        4.875963    0.271389   -1.178230
     36          1           0        2.938507    0.478596   -2.079932
     37          6           0        4.874487   -0.271374    1.180263
     38          1           0        2.935909   -0.478578    2.079525
     39          6           0        5.565873    0.000009    0.001449
     40          1           0        5.425469    0.480737   -2.087657
     41          1           0        5.422858   -0.480723    2.090376
     42          1           0       -2.460143   -2.437746   -0.001779
     43          6           0       -6.990591   -0.000034    0.002981
     44          6           0        6.990593    0.000007    0.002350
     45          7           0       -8.141361   -0.000041    0.004069
     46          7           0        8.141364    0.000007    0.003079
 ---------------------------------------------------------------------
                    Distance matrix (angstroms):
                    1          2          3          4          5
     1  C    0.000000
     2  C    1.391057   0.000000
     3  C    2.418937   1.385666   0.000000
     4  C    2.790237   2.406693   1.405859   0.000000
     5  C    2.392567   2.754269   2.406697   1.385665   0.000000
     6  C    1.375808   2.392570   2.790244   2.418935   1.391055
     7  C    5.068615   4.211264   2.829095   2.467406   3.739191
     8  C    4.861853   3.715214   2.442940   2.818580   4.204154
     9  C    6.111403   4.864110   3.715210   4.204154   5.589772
    10  H    6.331191   4.988756   4.059253   4.836820   6.199965
    11  C    7.280718   6.111404   4.861851   5.056858   6.413938
    12  C    7.409568   6.413939   5.056857   4.861854   6.111404
    13  C    6.413938   5.589775   4.204155   3.715215   4.864111
    14  H    2.141775   1.083040   2.137091   3.388868   3.837299
    15  H    3.369959   3.837300   3.388869   2.137087   1.083041
    16  H    2.143707   3.382418   3.873603   3.392412   2.142658
    17  H    8.229673   7.003869   5.817177   6.110311   7.476895
    18  H    8.434993   7.476896   6.110310   5.817181   7.003870
    19  N    3.706806   2.432079   1.399780   2.420347   3.681450
    20  C    5.047218   4.840589   3.717461   2.433896   2.821811
    21  C    5.675974   5.578617   4.536283   3.278017   3.443457
    22  C    5.673565   5.576159   4.534282   3.276601   3.442124
    23  C    6.758598   6.817991   5.837915   4.513205   4.429496
    24  C    6.756549   6.815955   5.836341   4.512162   4.428442
    25  C    7.236150   7.356644   6.386696   5.014003   4.843593
    26  H    7.431620   7.536050   6.606400   5.327795   5.186191
    27  H    7.428336   7.532803   6.603950   5.326243   5.184612
    28  H    5.565267   5.395099   4.394659   3.323637   3.593213
    29  H    5.560901   5.390583   4.390989   3.321153   3.590940
    30  H    1.083468   2.142658   3.392414   3.873598   3.382416
    31  N    4.189955   3.681448   2.420347   1.399780   2.432072
    32  C    4.212796   2.821824   2.433899   3.717462   4.840595
    33  C    4.541063   3.246660   3.175243   4.462171   5.458603
    34  C    4.954723   3.628367   3.376300   4.607240   5.693717
    35  C    5.502478   4.277585   4.438771   5.780245   6.719688
    36  H    4.403000   3.252451   3.141891   4.258104   5.173017
    37  C    5.850084   4.575385   4.585415   5.893472   6.912915
    38  H    5.132799   3.902279   3.493592   4.523539   5.604065
    39  C    6.086629   4.843612   5.014007   6.386700   7.356657
    40  H    6.065023   4.955147   5.215850   6.515957   7.377985
    41  H    6.616264   5.405895   5.435927   6.693215   7.687714
    42  H    6.844962   6.199974   4.836829   4.059267   4.988766
    43  C    8.497731   8.713995   7.789883   6.405210   6.117661
    44  C    7.278492   6.117681   6.405215   7.789888   8.714010
    45  N    9.550291   9.824288   8.928242   7.538057   7.188160
    46  N    8.294980   7.188181   7.538063   8.928248   9.824305
                    6          7          8          9         10
     6  C    0.000000
     7  C    4.880169   0.000000
     8  C    5.056858   1.405859   0.000000
     9  C    6.413938   2.394512   1.385665   0.000000
    10  H    6.844955   3.373262   2.137086   1.083041   0.000000
    11  C    7.409569   2.779844   2.418935   1.391055   2.141779
    12  C    7.280719   2.419277   2.790239   2.392568   3.369961
    13  C    6.111404   1.407408   2.406694   2.754269   3.837299
    14  H    3.369959   4.838197   4.059269   4.988768   4.875459
    15  H    2.141778   4.086957   4.836821   6.199966   6.926727
    16  H    1.083467   5.836495   6.110311   7.476895   7.926709
    17  H    8.434993   3.860090   3.392411   2.142656   2.455444
    18  H    8.229674   3.392883   3.873599   3.382417   4.273859
    19  N    4.189961   2.420345   1.399776   2.432068   2.663649
    20  C    4.212782   2.471038   3.717460   4.840591   5.804943
    21  C    4.753321   3.219234   4.535896   5.577953   6.547613
    22  C    4.751428   3.397455   4.534668   5.576833   6.546200
    23  C    5.679718   4.477147   5.837608   6.817438   7.824575
    24  C    5.678110   4.607546   5.836647   6.816517   7.823385
    25  C    6.086602   5.044141   6.386695   7.356648   8.388071
    26  H    6.347869   5.255925   6.605924   7.535168   8.527404
    27  H    6.345338   5.451914   6.604426   7.533695   8.525474
    28  H    4.783498   3.190855   4.393949   5.393872   6.296414
    29  H    4.780152   3.502964   4.391699   5.391818   6.293807
    30  H    2.143709   6.119940   5.817181   7.003870   7.113091
    31  N    3.706800   1.441964   2.420345   3.681448   4.554116
    32  C    5.047232   3.709206   2.433893   2.821804   2.462421
    33  C    5.499059   4.535452   3.376631   3.628698   3.127592
    34  C    5.845238   4.515016   3.174872   3.246234   2.673625
    35  C    6.610027   5.832203   4.585655   4.575637   3.816023
    36  H    5.241112   4.403852   3.494171   3.902850   3.613482
    37  C    6.902014   5.816244   4.438500   4.277249   3.451998
    38  H    5.867446   4.366481   3.141231   3.251721   2.896787
    39  C    7.236174   6.372572   5.013996   4.843579   3.948137
    40  H    7.191002   6.604458   5.436289   5.406287   4.654685
    41  H    7.661552   6.579488   5.215449   4.954653   4.120605
    42  H    6.331200   2.162086   3.388866   3.837298   4.920320
    43  C    7.278462   6.433688   7.789882   8.713999   9.760085
    44  C    8.497758   7.774360   6.405203   6.117647   5.144619
    45  N    8.294949   7.565607   8.928241   9.824292  10.878181
    46  N    9.550320   8.911919   7.538051   7.188146   6.182097
                   11         12         13         14         15
    11  C    0.000000
    12  C    1.375809   0.000000
    13  C    2.392570   1.391057   0.000000
    14  H    6.331202   6.844965   6.199977   0.000000
    15  H    6.844956   6.331194   4.988759   4.920321   0.000000
    16  H    8.434994   8.229674   7.003871   4.273853   2.455444
    17  H    1.083467   2.143709   3.382418   7.113102   7.926711
    18  H    2.143710   1.083468   2.142656   7.926720   7.113093
    19  N    3.706796   4.189952   3.681446   2.663670   4.554119
    20  C    5.047226   4.212790   2.821818   5.804946   2.462432
    21  C    5.675056   4.752316   3.442588   6.548237   2.909654
    22  C    5.674505   4.752456   3.443011   6.545576   2.909324
    23  C    6.757815   5.678863   4.428807   7.825105   3.638720
    24  C    6.757355   5.678990   4.429147   7.822853   3.638445
    25  C    7.236160   6.086614   4.843600   8.388070   3.948156
    26  H    7.430360   6.346517   5.185153   8.528260   4.395974
    27  H    7.429619   6.346714   5.185665   8.524615   4.395585
    28  H    5.563591   4.781711   3.591724   6.297567   3.275073
    29  H    5.562598   4.781960   3.592445   6.292654   3.274545
    30  H    8.229674   8.434994   7.476896   2.455436   4.273857
    31  N    4.189958   3.706803   2.432076   4.554122   2.663655
    32  C    4.212775   5.047214   4.840585   2.462457   5.804948
    33  C    4.955147   5.845745   5.694242   2.673908   6.445801
    34  C    4.540536   5.498466   5.458024   3.127429   6.646486
    35  C    5.850431   6.902435   6.913344   3.452229   7.739187
    36  H    5.133555   5.868370   5.605031   2.897213   6.107455
    37  C    5.502025   6.609518   6.719206   3.815905   7.907881
    38  H    4.402064   5.240032   5.171945   3.613199   6.477341
    39  C    6.086586   7.236138   7.356636   3.948186   8.388080
    40  H    6.616827   7.662241   7.688406   4.120920   8.388231
    41  H    6.064321   7.190195   7.377220   4.654491   8.662461
    42  H    3.369960   2.141776   1.083040   6.926742   4.875459
    43  C    8.497742   7.278474   6.117667   9.760083   5.144638
    44  C    7.278445   8.497717   8.713986   5.144667   9.760096
    45  N    9.550302   8.294960   7.188166  10.878179   6.182115
    46  N    8.294931   9.550278   9.824280   6.182143  10.878193
                   16         17         18         19         20
    16  H    0.000000
    17  H    9.473348   0.000000
    18  H    9.141080   2.486965   0.000000
    19  N    5.273248   4.572774   5.273240   0.000000
    20  C    4.830934   6.107816   4.830940   4.194716   0.000000
    21  C    5.236467   6.693387   5.235347   5.029253   1.386821
    22  C    5.234790   6.692831   5.235931   5.027509   1.386829
    23  C    5.962593   7.732816   5.961592   6.378357   2.395232
    24  C    5.961096   7.732338   5.962121   6.376967   2.395244
    25  C    6.290695   8.201050   6.290705   6.952462   2.757746
    26  H    6.555810   8.363555   6.554202   7.141222   3.382110
    27  H    6.553416   8.362771   6.555047   7.139033   3.382130
    28  H    5.322446   6.552019   5.320476   4.823392   2.137980
    29  H    5.319511   6.551014   5.321500   4.820161   2.137990
    30  H    2.486961   9.141079   9.473348   4.572785   6.107808
    31  N    4.572779   5.273245   4.572781   2.773177   1.421540
    32  C    6.107821   4.830925   6.107804   1.421539   5.616255
    33  C    6.506328   5.466487   6.875368   2.428593   6.418094
    34  C    6.874832   4.994083   6.505709   2.428559   6.417047
    35  C    7.570735   6.166492   7.891583   3.692551   7.778493
    36  H    6.209216   5.717537   6.877789   2.637972   6.129856
    37  C    7.891126   5.749879   7.570186   3.692530   7.777622
    38  H    6.876812   4.892359   6.208089   2.637912   6.127907
    39  C    8.201064   6.290673   8.201027   4.179285   8.374000
    40  H    8.096608   6.881845   8.622268   4.571350   8.507508
    41  H    8.621508   6.210120   8.095721   4.571321   8.506099
    42  H    7.113101   4.273855   2.455437   4.554119   2.462447
    43  C    7.342959   9.417532   7.342970   8.377181   4.182466
    44  C    9.417549   7.342935   9.417506   5.604005   9.798721
    45  N    8.274692  10.438642   8.274702   9.527951   5.333236
    46  N   10.438661   8.274666  10.438615   6.754776  10.949492
                   21         22         23         24         25
    21  C    0.000000
    22  C    2.409118   0.000000
    23  C    1.379860   2.781064   0.000000
    24  C    2.781093   1.379844   2.420141   0.000000
    25  C    2.395401   2.395378   1.393290   1.393297   0.000000
    26  H    2.145230   3.863983   1.082978   3.398319   2.148296
    27  H    3.864011   2.145233   3.398313   1.082978   2.148295
    28  H    1.084239   3.384981   2.147037   3.865149   3.385894
    29  H    3.384984   1.084244   3.865126   2.147012   3.385873
    30  H    6.694390   6.691806   7.733698   7.731433   8.201039
    31  N    2.428620   2.428532   3.692571   3.692511   4.179286
    32  C    6.418658   6.416483   7.778963   7.777150   8.374000
    33  C    6.997916   7.388715   8.376913   8.707496   9.141887
    34  C    7.389702   6.994237   8.707773   8.373217   9.140052
    35  C    8.376914   8.706924   9.756150  10.042204  10.511787
    36  H    6.511885   7.238448   7.877818   8.490937   8.768493
    37  C    8.708345   8.373217  10.042951   9.752433  10.510180
    38  H    7.238180   6.507150   8.489671   7.872748   8.765096
    39  C    9.142296   9.139643  10.512148  10.509819  11.131745
    40  H    8.978445   9.519934  10.350413  10.825585  11.198477
    41  H    9.520698   8.973972  10.825447  10.345641  11.195806
    42  H    2.908732   2.910281   3.637968   3.639228   3.948170
    43  C    3.696970   3.696934   2.437027   2.437008   1.424720
    44  C   10.556336  10.553535  11.928610  11.926107  12.556465
    45  N    4.799615   4.799572   3.483107   3.483078   2.575490
    46  N   11.700373  11.697478  13.074021  13.071405  13.707236
                   26         27         28         29         30
    26  H    0.000000
    27  H    4.287233   0.000000
    28  H    2.486977   4.948110   0.000000
    29  H    4.948087   2.486970   4.268170   0.000000
    30  H    8.364997   8.361305   6.553852   6.549162   0.000000
    31  N    4.571374   4.571296   2.638017   2.637869   5.273243
    32  C    8.508265   8.505339   6.130904   6.126859   4.830949
    33  C    8.978753   9.519622   6.512323   7.236786   4.994579
    34  C    9.521008   8.973661   7.239842   6.506713   5.466102
    35  C   10.350686  10.824487   7.878187   8.488467   5.750330
    36  H    8.378627   9.379774   5.897484   7.244312   4.893223
    37  C   10.826544  10.345368   8.492142   7.872381   6.166167
    38  H    9.379443   8.372106   7.246085   5.890963   5.716851
    39  C   11.199071  11.195209   8.769249   8.764341   6.290726
    40  H   10.862442  11.654098   8.378646   9.378050   6.210828
    41  H   11.655239  10.855879   9.381169   8.372088   6.881303
    42  H    4.394871   4.396715   3.273601   3.276045   7.926718
    43  C    2.654979   2.654935   4.580879   4.580836   9.417520
    44  C   12.600554  12.596368  10.157166  10.151998   7.342994
    45  N    3.460997   3.460931   5.624756   5.624700  10.438630
    46  N   13.736047  13.731648  11.284910  11.279581   8.274729
                   31         32         33         34         35
    31  N    0.000000
    32  C    4.194716   0.000000
    33  C    5.028559   1.386824   0.000000
    34  C    5.028203   1.386826   2.409118   0.000000
    35  C    6.377805   2.395234   1.379856   2.781070   0.000000
    36  H    4.822109   2.137984   1.084240   3.384982   2.147030
    37  C    6.377521   2.395241   2.781088   1.379849   2.420141
    38  H    4.821445   2.137986   3.384982   1.084242   3.865130
    39  C    6.952462   2.757746   2.395396   2.395382   1.393293
    40  H    7.140353   3.382115   2.145231   3.863988   1.082978
    41  H    7.139905   3.382126   3.864006   2.145234   3.398316
    42  H    2.663664   5.804941   6.647039   6.445208   7.908344
    43  C    5.604005   9.798720  10.555977  10.553892  11.928287
    44  C    8.377182   4.182466   3.696961   3.696943   2.437022
    45  N    6.754776  10.949490  11.700046  11.697801  13.073723
    46  N    9.527953   5.333237   4.799604   4.799584   3.483100
                   36         37         38         39         40
    36  H    0.000000
    37  C    3.865145   0.000000
    38  H    4.268169   2.147018   0.000000
    39  C    3.385889   1.393293   3.385876   0.000000
    40  H    2.486976   3.398317   4.948091   2.148297   0.000000
    41  H    4.948106   1.082978   2.486973   2.148295   4.287233
    42  H    6.478363   7.738681   6.106353   8.388062   8.663216
    43  C   10.156505  11.926428  10.152657  12.556464  12.600018
    44  C    4.580868   2.437013   4.580847   1.424720   2.654966
    45  N   11.284308  13.071700  11.280179  13.707234  13.735551
    46  N    5.624741   3.483087   5.624716   2.575492   3.460977
                   41         42         43         44         45
    41  H    0.000000
    42  H    8.387416   0.000000
    43  C   12.596904   5.144650   0.000000
    44  C    2.654947   9.760075  13.981184   0.000000
    45  N   13.732143   6.182126   1.150771  15.131954   0.000000
    46  N    3.460952  10.878171  15.131955   1.150771  16.282725
                   46
    46  N    0.000000
 Symmetry turned off by external request.
 Stoichiometry    C26H16N4
 Framework group  C1[X(C26H16N4)]
 Deg. of freedom   132
 Full point group                 C1      NOp   1
 Rotational constants (GHZ):      0.3955416      0.0810295      0.0704948
 Leave Link  202 at Tue Nov 23 07:57:51 2021, MaxMem=  5242880000 cpu:         0.3
 (Enter /opt/nce/packages/global/g09/l301.exe)
 Standard basis: def2TZVP (5D, 7F)
 Ernie: Thresh=  0.10000D-02 Tol=  0.10000D-05 Strict=F.
  1026 basis functions,  1658 primitive gaussians,  1176 cartesian basis functions
   100 alpha electrons      100 beta electrons
       nuclear repulsion energy      2548.8455035060 Hartrees.
 IExCor= 4235 DFT=T Ex+Corr=M06 ExCW=0 ScaHFX=  0.270000
 ScaDFX=  1.000000  1.000000  1.000000  1.000000 ScalE2=  1.000000  1.000000
 IRadAn=      5 IRanWt=     -1 IRanGd=            0 ICorTp=0 IEmpDi=  4
 NAtoms=   46 NActive=   46 NUniq=   46 SFac= 1.00D+00 NAtFMM=   60 NAOKFM=F Big=F
 Integral buffers will be    131072 words long.
 Raffenetti 2 integral format.
 Two-electron integral symmetry is turned off.
 ------------------------------------------------------------------------------
 Polarizable Continuum Model (PCM)
 =================================
 Model                : PCM (using non-symmetric T matrix).
 Atomic radii         : SMD-Coulomb.
 Polarization charges : Total charges.
 Charge compensation  : None.
 Solution method      : On-the-fly selection.
 Cavity type          : VdW (van der Waals Surface) (Alpha=1.000).
 Cavity algorithm     : GePol (No added spheres)
                        Default sphere list used, NSphG=   46.
                        Lebedev-Laikov grids with approx.  5.0 points / Ang**2.
                        Smoothing algorithm: York/Karplus (Gamma=1.0000).
                        Polarization charges: spherical gaussians, with
                                              point-specific exponents (IZeta= 3).
                        Self-potential: point-specific (ISelfS= 7).
                        Self-field    : sphere-specific E.n sum rule (ISelfD= 2).
 1st derivatives      : Analytical E(r).r(x)/FMM algorithm (CHGder, D1EAlg=3).
                        Cavity 1st derivative terms included.
 Solvent              : n,n-DiMethylFormamide, Eps=  37.219000 Eps(inf)=   2.046330
 ------------------------------------------------------------------------------
 GePol: Number of generator spheres                  =      46
 GePol: Total number of spheres                      =      46
 GePol: Number of exposed spheres                    =      46 (100.00%)
 GePol: Number of points                             =    3756
 GePol: Average weight of points                     =       0.11
 GePol: Minimum weight of points                     =   0.20D-10
 GePol: Maximum weight of points                     =    0.17992
 GePol: Number of points with low weight             =     182
 GePol: Fraction of low-weight points (<1% of avg)   =       4.85%
 GePol: Cavity surface area                          =    407.496 Ang**2
 GePol: Cavity volume                                =    395.399 Ang**3
 ------------------------------------------------------------------------------
 Atomic radii for non-electrostatic terms: SMD-CDS.
 ------------------------------------------------------------------------------
 PCM non-electrostatic energy =        -0.0014821677 Hartrees.
 Nuclear repulsion after PCM non-electrostatic terms =     2548.8440213383 Hartrees.
 Leave Link  301 at Tue Nov 23 07:57:51 2021, MaxMem=  5242880000 cpu:         2.8
 (Enter /opt/nce/packages/global/g09/l302.exe)
 NPDir=0 NMtPBC=     1 NCelOv=     1 NCel=       1 NClECP=     1 NCelD=      1
         NCelK=      1 NCelE2=     1 NClLst=     1 CellRange=     0.0.
 One-electron integrals computed using PRISM.
   1 Symmetry operations used in ECPInt.
 ECPInt:  NShTT=   77815 NPrTT=  243264 LenC2=   62869 LenP2D=  134627.
 LDataN:  DoStor=T MaxTD1= 6 Len=  172
 NBasis=  1026 RedAO= T EigKep=  3.93D-06  NBF=  1026
 NBsUse=  1026 1.00D-06 EigRej= -1.00D+00 NBFU=  1026
 Precomputing XC quadrature grid using
 IXCGrd= 4 IRadAn=           5 IRanWt=          -1 IRanGd=           0 AccXCQ= 0.00D+00.
 Generated NRdTot=       0 NPtTot=           0 NUsed=           0 NTot=          32
 NSgBfM=  1085  1085  1085  1085  1085 MxSgAt=    46 MxSgA2=    46.
 Leave Link  302 at Tue Nov 23 07:57:53 2021, MaxMem=  5242880000 cpu:        27.1
 (Enter /opt/nce/packages/global/g09/l303.exe)
 DipDrv:  MaxL=1.
 Leave Link  303 at Tue Nov 23 07:57:53 2021, MaxMem=  5242880000 cpu:         2.6
 (Enter /opt/nce/packages/global/g09/l401.exe)
 ExpMin= 9.52D-02 ExpMax= 1.97D+04 ExpMxC= 6.73D+02 IAcc=3 IRadAn=         5 AccDes= 0.00D+00
 Harris functional with IExCor= 1009 and IRadAn=       5 diagonalized for initial guess.
 HarFok:  IExCor= 1009 AccDes= 0.00D+00 IRadAn=         5 IDoV= 1 UseB2=F ITyADJ=14
 ICtDFT=  3500011 ScaDFX=  1.000000  1.000000  1.000000  1.000000
 FoFCou: FMM=F IPFlag=           0 FMFlag=      100000 FMFlg1=           0
         NFxFlg=           0 DoJE=T BraDBF=F KetDBF=T FulRan=T
         wScrn=  0.000000 ICntrl=     500 IOpCl=  0 I1Cent=   200000004 NGrid=           0
         NMat0=    1 NMatS0=      1 NMatT0=    0 NMatD0=    1 NMtDS0=    0 NMtDT0=    0
 Symmetry not used in FoFCou.
 Harris En= -1218.71405395622    
 JPrj=0 DoOrth=F DoCkMO=F.
 Leave Link  401 at Tue Nov 23 07:58:03 2021, MaxMem=  5242880000 cpu:       116.4
 (Enter /opt/nce/packages/global/g09/l502.exe)
 Closed shell SCF:
 Using DIIS extrapolation, IDIIS=  1040.
 Two-electron integral symmetry not used.
 IVT=     4188738 IEndB=     4188738 NGot=  5242880000 MDV=  5240092055
 LenX=  5240092055 LenY=  5238707903
 Requested convergence on RMS density matrix=1.00D-08 within 128 cycles.
 Requested convergence on MAX density matrix=1.00D-06.
 Requested convergence on             energy=1.00D-06.
 No special actions if energy rises.
 Fock matrices will be formed incrementally for  20 cycles.

 Cycle   1  Pass 1  IDiag  1:
 FoFJK:  IHMeth= 1 ICntrl=       0 DoSepK=F KAlg= 0 I1Cent=   0 FoldK=F
 IRaf= 690000000 NMat=   1 IRICut=       1 DoRegI=T DoRafI=F ISym2E= 0.
 FoFCou: FMM=F IPFlag=           0 FMFlag=      100000 FMFlg1=           0
         NFxFlg=           0 DoJE=F BraDBF=F KetDBF=F FulRan=T
         wScrn=  0.000000 ICntrl=       0 IOpCl=  0 I1Cent=           0 NGrid=           0
         NMat0=    1 NMatS0=      1 NMatT0=    0 NMatD0=    1 NMtDS0=    0 NMtDT0=    0
 Symmetry not used in FoFCou.
 Inv3:  Mode=1 IEnd=    42322608.
 Iteration    1 A*A^-1 deviation from unit magnitude is 6.44D-15 for   3744.
 Iteration    1 A*A^-1 deviation from orthogonality  is 4.44D-15 for   2786   2409.
 Iteration    1 A^-1*A deviation from unit magnitude is 6.44D-15 for   3744.
 Iteration    1 A^-1*A deviation from orthogonality  is 9.68D-13 for   2262   2239.
 E= -1218.36683200212    
 DIIS: error= 2.09D-02 at cycle   1 NSaved=   1.
 NSaved= 1 IEnMin= 1 EnMin= -1218.36683200212     IErMin= 1 ErrMin= 2.09D-02
 ErrMax= 2.09D-02  0.00D+00 EMaxC= 1.00D-01 BMatC= 5.68D-01 BMatP= 5.68D-01
 IDIUse=3 WtCom= 7.91D-01 WtEn= 2.09D-01
 Coeff-Com:  0.100D+01
 Coeff-En:   0.100D+01
 Coeff:      0.100D+01
 Gap=     0.142 Goal=   None    Shift=    0.000
 GapD=    0.142 DampG=1.000 DampE=0.500 DampFc=0.5000 IDamp=-1.
 Damping current iteration by 5.00D-01
 RMSDP=2.70D-03 MaxDP=2.44D-01              OVMax= 3.41D-01

 Cycle   2  Pass 1  IDiag  1:
 RMSU=  1.35D-03    CP:  1.01D+00
 E= -1218.58171301910     Delta-E=       -0.214881016972 Rises=F Damp=T
 DIIS: error= 7.14D-03 at cycle   2 NSaved=   2.
 NSaved= 2 IEnMin= 2 EnMin= -1218.58171301910     IErMin= 2 ErrMin= 7.14D-03
 ErrMax= 7.14D-03  0.00D+00 EMaxC= 1.00D-01 BMatC= 6.54D-02 BMatP= 5.68D-01
 IDIUse=3 WtCom= 9.29D-01 WtEn= 7.14D-02
 Coeff-Com:  0.113D+00 0.887D+00
 Coeff-En:   0.196D+00 0.804D+00
 Coeff:      0.119D+00 0.881D+00
 Gap=     0.131 Goal=   None    Shift=    0.000
 RMSDP=1.11D-03 MaxDP=8.80D-02 DE=-2.15D-01 OVMax= 2.90D-01

 Cycle   3  Pass 1  IDiag  1:
 RMSU=  1.11D-03    CP:  1.01D+00  1.01D+00
 E= -1218.85756065702     Delta-E=       -0.275847637927 Rises=F Damp=F
 DIIS: error= 8.16D-03 at cycle   3 NSaved=   3.
 NSaved= 3 IEnMin= 3 EnMin= -1218.85756065702     IErMin= 2 ErrMin= 7.14D-03
 ErrMax= 8.16D-03  0.00D+00 EMaxC= 1.00D-01 BMatC= 6.17D-02 BMatP= 6.54D-02
 IDIUse=3 WtCom= 9.18D-01 WtEn= 8.16D-02
 Coeff-Com: -0.197D-01 0.497D+00 0.522D+00
 Coeff-En:   0.000D+00 0.000D+00 0.100D+01
 Coeff:     -0.181D-01 0.457D+00 0.561D+00
 Gap=     0.134 Goal=   None    Shift=    0.000
 RMSDP=5.02D-04 MaxDP=2.62D-02 DE=-2.76D-01 OVMax= 1.30D-01

 Cycle   4  Pass 1  IDiag  1:
 RMSU=  4.38D-04    CP:  1.01D+00  9.49D-01  7.92D-01
 E= -1218.91145561592     Delta-E=       -0.053894958894 Rises=F Damp=F
 DIIS: error= 2.86D-03 at cycle   4 NSaved=   4.
 NSaved= 4 IEnMin= 4 EnMin= -1218.91145561592     IErMin= 4 ErrMin= 2.86D-03
 ErrMax= 2.86D-03  0.00D+00 EMaxC= 1.00D-01 BMatC= 8.96D-03 BMatP= 6.17D-02
 IDIUse=3 WtCom= 9.71D-01 WtEn= 2.86D-02
 Coeff-Com: -0.502D-02 0.776D-01 0.298D+00 0.629D+00
 Coeff-En:   0.000D+00 0.000D+00 0.139D+00 0.861D+00
 Coeff:     -0.488D-02 0.754D-01 0.294D+00 0.636D+00
 Gap=     0.128 Goal=   None    Shift=    0.000
 RMSDP=1.47D-04 MaxDP=8.82D-03 DE=-5.39D-02 OVMax= 2.63D-02

 Cycle   5  Pass 1  IDiag  1:
 RMSU=  7.90D-05    CP:  1.01D+00  9.62D-01  8.53D-01  7.67D-01
 E= -1218.92009290523     Delta-E=       -0.008637289317 Rises=F Damp=F
 DIIS: error= 6.49D-04 at cycle   5 NSaved=   5.
 NSaved= 5 IEnMin= 5 EnMin= -1218.92009290523     IErMin= 5 ErrMin= 6.49D-04
 ErrMax= 6.49D-04  0.00D+00 EMaxC= 1.00D-01 BMatC= 3.14D-04 BMatP= 8.96D-03
 IDIUse=3 WtCom= 9.94D-01 WtEn= 6.49D-03
 Coeff-Com: -0.543D-03 0.782D-02 0.111D+00 0.294D+00 0.587D+00
 Coeff-En:   0.000D+00 0.000D+00 0.000D+00 0.000D+00 0.100D+01
 Coeff:     -0.540D-03 0.777D-02 0.110D+00 0.293D+00 0.590D+00
 Gap=     0.128 Goal=   None    Shift=    0.000
 RMSDP=3.78D-05 MaxDP=4.33D-03 DE=-8.64D-03 OVMax= 4.35D-03

 Cycle   6  Pass 1  IDiag  1:
 RMSU=  3.63D-05    CP:  1.01D+00  9.68D-01  8.49D-01  7.65D-01  9.40D-01
 E= -1218.92028860678     Delta-E=       -0.000195701550 Rises=F Damp=F
 DIIS: error= 3.83D-04 at cycle   6 NSaved=   6.
 NSaved= 6 IEnMin= 6 EnMin= -1218.92028860678     IErMin= 6 ErrMin= 3.83D-04
 ErrMax= 3.83D-04  0.00D+00 EMaxC= 1.00D-01 BMatC= 9.48D-05 BMatP= 3.14D-04
 IDIUse=3 WtCom= 9.96D-01 WtEn= 3.83D-03
 Coeff-Com:  0.752D-03-0.321D-02 0.344D-01 0.102D+00 0.372D+00 0.494D+00
 Coeff-En:   0.000D+00 0.000D+00 0.000D+00 0.000D+00 0.225D+00 0.775D+00
 Coeff:      0.749D-03-0.320D-02 0.343D-01 0.102D+00 0.371D+00 0.495D+00
 Gap=     0.129 Goal=   None    Shift=    0.000
 RMSDP=1.35D-05 MaxDP=1.33D-03 DE=-1.96D-04 OVMax= 3.01D-03

 Cycle   7  Pass 1  IDiag  1:
 RMSU=  9.53D-06    CP:  1.01D+00  9.67D-01  8.51D-01  7.73D-01  1.02D+00
                    CP:  8.37D-01
 E= -1218.92036390419     Delta-E=       -0.000075297405 Rises=F Damp=F
 DIIS: error= 1.10D-04 at cycle   7 NSaved=   7.
 NSaved= 7 IEnMin= 7 EnMin= -1218.92036390419     IErMin= 7 ErrMin= 1.10D-04
 ErrMax= 1.10D-04  0.00D+00 EMaxC= 1.00D-01 BMatC= 8.91D-06 BMatP= 9.48D-05
 IDIUse=3 WtCom= 9.99D-01 WtEn= 1.10D-03
 Coeff-Com:  0.682D-03-0.294D-02 0.216D-02 0.829D-02 0.104D+00 0.278D+00
 Coeff-Com:  0.610D+00
 Coeff-En:   0.000D+00 0.000D+00 0.000D+00 0.000D+00 0.000D+00 0.432D-01
 Coeff-En:   0.957D+00
 Coeff:      0.682D-03-0.294D-02 0.215D-02 0.828D-02 0.104D+00 0.277D+00
 Coeff:      0.610D+00
 Gap=     0.128 Goal=   None    Shift=    0.000
 RMSDP=6.08D-06 MaxDP=4.48D-04 DE=-7.53D-05 OVMax= 7.73D-04

 Cycle   8  Pass 1  IDiag  1:
 RMSU=  3.84D-06    CP:  1.01D+00  9.67D-01  8.53D-01  7.73D-01  1.06D+00
                    CP:  9.08D-01  1.09D+00
 E= -1218.92037178777     Delta-E=       -0.000007883583 Rises=F Damp=F
 DIIS: error= 3.35D-05 at cycle   8 NSaved=   8.
 NSaved= 8 IEnMin= 8 EnMin= -1218.92037178777     IErMin= 8 ErrMin= 3.35D-05
 ErrMax= 3.35D-05  0.00D+00 EMaxC= 1.00D-01 BMatC= 1.02D-06 BMatP= 8.91D-06
 IDIUse=1 WtCom= 1.00D+00 WtEn= 0.00D+00
 Coeff-Com:  0.369D-03-0.138D-02-0.379D-02-0.114D-01-0.134D-02 0.797D-01
 Coeff-Com:  0.309D+00 0.629D+00
 Coeff:      0.369D-03-0.138D-02-0.379D-02-0.114D-01-0.134D-02 0.797D-01
 Coeff:      0.309D+00 0.629D+00
 Gap=     0.128 Goal=   None    Shift=    0.000
 RMSDP=2.45D-06 MaxDP=1.57D-04 DE=-7.88D-06 OVMax= 3.78D-04

 Cycle   9  Pass 1  IDiag  1:
 RMSU=  1.62D-06    CP:  1.01D+00  9.67D-01  8.53D-01  7.74D-01  1.07D+00
                    CP:  9.37D-01  1.17D+00  1.04D+00
 E= -1218.92037277625     Delta-E=       -0.000000988476 Rises=F Damp=F
 DIIS: error= 1.15D-05 at cycle   9 NSaved=   9.
 NSaved= 9 IEnMin= 9 EnMin= -1218.92037277625     IErMin= 9 ErrMin= 1.15D-05
 ErrMax= 1.15D-05  0.00D+00 EMaxC= 1.00D-01 BMatC= 1.29D-07 BMatP= 1.02D-06
 IDIUse=1 WtCom= 1.00D+00 WtEn= 0.00D+00
 Coeff-Com:  0.138D-03-0.405D-03-0.198D-02-0.670D-02-0.140D-01 0.758D-02
 Coeff-Com:  0.731D-01 0.301D+00 0.641D+00
 Coeff:      0.138D-03-0.405D-03-0.198D-02-0.670D-02-0.140D-01 0.758D-02
 Coeff:      0.731D-01 0.301D+00 0.641D+00
 Gap=     0.128 Goal=   None    Shift=    0.000
 RMSDP=1.05D-06 MaxDP=9.42D-05 DE=-9.88D-07 OVMax= 1.51D-04

 Cycle  10  Pass 1  IDiag  1:
 RMSU=  5.47D-07    CP:  1.01D+00  9.67D-01  8.53D-01  7.74D-01  1.08D+00
                    CP:  9.53D-01  1.21D+00  1.14D+00  1.06D+00
 E= -1218.92037290786     Delta-E=       -0.000000131609 Rises=F Damp=F
 DIIS: error= 4.50D-06 at cycle  10 NSaved=  10.
 NSaved=10 IEnMin=10 EnMin= -1218.92037290786     IErMin=10 ErrMin= 4.50D-06
 ErrMax= 4.50D-06  0.00D+00 EMaxC= 1.00D-01 BMatC= 1.75D-08 BMatP= 1.29D-07
 IDIUse=1 WtCom= 1.00D+00 WtEn= 0.00D+00
 Coeff-Com:  0.191D-04 0.165D-04-0.233D-03-0.125D-02-0.617D-02-0.825D-02
 Coeff-Com: -0.168D-01 0.329D-01 0.296D+00 0.704D+00
 Coeff:      0.191D-04 0.165D-04-0.233D-03-0.125D-02-0.617D-02-0.825D-02
 Coeff:     -0.168D-01 0.329D-01 0.296D+00 0.704D+00
 Gap=     0.128 Goal=   None    Shift=    0.000
 RMSDP=4.11D-07 MaxDP=2.60D-05 DE=-1.32D-07 OVMax= 6.96D-05

 Cycle  11  Pass 1  IDiag  1:
 RMSU=  2.06D-07    CP:  1.01D+00  9.67D-01  8.54D-01  7.74D-01  1.08D+00
                    CP:  9.57D-01  1.22D+00  1.18D+00  1.18D+00  1.12D+00
 E= -1218.92037292607     Delta-E=       -0.000000018213 Rises=F Damp=F
 DIIS: error= 1.16D-06 at cycle  11 NSaved=  11.
 NSaved=11 IEnMin=11 EnMin= -1218.92037292607     IErMin=11 ErrMin= 1.16D-06
 ErrMax= 1.16D-06  0.00D+00 EMaxC= 1.00D-01 BMatC= 2.86D-09 BMatP= 1.75D-08
 IDIUse=1 WtCom= 1.00D+00 WtEn= 0.00D+00
 Coeff-Com: -0.722D-05 0.607D-04 0.149D-03 0.271D-03-0.134D-02-0.542D-02
 Coeff-Com: -0.193D-01-0.259D-01 0.658D-01 0.363D+00 0.623D+00
 Coeff:     -0.722D-05 0.607D-04 0.149D-03 0.271D-03-0.134D-02-0.542D-02
 Coeff:     -0.193D-01-0.259D-01 0.658D-01 0.363D+00 0.623D+00
 Gap=     0.128 Goal=   None    Shift=    0.000
 RMSDP=1.48D-07 MaxDP=9.08D-06 DE=-1.82D-08 OVMax= 2.71D-05

 Cycle  12  Pass 1  IDiag  1:
 RMSU=  8.26D-08    CP:  1.01D+00  9.67D-01  8.54D-01  7.74D-01  1.08D+00
                    CP:  9.58D-01  1.23D+00  1.19D+00  1.21D+00  1.22D+00
                    CP:  1.07D+00
 E= -1218.92037292900     Delta-E=       -0.000000002934 Rises=F Damp=F
 DIIS: error= 5.22D-07 at cycle  12 NSaved=  12.
 NSaved=12 IEnMin=12 EnMin= -1218.92037292900     IErMin=12 ErrMin= 5.22D-07
 ErrMax= 5.22D-07  0.00D+00 EMaxC= 1.00D-01 BMatC= 2.81D-10 BMatP= 2.86D-09
 IDIUse=1 WtCom= 1.00D+00 WtEn= 0.00D+00
 Coeff-Com: -0.495D-05 0.244D-04 0.890D-04 0.256D-03 0.862D-04-0.138D-02
 Coeff-Com: -0.599D-02-0.143D-01-0.850D-03 0.806D-01 0.276D+00 0.665D+00
 Coeff:     -0.495D-05 0.244D-04 0.890D-04 0.256D-03 0.862D-04-0.138D-02
 Coeff:     -0.599D-02-0.143D-01-0.850D-03 0.806D-01 0.276D+00 0.665D+00
 Gap=     0.128 Goal=   None    Shift=    0.000
 RMSDP=4.63D-08 MaxDP=3.49D-06 DE=-2.93D-09 OVMax= 1.16D-05

 Cycle  13  Pass 1  IDiag  1:
 RMSU=  3.12D-08    CP:  1.01D+00  9.67D-01  8.54D-01  7.74D-01  1.08D+00
                    CP:  9.58D-01  1.23D+00  1.20D+00  1.22D+00  1.23D+00
                    CP:  1.17D+00  1.01D+00
 E= -1218.92037292921     Delta-E=       -0.000000000207 Rises=F Damp=F
 DIIS: error= 2.93D-07 at cycle  13 NSaved=  13.
 NSaved=13 IEnMin=13 EnMin= -1218.92037292921     IErMin=13 ErrMin= 2.93D-07
 ErrMax= 2.93D-07  0.00D+00 EMaxC= 1.00D-01 BMatC= 1.05D-10 BMatP= 2.81D-10
 IDIUse=1 WtCom= 1.00D+00 WtEn= 0.00D+00
 Coeff-Com: -0.203D-05 0.386D-05 0.237D-04 0.103D-03 0.326D-03 0.239D-03
 Coeff-Com:  0.363D-03-0.377D-02-0.143D-01-0.278D-01 0.411D-01 0.424D+00
 Coeff-Com:  0.579D+00
 Coeff:     -0.203D-05 0.386D-05 0.237D-04 0.103D-03 0.326D-03 0.239D-03
 Coeff:      0.363D-03-0.377D-02-0.143D-01-0.278D-01 0.411D-01 0.424D+00
 Coeff:      0.579D+00
 Gap=     0.128 Goal=   None    Shift=    0.000
 RMSDP=2.06D-08 MaxDP=1.65D-06 DE=-2.07D-10 OVMax= 3.81D-06

 Cycle  14  Pass 1  IDiag  1:
 RMSU=  1.44D-08    CP:  1.01D+00  9.67D-01  8.54D-01  7.74D-01  1.08D+00
                    CP:  9.58D-01  1.23D+00  1.20D+00  1.22D+00  1.23D+00
                    CP:  1.20D+00  1.13D+00  1.04D+00
 E= -1218.92037292936     Delta-E=       -0.000000000147 Rises=F Damp=F
 DIIS: error= 4.00D-08 at cycle  14 NSaved=  14.
 NSaved=14 IEnMin=14 EnMin= -1218.92037292936     IErMin=14 ErrMin= 4.00D-08
 ErrMax= 4.00D-08  0.00D+00 EMaxC= 1.00D-01 BMatC= 2.13D-12 BMatP= 1.05D-10
 IDIUse=1 WtCom= 1.00D+00 WtEn= 0.00D+00
 Coeff-Com: -0.814D-07-0.139D-05-0.466D-05-0.930D-05 0.502D-04 0.195D-03
 Coeff-Com:  0.737D-03 0.695D-03-0.235D-02-0.134D-01-0.208D-01 0.209D-01
 Coeff-Com:  0.120D+00 0.895D+00
 Coeff:     -0.814D-07-0.139D-05-0.466D-05-0.930D-05 0.502D-04 0.195D-03
 Coeff:      0.737D-03 0.695D-03-0.235D-02-0.134D-01-0.208D-01 0.209D-01
 Coeff:      0.120D+00 0.895D+00
 Gap=     0.128 Goal=   None    Shift=    0.000
 RMSDP=7.19D-09 MaxDP=7.43D-07 DE=-1.47D-10 OVMax= 1.37D-06

 Error on total polarization charges =  0.05926
 SCF Done:  E(RM06) =  -1218.92037293     A.U. after   14 cycles
            NFock= 14  Conv=0.72D-08     -V/T= 2.0047
 KE= 1.213185839419D+03 PE=-7.927070721920D+03 EE= 2.946120488233D+03
 SMD-CDS (non-electrostatic) energy       (kcal/mol) =      -0.93
 (included in total energy above)
 Leave Link  502 at Tue Nov 23 08:28:41 2021, MaxMem=  5242880000 cpu:     21978.3
 (Enter /opt/nce/packages/global/g09/l601.exe)
 Copying SCF densities to generalized density rwf, IOpCl= 0 IROHF=0.

 **********************************************************************

            Population analysis using the SCF density.

 **********************************************************************

 Alpha  occ. eigenvalues --  -14.43060 -14.42523 -14.39274 -14.39268 -10.29622
 Alpha  occ. eigenvalues --  -10.29452 -10.29302 -10.29099 -10.28903 -10.28839
 Alpha  occ. eigenvalues --  -10.28786 -10.28781 -10.28503 -10.28485 -10.26379
 Alpha  occ. eigenvalues --  -10.26375 -10.26352 -10.26346 -10.25484 -10.25470
 Alpha  occ. eigenvalues --  -10.25400 -10.25375 -10.24077 -10.23637 -10.23530
 Alpha  occ. eigenvalues --  -10.23492 -10.23393 -10.23212 -10.23130 -10.23041
 Alpha  occ. eigenvalues --   -1.01486  -0.97588  -0.93088  -0.93049  -0.89614
 Alpha  occ. eigenvalues --   -0.88831  -0.88179  -0.85209  -0.80654  -0.79049
 Alpha  occ. eigenvalues --   -0.78345  -0.78212  -0.77616  -0.77152  -0.74309
 Alpha  occ. eigenvalues --   -0.72931  -0.67780  -0.66498  -0.65327  -0.64486
 Alpha  occ. eigenvalues --   -0.64410  -0.61662  -0.61269  -0.57786  -0.57539
 Alpha  occ. eigenvalues --   -0.57499  -0.57378  -0.54746  -0.53762  -0.51399
 Alpha  occ. eigenvalues --   -0.50867  -0.49679  -0.48147  -0.47931  -0.46954
 Alpha  occ. eigenvalues --   -0.46351  -0.45639  -0.45337  -0.45164  -0.45051
 Alpha  occ. eigenvalues --   -0.44557  -0.44352  -0.44079  -0.42661  -0.42107
 Alpha  occ. eigenvalues --   -0.41997  -0.41503  -0.39620  -0.39423  -0.39007
 Alpha  occ. eigenvalues --   -0.38930  -0.38599  -0.38540  -0.37936  -0.37237
 Alpha  occ. eigenvalues --   -0.36427  -0.36331  -0.36191  -0.36040  -0.35696
 Alpha  occ. eigenvalues --   -0.34886  -0.33624  -0.29225  -0.28914  -0.28313
 Alpha  occ. eigenvalues --   -0.28192  -0.27628  -0.27251  -0.24062  -0.18354
 Alpha virt. eigenvalues --   -0.05508  -0.05439  -0.03316  -0.03056  -0.01750
 Alpha virt. eigenvalues --   -0.00532   0.00066   0.02937   0.03247   0.03252
 Alpha virt. eigenvalues --    0.04092   0.04514   0.05369   0.06230   0.06367
 Alpha virt. eigenvalues --    0.06538   0.06687   0.07088   0.07097   0.07618
 Alpha virt. eigenvalues --    0.08024   0.08932   0.08992   0.09987   0.10299
 Alpha virt. eigenvalues --    0.10392   0.11182   0.11531   0.11607   0.11982
 Alpha virt. eigenvalues --    0.12761   0.12936   0.13757   0.14341   0.14908
 Alpha virt. eigenvalues --    0.15172   0.16684   0.17389   0.17543   0.17955
 Alpha virt. eigenvalues --    0.18585   0.18745   0.19024   0.19558   0.20273
 Alpha virt. eigenvalues --    0.20606   0.20863   0.20919   0.21184   0.21468
 Alpha virt. eigenvalues --    0.21572   0.22243   0.22413   0.22715   0.22945
 Alpha virt. eigenvalues --    0.23357   0.23547   0.23651   0.23817   0.24037
 Alpha virt. eigenvalues --    0.24538   0.24837   0.25180   0.25271   0.25429
 Alpha virt. eigenvalues --    0.25495   0.25710   0.25993   0.27476   0.27756
 Alpha virt. eigenvalues --    0.27848   0.28021   0.28271   0.28588   0.28791
 Alpha virt. eigenvalues --    0.29021   0.29500   0.30308   0.30542   0.30667
 Alpha virt. eigenvalues --    0.30965   0.31428   0.31626   0.31918   0.32946
 Alpha virt. eigenvalues --    0.33214   0.33388   0.33543   0.33631   0.34152
 Alpha virt. eigenvalues --    0.34191   0.34299   0.34794   0.35243   0.35504
 Alpha virt. eigenvalues --    0.35732   0.36178   0.36288   0.36319   0.36893
 Alpha virt. eigenvalues --    0.37317   0.37423   0.37531   0.37729   0.37860
 Alpha virt. eigenvalues --    0.38147   0.38506   0.39052   0.39509   0.39715
 Alpha virt. eigenvalues --    0.40339   0.40790   0.41081   0.41277   0.41598
 Alpha virt. eigenvalues --    0.42108   0.42140   0.42411   0.42630   0.42965
 Alpha virt. eigenvalues --    0.43298   0.43766   0.44144   0.44330   0.44787
 Alpha virt. eigenvalues --    0.45041   0.45268   0.45783   0.46089   0.46453
 Alpha virt. eigenvalues --    0.46633   0.46885   0.47398   0.48392   0.48965
 Alpha virt. eigenvalues --    0.49230   0.49527   0.49632   0.50417   0.50622
 Alpha virt. eigenvalues --    0.50967   0.51677   0.51944   0.52140   0.52794
 Alpha virt. eigenvalues --    0.53161   0.54145   0.54222   0.55009   0.55486
 Alpha virt. eigenvalues --    0.56332   0.57605   0.57667   0.57831   0.58255
 Alpha virt. eigenvalues --    0.58389   0.58877   0.59451   0.59577   0.60164
 Alpha virt. eigenvalues --    0.60533   0.61414   0.61919   0.62033   0.62536
 Alpha virt. eigenvalues --    0.62809   0.63189   0.63387   0.63837   0.64031
 Alpha virt. eigenvalues --    0.64358   0.65127   0.65950   0.66441   0.66630
 Alpha virt. eigenvalues --    0.67139   0.67446   0.67677   0.67999   0.68498
 Alpha virt. eigenvalues --    0.68842   0.69005   0.69631   0.69788   0.70666
 Alpha virt. eigenvalues --    0.70820   0.71408   0.71991   0.72291   0.72844
 Alpha virt. eigenvalues --    0.73337   0.73958   0.74303   0.74914   0.75137
 Alpha virt. eigenvalues --    0.75385   0.76234   0.76315   0.76975   0.77239
 Alpha virt. eigenvalues --    0.77514   0.77813   0.78397   0.78998   0.79356
 Alpha virt. eigenvalues --    0.80095   0.80315   0.80685   0.81011   0.81529
 Alpha virt. eigenvalues --    0.83412   0.83795   0.84623   0.84903   0.85042
 Alpha virt. eigenvalues --    0.85444   0.85712   0.86282   0.86523   0.87090
 Alpha virt. eigenvalues --    0.87206   0.87825   0.88267   0.88482   0.89176
 Alpha virt. eigenvalues --    0.89579   0.90122   0.90775   0.90791   0.91741
 Alpha virt. eigenvalues --    0.92540   0.93568   0.94339   0.95123   0.95763
 Alpha virt. eigenvalues --    0.96299   0.97784   0.98376   0.98915   0.99610
 Alpha virt. eigenvalues --    1.00055   1.01091   1.01604   1.02797   1.03511
 Alpha virt. eigenvalues --    1.03825   1.04776   1.04966   1.05344   1.05917
 Alpha virt. eigenvalues --    1.06279   1.06509   1.07603   1.07772   1.08136
 Alpha virt. eigenvalues --    1.08505   1.09171   1.09765   1.10717   1.10861
 Alpha virt. eigenvalues --    1.12319   1.12710   1.13461   1.13674   1.14561
 Alpha virt. eigenvalues --    1.14834   1.15520   1.16019   1.16742   1.17914
 Alpha virt. eigenvalues --    1.18833   1.19020   1.19575   1.20086   1.20491
 Alpha virt. eigenvalues --    1.20935   1.21400   1.22625   1.22801   1.23096
 Alpha virt. eigenvalues --    1.23532   1.23762   1.24162   1.24279   1.24784
 Alpha virt. eigenvalues --    1.25036   1.25339   1.25745   1.26372   1.26819
 Alpha virt. eigenvalues --    1.27283   1.27916   1.29587   1.29993   1.30421
 Alpha virt. eigenvalues --    1.30807   1.31047   1.31585   1.32062   1.32962
 Alpha virt. eigenvalues --    1.33459   1.33948   1.34289   1.34944   1.35302
 Alpha virt. eigenvalues --    1.36104   1.36366   1.36545   1.37357   1.38112
 Alpha virt. eigenvalues --    1.39576   1.39928   1.40068   1.41178   1.41308
 Alpha virt. eigenvalues --    1.41969   1.42339   1.44199   1.44733   1.45040
 Alpha virt. eigenvalues --    1.45871   1.46378   1.46587   1.47448   1.47797
 Alpha virt. eigenvalues --    1.48330   1.49575   1.50483   1.50809   1.51201
 Alpha virt. eigenvalues --    1.51322   1.51889   1.52083   1.52474   1.52668
 Alpha virt. eigenvalues --    1.53611   1.53668   1.54257   1.55001   1.55427
 Alpha virt. eigenvalues --    1.56018   1.56289   1.57061   1.57203   1.57619
 Alpha virt. eigenvalues --    1.57953   1.58299   1.58446   1.59299   1.60130
 Alpha virt. eigenvalues --    1.60491   1.60940   1.61096   1.62094   1.62203
 Alpha virt. eigenvalues --    1.62815   1.63186   1.63807   1.64264   1.65027
 Alpha virt. eigenvalues --    1.66369   1.66682   1.66959   1.67182   1.67862
 Alpha virt. eigenvalues --    1.68166   1.68859   1.69688   1.71025   1.71102
 Alpha virt. eigenvalues --    1.71931   1.72725   1.72932   1.74640   1.75198
 Alpha virt. eigenvalues --    1.75536   1.76064   1.76515   1.77142   1.77543
 Alpha virt. eigenvalues --    1.78484   1.80502   1.82586   1.82805   1.83131
 Alpha virt. eigenvalues --    1.83685   1.84505   1.84682   1.85138   1.85320
 Alpha virt. eigenvalues --    1.86267   1.86413   1.87025   1.87115   1.87712
 Alpha virt. eigenvalues --    1.88218   1.88517   1.89693   1.90187   1.90277
 Alpha virt. eigenvalues --    1.91397   1.91821   1.92214   1.93091   1.93778
 Alpha virt. eigenvalues --    1.95370   1.96077   1.96362   1.97411   1.97879
 Alpha virt. eigenvalues --    1.98679   1.99859   2.00633   2.01652   2.02092
 Alpha virt. eigenvalues --    2.03211   2.03579   2.04095   2.05149   2.05946
[...]
    43  C   -0.000000  -0.008652   0.003744   0.005291  -0.084707  -0.085085
    44  C   -0.000027   0.000000   0.000000  -0.000000   0.000000  -0.000000
    45  N   -0.000000   0.000081  -0.000414  -0.000328  -0.002261  -0.002195
    46  N    0.000000  -0.000000  -0.000000  -0.000000   0.000000   0.000000
              25         26         27         28         29         30
     1  C   -0.000010   0.000000   0.000000  -0.000012  -0.000018   0.487851
     2  C    0.000014  -0.000000  -0.000000   0.000026   0.000035  -0.080422
     3  C    0.000201  -0.000005  -0.000002   0.001199   0.000524   0.020217
     4  C    0.002379  -0.000051  -0.000042   0.001720   0.000877  -0.005024
     5  C   -0.004443   0.000114   0.000097  -0.001718  -0.001201   0.019548
     6  C   -0.000219  -0.000002  -0.000002  -0.000212  -0.000099  -0.084757
     7  C    0.002283  -0.000037  -0.000049   0.001274   0.001418  -0.000009
     8  C    0.000212  -0.000004  -0.000002   0.001056   0.000654   0.000036
     9  C    0.000014  -0.000000  -0.000000   0.000031   0.000033   0.000000
    10  H   -0.000000   0.000000  -0.000000  -0.000001  -0.000000   0.000000
    11  C   -0.000011   0.000000   0.000000  -0.000016  -0.000017  -0.000000
    12  C   -0.000212  -0.000002  -0.000003  -0.000194  -0.000112   0.000000
    13  C   -0.004477   0.000115   0.000098  -0.001327  -0.001586   0.000000
    14  H   -0.000000   0.000000  -0.000000  -0.000001  -0.000000  -0.004434
    15  H   -0.001101   0.000002   0.000008   0.000263   0.000085  -0.000079
    16  H    0.000003  -0.000000  -0.000000   0.000001   0.000001  -0.007934
    17  H    0.000000   0.000000   0.000000  -0.000000  -0.000000  -0.000000
    18  H    0.000003  -0.000000  -0.000000   0.000001   0.000002   0.000000
    19  N   -0.000005  -0.000000  -0.000000  -0.000070  -0.000050  -0.000164
    20  C   -0.279557   0.020235   0.020040  -0.068033  -0.064012  -0.000001
    21  C    0.207230  -0.068361  -0.006499   0.496823   0.020905   0.000001
    22  C    0.205547  -0.006487  -0.067991   0.020466   0.494237   0.000002
    23  C    0.146704   0.477672   0.016405  -0.082827  -0.008114  -0.000000
    24  C    0.140839   0.016432   0.477385  -0.008016  -0.084266  -0.000000
    25  C    5.300395  -0.071772  -0.071724   0.021535   0.021420   0.000000
    26  H   -0.071772   0.495859   0.000021  -0.007095  -0.000009   0.000000
    27  H   -0.071724   0.000021   0.495415  -0.000011  -0.007190   0.000000
    28  H    0.021535  -0.007095  -0.000011   0.487398   0.000103  -0.000000
    29  H    0.021420  -0.000009  -0.007190   0.000103   0.489167  -0.000000
    30  H    0.000000   0.000000   0.000000  -0.000000  -0.000000   0.533863
    31  N   -0.004256  -0.000165  -0.000183  -0.012670  -0.010941   0.000023
    32  C   -0.000000   0.000000   0.000000  -0.000001  -0.000004   0.000108
    33  C   -0.000000  -0.000000   0.000000  -0.000001  -0.000001   0.000035
    34  C   -0.000000   0.000000  -0.000000   0.000000   0.000001   0.000012
    35  C    0.000000  -0.000000   0.000000  -0.000000   0.000000   0.000002
    36  H    0.000000   0.000000  -0.000000   0.000001  -0.000000   0.000001
    37  C    0.000000   0.000000  -0.000000   0.000000   0.000000  -0.000000
    38  H   -0.000000   0.000000   0.000000  -0.000000  -0.000001   0.000001
    39  C   -0.000000   0.000000   0.000000   0.000000  -0.000000   0.000003
    40  H    0.000000   0.000000  -0.000000   0.000000   0.000000  -0.000000
    41  H    0.000000  -0.000000   0.000000  -0.000000   0.000000  -0.000000
    42  H   -0.001165   0.000005   0.000010   0.000195   0.000129   0.000000
    43  C    0.177281  -0.006930  -0.006383   0.000324   0.000327   0.000000
    44  C    0.000000  -0.000000   0.000000   0.000000  -0.000000   0.000000
    45  N   -0.038971   0.001084   0.001075   0.000000   0.000001   0.000000
    46  N    0.000000   0.000000   0.000000  -0.000000  -0.000000   0.000000
              31         32         33         34         35         36
     1  C    0.000655  -0.009694  -0.001384  -0.001777   0.000419  -0.000212
     2  C    0.004083  -0.010186  -0.046702  -0.040092   0.004092  -0.001719
     3  C   -0.045387  -0.083828   0.013003   0.017013  -0.005474   0.001717
     4  C    0.379883   0.031785   0.004252   0.001097  -0.000715   0.001203
     5  C   -0.089803  -0.001844   0.000480   0.000213  -0.000012   0.000026
     6  C    0.005097   0.000224  -0.000158   0.000016   0.000019  -0.000012
     7  C    0.379219   0.032300   0.003567   0.001733  -0.000668   0.001060
     8  C   -0.045025  -0.078786   0.009222   0.018389  -0.004945   0.001276
     9  C    0.004088  -0.009490  -0.044216  -0.042531   0.004127  -0.001330
    10  H   -0.000049   0.012836  -0.007173  -0.010282   0.000644   0.000197
    11  C    0.000638  -0.010060  -0.001656  -0.001365   0.000325  -0.000194
    12  C    0.005212   0.000306  -0.000098  -0.000065   0.000026  -0.000016
    13  C   -0.090452  -0.002104   0.000471   0.000271  -0.000021   0.000030
    14  H   -0.000048   0.012320  -0.007972  -0.008957   0.000513   0.000263
    15  H   -0.009947   0.000012  -0.000003  -0.000001   0.000000  -0.000001
    16  H   -0.000164  -0.000001   0.000001   0.000002  -0.000000  -0.000000
    17  H    0.000023   0.000109   0.000024   0.000028   0.000000   0.000001
    18  H   -0.000163  -0.000001   0.000001   0.000002  -0.000000  -0.000000
    19  N   -0.005241   0.009033  -0.080564  -0.076372   0.021365  -0.012669
    20  C    0.008982   0.000859  -0.000098  -0.000125  -0.000000  -0.000001
    21  C   -0.080547  -0.000097   0.000041  -0.000017   0.000002  -0.000001
    22  C   -0.076355  -0.000126  -0.000017   0.000032  -0.000000   0.000000
    23  C    0.021372  -0.000000   0.000002  -0.000000   0.000000  -0.000000
    24  C    0.023227   0.000000  -0.000000   0.000001  -0.000000   0.000000
    25  C   -0.004256  -0.000000  -0.000000  -0.000000   0.000000   0.000000
    26  H   -0.000165   0.000000  -0.000000   0.000000  -0.000000   0.000000
    27  H   -0.000183   0.000000   0.000000  -0.000000   0.000000  -0.000000
    28  H   -0.012670  -0.000001  -0.000001   0.000000  -0.000000   0.000001
    29  H   -0.010941  -0.000004  -0.000001   0.000001   0.000000  -0.000000
    30  H    0.000023   0.000108   0.000035   0.000012   0.000002   0.000001
    31  N    6.672560  -0.004231   0.000259   0.000218   0.000036  -0.000070
    32  C   -0.004231   5.932604   0.160243   0.153697   0.161140  -0.068073
    33  C    0.000259   0.160243   5.474198   0.179744   0.107662   0.496850
    34  C    0.000218   0.153697   0.179744   5.438947  -0.176658   0.020465
    35  C    0.000036   0.161140   0.107662  -0.176658   5.354989  -0.082821
    36  H   -0.000070  -0.068073   0.496850   0.020465  -0.082821   0.487404
    37  C    0.000027   0.157963  -0.178808   0.099699   0.144529  -0.008018
    38  H   -0.000050  -0.063984   0.020909   0.494221  -0.008114   0.000103
    39  C   -0.000005  -0.279571   0.207261   0.205533   0.146736   0.021539
    40  H   -0.000000   0.020240  -0.068366  -0.006488   0.477678  -0.007096
    41  H   -0.000000   0.020037  -0.006498  -0.067986   0.016403  -0.000011
    42  H   -0.010110   0.000011  -0.000003  -0.000001   0.000000  -0.000001
    43  C   -0.000027   0.000000   0.000000  -0.000000   0.000000   0.000000
    44  C   -0.000000  -0.008656   0.003731   0.005308  -0.084707   0.000324
    45  N    0.000000  -0.000000  -0.000000  -0.000000   0.000000  -0.000000
    46  N   -0.000000   0.000081  -0.000414  -0.000327  -0.002262   0.000000
              37         38         39         40         41         42
     1  C    0.000223  -0.000099  -0.000219  -0.000002  -0.000002   0.000002
     2  C    0.005003  -0.001207  -0.004449   0.000115   0.000097  -0.000009
     3  C   -0.004297   0.000884   0.002381  -0.000051  -0.000042   0.000561
     4  C   -0.000698   0.000523   0.000201  -0.000005  -0.000002  -0.000706
     5  C   -0.000027   0.000036   0.000014  -0.000000  -0.000000  -0.000176
     6  C    0.000029  -0.000018  -0.000010   0.000000   0.000000  -0.000012
     7  C   -0.000783   0.000649   0.000211  -0.000004  -0.000002  -0.077848
     8  C   -0.004543   0.001408   0.002279  -0.000037  -0.000049   0.019009
     9  C    0.005103  -0.001576  -0.004473   0.000115   0.000097  -0.003568
    10  H    0.000517   0.000128  -0.001163   0.000005   0.000010  -0.000012
    11  C    0.000294  -0.000112  -0.000212  -0.000002  -0.000003   0.007744
    12  C    0.000026  -0.000017  -0.000011   0.000000   0.000000  -0.020014
    13  C   -0.000023   0.000033   0.000014  -0.000000  -0.000000   0.444362
    14  H    0.000557   0.000084  -0.001103   0.000002   0.000008  -0.000000
    15  H    0.000000  -0.000000  -0.000000   0.000000  -0.000000   0.000009
    16  H   -0.000000  -0.000000   0.000000   0.000000   0.000000   0.000000
    17  H    0.000000   0.000002   0.000003  -0.000000  -0.000000  -0.000079
    18  H   -0.000000  -0.000000   0.000000   0.000000   0.000000  -0.004428
    19  N    0.023248  -0.010940  -0.004259  -0.000165  -0.000183  -0.000049
    20  C    0.000000  -0.000004  -0.000000   0.000000   0.000000   0.012856
    21  C   -0.000000  -0.000001  -0.000000  -0.000000   0.000000  -0.007180
    22  C    0.000001   0.000001  -0.000000   0.000000  -0.000000  -0.010292
    23  C   -0.000000   0.000000   0.000000  -0.000000   0.000000   0.000647
    24  C    0.000000   0.000000   0.000000   0.000000  -0.000000   0.000519
    25  C    0.000000  -0.000000  -0.000000   0.000000   0.000000  -0.001165
    26  H    0.000000   0.000000   0.000000   0.000000  -0.000000   0.000005
    27  H   -0.000000   0.000000   0.000000  -0.000000   0.000000   0.000010
    28  H    0.000000  -0.000000   0.000000   0.000000  -0.000000   0.000195
    29  H    0.000000  -0.000001  -0.000000   0.000000   0.000000   0.000129
    30  H   -0.000000   0.000001   0.000003  -0.000000  -0.000000   0.000000
    31  N    0.000027  -0.000050  -0.000005  -0.000000  -0.000000  -0.010110
    32  C    0.157963  -0.063984  -0.279571   0.020240   0.020037   0.000011
    33  C   -0.178808   0.020909   0.207261  -0.068366  -0.006498  -0.000003
    34  C    0.099699   0.494221   0.205533  -0.006488  -0.067986  -0.000001
    35  C    0.144529  -0.008114   0.146736   0.477678   0.016403   0.000000
    36  H   -0.008018   0.000103   0.021539  -0.007096  -0.000011  -0.000001
    37  C    5.375296  -0.084273   0.140808   0.016433   0.477379   0.000000
    38  H   -0.084273   0.489169   0.021419  -0.000009  -0.007190  -0.000000
    39  C    0.140808   0.021419   5.300404  -0.071777  -0.071719  -0.000000
    40  H    0.016433  -0.000009  -0.071777   0.495862   0.000021   0.000000
    41  H    0.477379  -0.007190  -0.071719   0.000021   0.495412  -0.000000
    42  H    0.000000  -0.000000  -0.000000   0.000000  -0.000000   0.489770
    43  C   -0.000000  -0.000000   0.000000  -0.000000   0.000000   0.000007
    44  C   -0.085095   0.000328   0.177288  -0.006934  -0.006381  -0.000000
    45  N    0.000000  -0.000000   0.000000   0.000000   0.000000  -0.000000
    46  N   -0.002194   0.000001  -0.038973   0.001084   0.001075  -0.000000
              43         44         45         46
     1  C   -0.000000  -0.000003   0.000000   0.000000
     2  C    0.000000  -0.000064  -0.000000  -0.000001
     3  C    0.000005   0.000044   0.000000   0.000000
     4  C    0.000044   0.000005   0.000000   0.000000
     5  C   -0.000064   0.000000  -0.000001  -0.000000
     6  C   -0.000003  -0.000000   0.000000   0.000000
     7  C    0.000048   0.000005   0.000000   0.000000
     8  C    0.000005   0.000048   0.000000   0.000000
     9  C    0.000000  -0.000063  -0.000000  -0.000001
    10  H   -0.000000   0.000007  -0.000000  -0.000000
    11  C   -0.000000  -0.000003   0.000000   0.000000
    12  C   -0.000003  -0.000000   0.000000   0.000000
    13  C   -0.000062   0.000000  -0.000001  -0.000000
    14  H   -0.000000   0.000007  -0.000000  -0.000000
    15  H    0.000007  -0.000000  -0.000000  -0.000000
    16  H    0.000000   0.000000   0.000000   0.000000
    17  H    0.000000   0.000000   0.000000   0.000000
    18  H    0.000000   0.000000   0.000000   0.000000
    19  N   -0.000000  -0.000027  -0.000000   0.000000
    20  C   -0.008652   0.000000   0.000081  -0.000000
    21  C    0.003744   0.000000  -0.000414  -0.000000
    22  C    0.005291  -0.000000  -0.000328  -0.000000
    23  C   -0.084707   0.000000  -0.002261   0.000000
    24  C   -0.085085  -0.000000  -0.002195   0.000000
    25  C    0.177281   0.000000  -0.038971   0.000000
    26  H   -0.006930  -0.000000   0.001084   0.000000
    27  H   -0.006383   0.000000   0.001075   0.000000
    28  H    0.000324   0.000000   0.000000  -0.000000
    29  H    0.000327  -0.000000   0.000001  -0.000000
    30  H    0.000000   0.000000   0.000000   0.000000
    31  N   -0.000027  -0.000000   0.000000  -0.000000
    32  C    0.000000  -0.008656  -0.000000   0.000081
    33  C    0.000000   0.003731  -0.000000  -0.000414
    34  C   -0.000000   0.005308  -0.000000  -0.000327
    35  C    0.000000  -0.084707   0.000000  -0.002262
    36  H    0.000000   0.000324  -0.000000   0.000000
    37  C   -0.000000  -0.085095   0.000000  -0.002194
    38  H   -0.000000   0.000328  -0.000000   0.000001
    39  C    0.000000   0.177288   0.000000  -0.038973
    40  H   -0.000000  -0.006934   0.000000   0.001084
    41  H    0.000000  -0.006381   0.000000   0.001075
    42  H    0.000007  -0.000000  -0.000000  -0.000000
    43  C    5.348064   0.000000   0.705002   0.000000
    44  C    0.000000   5.348061   0.000000   0.705004
    45  N    0.705002   0.000000   6.549632   0.000000
    46  N    0.000000   0.705004   0.000000   6.549632
 Mulliken charges:
               1
     1  C   -0.174650
     2  C   -0.148084
     3  C    0.092783
     4  C    0.093015
     5  C   -0.148118
     6  C   -0.174594
     7  C    0.091479
     8  C    0.091453
     9  C   -0.147474
    10  H    0.159817
    11  C   -0.174382
    12  C   -0.174427
    13  C   -0.147475
    14  H    0.159873
    15  H    0.159871
    16  H    0.121123
    17  H    0.121146
    18  H    0.121143
    19  N   -0.019768
    20  C   -0.075180
    21  C   -0.237682
    22  C   -0.203745
    23  C   -0.074340
    24  C   -0.078362
    25  C    0.251863
    26  H    0.149380
    27  H    0.149525
    28  H    0.149788
    29  H    0.147699
    30  H    0.121120
    31  N   -0.019713
    32  C   -0.075170
    33  C   -0.237822
    34  C   -0.203597
    35  C   -0.074307
    36  H    0.149785
    37  C   -0.078375
    38  H    0.147697
    39  C    0.251850
    40  H    0.149380
    41  H    0.149527
    42  H    0.159819
    43  C   -0.048233
    44  C   -0.048228
    45  N   -0.212706
    46  N   -0.212705
 Sum of Mulliken charges =  -0.00000
 Mulliken charges with hydrogens summed into heavy atoms:
               1
     1  C   -0.053530
     2  C    0.011789
     3  C    0.092783
     4  C    0.093015
     5  C    0.011753
     6  C   -0.053471
     7  C    0.091479
     8  C    0.091453
     9  C    0.012342
    11  C   -0.053236
    12  C   -0.053283
    13  C    0.012344
    19  N   -0.019768
    20  C   -0.075180
    21  C   -0.087894
    22  C   -0.056046
    23  C    0.075040
    24  C    0.071163
    25  C    0.251863
    31  N   -0.019713
    32  C   -0.075170
    33  C   -0.088037
    34  C   -0.055900
    35  C    0.075073
    37  C    0.071152
    39  C    0.251850
    43  C   -0.048233
    44  C   -0.048228
    45  N   -0.212706
    46  N   -0.212705
 Electronic spatial extent (au):  <R**2>=          14129.4991
 Charge=              0.0000 electrons
 Dipole moment (field-independent basis, Debye):
    X=              0.0000    Y=              0.0356    Z=             -0.5057  Tot=              0.5070
 Quadrupole moment (field-independent basis, Debye-Ang):
   XX=           -289.0031   YY=           -170.0340   ZZ=           -159.0405
   XY=              0.0099   XZ=             -0.0133   YZ=             -0.5252
 Traceless Quadrupole moment (field-independent basis, Debye-Ang):
   XX=            -82.9772   YY=             35.9919   ZZ=             46.9854
   XY=              0.0099   XZ=             -0.0133   YZ=             -0.5252
 Octapole moment (field-independent basis, Debye-Ang**2):
  XXX=              0.0211  YYY=              0.0360  ZZZ=              4.2049  XYY=             -0.0013
  XXY=              3.2967  XXZ=            -64.9977  XZZ=             -0.0041  YZZ=             -0.0858
  YYZ=             -0.3332  XYZ=              0.0249
 Hexadecapole moment (field-independent basis, Debye-Ang**3):
 XXXX=         -29279.0739 YYYY=          -2960.2950 ZZZZ=           -612.0126 XXXY=              0.5088
 XXXZ=             -0.7641 YYYX=             -0.0201 YYYZ=              2.5912 ZZZX=             -0.0146
 ZZZY=             -4.9777 XXYY=          -3219.1421 XXZZ=          -2466.2180 YYZZ=           -737.5287
 XXYZ=            -10.5609 YYXZ=             -0.0409 ZZXY=              0.0318
 N-N= 2.549831755138D+03 E-N=-7.929025465131D+03  KE= 1.213250307046D+03
 Leave Link  601 at Wed Nov 24 07:09:39 2021, MaxMem=  5242880000 cpu:         5.8
 (Enter /opt/nce/packages/global/g09/l9999.exe)
 1\1\GINC-CN071\SP\RM06 TD-FC\Gen\C26H16N4\PNG4RJV\24-Nov-2021\0\\#p m0
 6 chkbasis geom=allcheck Guess=Read int=ultrafine scrf=(SMD,solvent=n,
 n-DiMethylFormamide) td=(NStates=30)\\Title\\0,1\C,0,0.6911634218,3.63
 45343717,0.1502070238\C,0,1.3793334875,2.4255412568,0.134369039\C,0,0.
 7045072384,1.2156869445,0.1166796525\C,0,-0.7017449748,1.2167792364,0.
 1161074254\C,0,-1.3747275823,2.427661495,0.1332861458\C,0,-0.684708699
 5,3.63559751,0.1496644552\C,0,-0.7036195754,-1.2250810167,0.0698685984
 \C,0,0.7026813744,-1.2261772071,0.0705012971\C,0,1.3756711645,-2.43670
 71605,0.0386859334\H,0,2.4588126557,-2.4436107416,0.0372239428\C,0,0.6
 856188574,-3.6443883858,0.0085781371\C,0,-0.6902412854,-3.643317409,0.
 0078608111\C,0,-1.3784480676,-2.4345732411,0.0373205957\H,0,2.46249790
 38,2.430910116,0.1356817148\H,0,-2.4578828483,2.4346649615,0.133746079
 \H,0,-1.2402637012,4.5657631835,0.1620396767\H,0,1.2411555208,-4.57435
 87417,-0.0146844028\H,0,-1.2471884615,-4.572428942,-0.0159898395\N,0,1
 .3872637211,-0.0059416807,0.1036923139\C,0,-2.8065872668,-0.0007618899
 ,0.0243954715\C,0,-3.4218260167,0.0513089482,-1.2175542032\C,0,-3.5617
 601628,-0.0487430205,1.1861005492\C,0,-4.7986711538,0.0572944962,-1.30
 36349559\C,0,-4.9401505332,-0.0441618038,1.1108414657\C,0,-5.558366729
 1,0.0098697195,-0.136540851\H,0,-5.2923942276,0.0980763611,-2.26671866
 42\H,0,-5.5426700065,-0.0805675799,2.0100707482\H,0,-2.8103417887,0.08
 78244925,-2.1122882793\H,0,-3.0587057599,-0.0898147786,2.1456320462\H,
 0,1.2481332586,4.5638478621,0.1630067362\N,0,-1.3863540447,-0.00379883
 51,0.1025356472\C,0,2.8075254214,-0.0049108392,0.0259425281\C,0,3.4231
 273655,0.0458073507,-1.2158838909\C,0,3.5623580055,-0.0531208155,1.187
 8555894\C,0,4.7999951852,0.0503392085,-1.3016327126\H,0,2.8119034193,0
 .0825286857,-2.1107873268\C,0,4.9407749727,-0.0499658227,1.1129326202\
 H,0,3.0590242118,-0.0930911024,2.1472860465\C,0,5.5593553564,0.0028210
 681,-0.1343224353\H,0,5.2939966444,0.0901402023,-2.2646145841\H,0,5.54
 30306526,-0.0864654046,2.0123343576\H,0,-2.4615973961,-2.4398100205,0.
 0347433632\C,0,-6.9807131241,0.0170800409,-0.2219886482\C,0,6.98172878
 24,0.0087362483,-0.2194355927\N,0,-8.1293532368,0.0230671153,-0.291686
 825\N,0,8.1303895814,0.0137238442,-0.2888689794\\Version=ES64L-G09RevE
 .01\State=1-A\HF=-1218.9365865\RMSD=7.906e-09\PG=C01 [X(C26H16N4)]\\@


 THE BEST WAY TO CONVINCE A FOOL THAT HE IS WRONG 
 IS TO LET HIM HAVE HIS OWN WAY.

                                         JOSH BILLINGS
 Job cpu time:       2 days 11 hours 37 minutes 22.6 seconds.
 File lengths (MBytes):  RWF=   5189 Int=      0 D2E=      0 Chk=    937 Scr=      1
 Normal termination of Gaussian 09 at Wed Nov 24 07:09:40 2021.
