
                                 *****************
                                 * O   R   C   A *
                                 *****************

                                            #,                                       
                                            ###                                      
                                            ####                                     
                                            #####                                    
                                            ######                                   
                                           ########,                                 
                                     ,,################,,,,,                         
                               ,,#################################,,                 
                          ,,##########################################,,             
                       ,#########################################, ''#####,          
                    ,#############################################,,   '####,        
                  ,##################################################,,,,####,       
                ,###########''''           ''''###############################       
              ,#####''   ,,,,##########,,,,          '''####'''          '####       
            ,##' ,,,,###########################,,,                        '##       
           ' ,,###''''                  '''############,,,                           
         ,,##''                                '''############,,,,        ,,,,,,###''
      ,#''                                            '''#######################'''  
     '                                                          ''''####''''         
             ,#######,   #######,   ,#######,      ##                                
            ,#'     '#,  ##    ##  ,#'     '#,    #''#        ######   ,####,        
            ##       ##  ##   ,#'  ##            #'  '#       #        #'  '#        
            ##       ##  #######   ##           ,######,      #####,   #    #        
            '#,     ,#'  ##    ##  '#,     ,#' ,#      #,         ##   #,  ,#        
             '#######'   ##     ##  '#######'  #'      '#     #####' # '####'        



                  #######################################################
                  #                        -***-                        #
                  #          Department of theory and spectroscopy      #
                  #    Directorship and core code : Frank Neese         #
                  #        Max Planck Institute fuer Kohlenforschung    #
                  #                Kaiser Wilhelm Platz 1               #
                  #                 D-45470 Muelheim/Ruhr               #
                  #                      Germany                        #
                  #                                                     #
                  #                  All rights reserved                #
                  #                        -***-                        #
                  #######################################################


                         Program Version 5.0.2 -  RELEASE  -


 With contributions from (in alphabetic order):
   Daniel Aravena         : Magnetic Suceptibility
   Michael Atanasov       : Ab Initio Ligand Field Theory (pilot matlab implementation)
   Alexander A. Auer      : GIAO ZORA, VPT2 properties, NMR spectrum
   Ute Becker             : Parallelization
   Giovanni Bistoni       : ED, misc. LED, open-shell LED, HFLD
   Martin Brehm           : Molecular dynamics
   Dmytro Bykov           : SCF Hessian
   Vijay G. Chilkuri      : MRCI spin determinant printing, contributions to CSF-ICE
   Dipayan Datta          : RHF DLPNO-CCSD density
   Achintya Kumar Dutta   : EOM-CC, STEOM-CC
   Dmitry Ganyushin       : Spin-Orbit,Spin-Spin,Magnetic field MRCI
   Miquel Garcia          : C-PCM and meta-GGA Hessian, CC/C-PCM, Gaussian charge scheme
   Yang Guo               : DLPNO-NEVPT2, F12-NEVPT2, CIM, IAO-localization
   Andreas Hansen         : Spin unrestricted coupled pair/coupled cluster methods
   Benjamin Helmich-Paris : MC-RPA, TRAH-SCF, COSX integrals
   Lee Huntington         : MR-EOM, pCC
   Robert Izsak           : Overlap fitted RIJCOSX, COSX-SCS-MP3, EOM
   Marcus Kettner         : VPT2
   Christian Kollmar      : KDIIS, OOCD, Brueckner-CCSD(T), CCSD density, CASPT2, CASPT2-K
   Simone Kossmann        : Meta GGA functionals, TD-DFT gradient, OOMP2, MP2 Hessian
   Martin Krupicka        : Initial AUTO-CI
   Lucas Lang             : DCDCAS
   Marvin Lechner         : AUTO-CI (C++ implementation), FIC-MRCC
   Dagmar Lenk            : GEPOL surface, SMD
   Dimitrios Liakos       : Extrapolation schemes; Compound Job, initial MDCI parallelization
   Dimitrios Manganas     : Further ROCIS development; embedding schemes
   Dimitrios Pantazis     : SARC Basis sets
   Anastasios Papadopoulos: AUTO-CI, single reference methods and gradients
   Taras Petrenko         : DFT Hessian,TD-DFT gradient, ASA, ECA, R-Raman, ABS, FL, XAS/XES, NRVS
   Peter Pinski           : DLPNO-MP2, DLPNO-MP2 Gradient
   Christoph Reimann      : Effective Core Potentials
   Marius Retegan         : Local ZFS, SOC
   Christoph Riplinger    : Optimizer, TS searches, QM/MM, DLPNO-CCSD(T), (RO)-DLPNO pert. Triples
   Tobias Risthaus        : Range-separated hybrids, TD-DFT gradient, RPA, STAB
   Michael Roemelt        : Original ROCIS implementation
   Masaaki Saitow         : Open-shell DLPNO-CCSD energy and density
   Barbara Sandhoefer     : DKH picture change effects
   Avijit Sen             : IP-ROCIS
   Kantharuban Sivalingam : CASSCF convergence, NEVPT2, FIC-MRCI
   Bernardo de Souza      : ESD, SOC TD-DFT
   Georgi Stoychev        : AutoAux, RI-MP2 NMR, DLPNO-MP2 response
   Willem Van den Heuvel  : Paramagnetic NMR
   Boris Wezisla          : Elementary symmetry handling
   Frank Wennmohs         : Technical directorship


 We gratefully acknowledge several colleagues who have allowed us to
 interface, adapt or use parts of their codes:
   Stefan Grimme, W. Hujo, H. Kruse, P. Pracht,  : VdW corrections, initial TS optimization,
                  C. Bannwarth, S. Ehlert          DFT functionals, gCP, sTDA/sTD-DF
   Ed Valeev, F. Pavosevic, A. Kumar             : LibInt (2-el integral package), F12 methods
   Garnet Chan, S. Sharma, J. Yang, R. Olivares  : DMRG
   Ulf Ekstrom                                   : XCFun DFT Library
   Mihaly Kallay                                 : mrcc  (arbitrary order and MRCC methods)
   Jiri Pittner, Ondrej Demel                    : Mk-CCSD
   Frank Weinhold                                : gennbo (NPA and NBO analysis)
   Christopher J. Cramer and Donald G. Truhlar   : smd solvation model
   Lars Goerigk                                  : TD-DFT with DH, B97 family of functionals
   V. Asgeirsson, H. Jonsson                     : NEB implementation
   FAccTs GmbH                                   : IRC, NEB, NEB-TS, DLPNO-Multilevel, CI-OPT
                                                   MM, QMMM, 2- and 3-layer-ONIOM, Crystal-QMMM,
                                                   LR-CPCM, SF, NACMEs, symmetry and pop. for TD-DFT,
                                                   nearIR, NL-DFT gradient (VV10), updates on ESD,
                                                   ML-optimized integration grids
   S Lehtola, MJT Oliveira, MAL Marques          : LibXC Library
   Liviu Ungur et al                             : ANISO software


 Your calculation uses the libint2 library for the computation of 2-el integrals
 For citations please refer to: http://libint.valeyev.net

 Your ORCA version has been built with support for libXC version: 5.1.0
 For citations please refer to: https://tddft.org/programs/libxc/

 This ORCA versions uses:
   CBLAS   interface :  Fast vector & matrix operations
   LAPACKE interface :  Fast linear algebra routines
   SCALAPACK package :  Parallel linear algebra routines
   Shared memory     :  Shared parallel matrices
   BLAS/LAPACK       :  OpenBLAS 0.3.15  USE64BITINT DYNAMIC_ARCH NO_AFFINITY Zen SINGLE_THREADED
        Core in use  :  Zen
   Copyright (c) 2011-2014, The OpenBLAS Project


Your calculation utilizes the atom-pairwise dispersion correction
with the Becke-Johnson damping scheme (D3BJ)
Cite in your paper:
S.Grimme, S.Ehrlich, L.Goerigk, J Comput Chem, (2011), 32, 1456–1465 
S.Grimme, J.Antony, S.Ehrlich and H.Krieg, J.Chem.Phys., 132, (2010), 154104 
   

Your calculation utilizes the SMD solvation module
Please cite in your paper:
A.V. Marenich, C.J. Cramer, D.G. Truhlar J. Phys. Chem. B, 113, (2009), 6378 

================================================================================

----- Orbital basis set information -----
Your calculation utilizes the basis: def2-TZVP
   F. Weigend and R. Ahlrichs, Phys. Chem. Chem. Phys. 7, 3297 (2005).

----- AuxJ basis set information -----
Your calculation utilizes the auxiliary basis: def2/J
   F. Weigend, Phys. Chem. Chem. Phys. 8, 1057 (2006).

----- AuxC basis set information -----
Your calculation utilizes the auxiliary basis: def2-TZVP/C
  H-La, Hf-Rn : A. Hellweg, C. Hattig, S. Hofener and W. Klopper, Theor. Chem. Acc. 117, 587 (2007).
        Ce-Lu : J. Chmela and M. E. Harding, Mol. Phys. (2018).

================================================================================
                                        WARNINGS
                       Please study these warnings very carefully!
================================================================================

INFO   : Checking CIS options ...
  ===> : (D) CORRECTION FOUND - SETTING MODE=3
  ===> : JK MODE FOUND - ACTIVATING RI-MP2 CODE
  ===> : MP2 AND CIS FOUND - CHECKING
WARNING: CIS(D) and MP2 runs must have the same orbital window
  ===> : adjusting orbital windows

WARNING: No MP2 level density has been requested!
         To caclulate MP2 level properties use
         %mp2 Density relaxed end
         or
         %mp2 Density unrelaxed end
         Otherwise for double-hybrid DFT only the energy is correct!

WARNING: The frozen-core approximation is turned on by default for 
         the MP2 part of double-hybrid DFT.

WARNING: CIS/ROCIS methods need fully converged wavefunctions
  ===> : Setting SCFConvForced true
         You can overwrite this default with %scf ConvForced false 


INFO   : the flag for use of the SHARK integral package has been found!

================================================================================
                                       INPUT FILE
================================================================================
NAME = PA_3_M06L_def2TZVP_coords.inp
|  1> %maxcore 3200
|  2> %pal
|  3>  nprocs= 8
|  4> end
|  5> ! RI-B2PLYP D3BJ def2-TZVP def2/J def2-TZVP/C RIJCOSX CPCM TightSCF
|  6> %TDDFT DCORR 4
|  7>    NROOTS   30
|  8> 
|  9>    TDA      FALSE
| 10> END
| 11> 
| 12> %CPCM
| 13>    SMD          TRUE
| 14>    SMDsolvent   "N,N-DIMETHYLFORMAMIDE"
| 15> END
| 16>    
| 17> 
| 18> * xyz 0 1
| 19> C                  -0.69204800   -3.64386400   -0.00787400
| 20> C                  -1.38063400   -2.43381100    0.01449500
| 21> C                  -0.70412400   -1.22065400    0.00031700
| 22> C                   0.70453700   -1.22132400   -0.01151200
| 23> C                   1.37757400   -2.43577000   -0.05047100
| 24> C                   0.68626500   -3.64462700   -0.04839400
| 25> C                   0.70452700    1.22133800    0.01141000
| 26> C                  -0.70413500    1.22065200   -0.00038400
| 27> C                  -1.38065800    2.43380100   -0.01460900
| 28> H                  -2.46172000    2.43500700   -0.04119000
| 29> C                  -0.69208600    3.64386400    0.00768500
| 30> C                   0.68622800    3.64464400    0.04816700
| 31> C                   1.37755000    2.43579500    0.05028500
| 32> H                  -2.46169400   -2.43503000    0.04110900
| 33> H                   2.45827400   -2.44078500   -0.08404200
| 34> H                   1.24095300   -4.57320800   -0.07768800
| 35> H                  -1.24837500    4.57189400   -0.00273000
| 36> H                   1.24090700    4.57323200    0.07740300
| 37> N                  -1.38783400   -0.00000400    0.00001600
| 38> C                   2.81359400    0.00001000    0.00001200
| 39> C                   3.50492200    0.26808100   -1.17600900
| 40> C                   3.50487000   -0.26806900    1.17606000
| 41> C                   4.88571300    0.27165100   -1.18089900
| 42> C                   4.88566100   -0.27164800    1.18100900
| 43> C                   5.58200100   -0.00000100    0.00007000
| 44> H                   5.43094000    0.47772700   -2.09179700
| 45> H                   5.43084800   -0.47772900    2.09193100
| 46> H                   2.95295300    0.47632700   -2.08345700
| 47> H                   2.95286100   -0.47631300    2.08348400
| 48> H                  -1.24832600   -4.57190200    0.00251200
| 49> N                   1.38978900    0.00001000   -0.00001500
| 50> C                  -2.81267800   -0.00000700    0.00003000
| 51> C                  -3.50271800   -0.16014900   -1.19561600
| 52> C                  -3.50269000    0.16013500    1.19569200
| 53> C                  -4.88377600   -0.16242500   -1.20102800
| 54> H                  -2.94982500   -0.28486500   -2.11773400
| 55> C                  -4.88374800    0.16241100    1.20113700
| 56> H                  -2.94977500    0.28485300    2.11779700
| 57> C                  -5.57941300   -0.00000800    0.00006200
| 58> H                  -5.42939900   -0.28554300   -2.12654800
| 59> H                  -5.42934900    0.28552900    2.12666900
| 60> H                   2.45825100    2.44082500    0.08382800
| 61> C                   7.00167700   -0.00000500    0.00010100
| 62> C                  -6.99939900   -0.00000900    0.00008000
| 63> N                   8.15878000   -0.00000800    0.00012600
| 64> N                  -8.15639400   -0.00000900    0.00009400
| 65> *
| 66> 
| 67> 
| 68>                          ****END OF INPUT****
================================================================================

                       ****************************
                       * Single Point Calculation *
                       ****************************

---------------------------------
CARTESIAN COORDINATES (ANGSTROEM)
---------------------------------
  C     -0.692048   -3.643864   -0.007874
  C     -1.380634   -2.433811    0.014495
  C     -0.704124   -1.220654    0.000317
  C      0.704537   -1.221324   -0.011512
  C      1.377574   -2.435770   -0.050471
  C      0.686265   -3.644627   -0.048394
  C      0.704527    1.221338    0.011410
  C     -0.704135    1.220652   -0.000384
  C     -1.380658    2.433801   -0.014609
  H     -2.461720    2.435007   -0.041190
  C     -0.692086    3.643864    0.007685
  C      0.686228    3.644644    0.048167
  C      1.377550    2.435795    0.050285
  H     -2.461694   -2.435030    0.041109
  H      2.458274   -2.440785   -0.084042
  H      1.240953   -4.573208   -0.077688
  H     -1.248375    4.571894   -0.002730
  H      1.240907    4.573232    0.077403
  N     -1.387834   -0.000004    0.000016
  C      2.813594    0.000010    0.000012
  C      3.504922    0.268081   -1.176009
  C      3.504870   -0.268069    1.176060
  C      4.885713    0.271651   -1.180899
  C      4.885661   -0.271648    1.181009
  C      5.582001   -0.000001    0.000070
  H      5.430940    0.477727   -2.091797
  H      5.430848   -0.477729    2.091931
  H      2.952953    0.476327   -2.083457
  H      2.952861   -0.476313    2.083484
  H     -1.248326   -4.571902    0.002512
  N      1.389789    0.000010   -0.000015
  C     -2.812678   -0.000007    0.000030
  C     -3.502718   -0.160149   -1.195616
  C     -3.502690    0.160135    1.195692
  C     -4.883776   -0.162425   -1.201028
  H     -2.949825   -0.284865   -2.117734
  C     -4.883748    0.162411    1.201137
  H     -2.949775    0.284853    2.117797
  C     -5.579413   -0.000008    0.000062
  H     -5.429399   -0.285543   -2.126548
  H     -5.429349    0.285529    2.126669
  H      2.458251    2.440825    0.083828
  C      7.001677   -0.000005    0.000101
  C     -6.999399   -0.000009    0.000080
  N      8.158780   -0.000008    0.000126
  N     -8.156394   -0.000009    0.000094

----------------------------
CARTESIAN COORDINATES (A.U.)
----------------------------
  NO LB      ZA    FRAG     MASS         X           Y           Z
   0 C     6.0000    0    12.011   -1.307781   -6.885905   -0.014880
   1 C     6.0000    0    12.011   -2.609020   -4.599236    0.027392
   2 C     6.0000    0    12.011   -1.330602   -2.306702    0.000599
   3 C     6.0000    0    12.011    1.331382   -2.307968   -0.021755
   4 C     6.0000    0    12.011    2.603238   -4.602938   -0.095376
   5 C     6.0000    0    12.011    1.296853   -6.887347   -0.091451
   6 C     6.0000    0    12.011    1.331363    2.307994    0.021562
   7 C     6.0000    0    12.011   -1.330622    2.306698   -0.000726
   8 C     6.0000    0    12.011   -2.609066    4.599217   -0.027607
   9 H     1.0000    0     1.008   -4.651977    4.601496   -0.077838
  10 C     6.0000    0    12.011   -1.307853    6.885905    0.014523
  11 C     6.0000    0    12.011    1.296783    6.887379    0.091022
  12 C     6.0000    0    12.011    2.603192    4.602985    0.095025
  13 H     1.0000    0     1.008   -4.651927   -4.601540    0.077685
  14 H     1.0000    0     1.008    4.645465   -4.612415   -0.158816
  15 H     1.0000    0     1.008    2.345061   -8.642111   -0.146809
  16 H     1.0000    0     1.008   -2.359087    8.639628   -0.005159
  17 H     1.0000    0     1.008    2.344974    8.642156    0.146270
  18 N     7.0000    0    14.007   -2.622626   -0.000008    0.000030
  19 C     6.0000    0    12.011    5.316922    0.000019    0.000023
  20 C     6.0000    0    12.011    6.623343    0.506600   -2.222335
  21 C     6.0000    0    12.011    6.623244   -0.506577    2.222431
  22 C     6.0000    0    12.011    9.232660    0.513346   -2.231576
  23 C     6.0000    0    12.011    9.232561   -0.513340    2.231784
  24 C     6.0000    0    12.011   10.548453   -0.000002    0.000132
  25 H     1.0000    0     1.008   10.262989    0.902773   -3.952923
  26 H     1.0000    0     1.008   10.262815   -0.902777    3.953177
  27 H     1.0000    0     1.008    5.580272    0.900128   -3.937163
  28 H     1.0000    0     1.008    5.580099   -0.900101    3.937214
  29 H     1.0000    0     1.008   -2.358994   -8.639643    0.004747
  30 N     7.0000    0    14.007    2.626321    0.000019   -0.000028
  31 C     6.0000    0    12.011   -5.315191   -0.000013    0.000057
  32 C     6.0000    0    12.011   -6.619178   -0.302638   -2.259387
  33 C     6.0000    0    12.011   -6.619125    0.302611    2.259530
  34 C     6.0000    0    12.011   -9.228999   -0.306939   -2.269614
  35 H     1.0000    0     1.008   -5.574361   -0.538317   -4.001937
  36 C     6.0000    0    12.011   -9.228946    0.306912    2.269820
  37 H     1.0000    0     1.008   -5.574267    0.538294    4.002056
  38 C     6.0000    0    12.011  -10.543563   -0.000015    0.000117
  39 H     1.0000    0     1.008  -10.260077   -0.539598   -4.018593
  40 H     1.0000    0     1.008  -10.259983    0.539572    4.018822
  41 H     1.0000    0     1.008    4.645421    4.612491    0.158412
  42 C     6.0000    0    12.011   13.231252   -0.000009    0.000191
  43 C     6.0000    0    12.011  -13.226947   -0.000017    0.000151
  44 N     7.0000    0    14.007   15.417860   -0.000015    0.000238
  45 N     7.0000    0    14.007  -15.413351   -0.000017    0.000178

--------------------------------
INTERNAL COORDINATES (ANGSTROEM)
--------------------------------
 C      0   0   0     0.000000000000     0.00000000     0.00000000
 C      1   0   0     1.392436466905     0.00000000     0.00000000
 C      2   1   0     1.389106440282   121.19452733     0.00000000
 C      3   2   1     1.408710824499   119.12155254   358.79464307
 C      4   3   2     1.389019688113   119.02395337     1.97253426
 C      1   2   3     1.378908691153   119.68677034   359.82756619
 C      4   3   2     2.442769547957    89.96800149   180.93880880
 C      7   4   3     1.408711538703    89.96783322   359.03974240
 C      8   7   4     1.389106265321   119.12152839   180.94182063
 H      9   8   7     1.081389408049   119.21568202   178.93657936
 C      9   8   7     1.392437031104   121.19462106   358.79436570
 C     11   9   8     1.378908584106   119.68669385   359.82802443
 C      7   4   3     1.389020168681   150.99159071   177.18127533
 H      2   1   3     1.081388234889   119.58962760   179.85792220
 H      5   4   3     1.081232931549   119.28987387   178.51959851
 H      6   1   2     1.082034929816   120.90946931   180.70056306
 H     11   9   8     1.082037709438   119.40296353   180.09138810
 H     12  11   9     1.082034754747   120.90949901   180.70057814
 N      8   7   4     1.399087400035   119.28014771     0.82516201
 C      4   3   2     2.437193256880   149.88891787   181.77120612
 C     20   4   3     1.390259636566   121.52982484   263.03070959
 C     20   4   3     1.390258161897   109.73395034   114.80529937
 C     21  20   4     1.380804273849   120.04995115   214.94622907
 C     22  20   4     1.380804507352   120.04998619   148.54034738
 C     24  22  20     1.397604525583   119.65003956     0.22662946
 H     23  21  20     1.081422658219   120.50719091   179.90535085
 H     24  22  20     1.081423660558   120.50717629   179.90523910
 H     21  20   4     1.082357633216   119.51892884    35.14375982
 H     22  20   4     1.082357526602   119.51889894   328.73779117
 H      1   2   3     1.082038636891   119.40295129   180.09101198
 N      7   4   3     1.400484424352    29.29458168   179.51614872
 C     19   8   7     1.424844000072   119.25364948   179.44938198
 C     32  19   8     1.389737392128   119.76984942    97.61008869
 C     32  19   8     1.389737255222   119.76960670   277.61021009
 C     33  32  19     1.381070479477   120.00544431   179.92657139
 H     33  32  19     1.082379949939   119.51161552     0.07315459
 C     34  32  19     1.381070609189   120.00547459   179.92633308
 H     34  32  19     1.082380343398   119.51159954     0.07303207
 C     35  33  32     1.397464599107   119.61839480     0.14535250
 H     35  33  32     1.081411009031   120.53630055   179.94775172
 H     37  34  32     1.081410179418   120.53633329   179.94775704
 H     13   7   4     1.081233131730   119.28985272     0.64514699
 C     25  24  22     1.419676000344   119.88225483   179.88629418
 C     39  35  33     1.419986000114   119.85428299   179.92713229
 N     43  25  24     1.157103000274   179.99998153     0.00000000
 N     44  39  35     1.156995000085   179.99994788     0.00000000

---------------------------
INTERNAL COORDINATES (A.U.)
---------------------------
 C      0   0   0     0.000000000000     0.00000000     0.00000000
 C      1   0   0     2.631323581335     0.00000000     0.00000000
 C      2   1   0     2.625030742999   121.19452733     0.00000000
 C      3   2   1     2.662077660194   119.12155254   358.79464307
 C      4   3   2     2.624866805159   119.02395337     1.97253426
 C      1   2   3     2.605759789963   119.68677034   359.82756619
 C      4   3   2     4.616165453922    89.96800149   180.93880880
 C      7   4   3     2.662079009844    89.96783322   359.03974240
 C      8   7   4     2.625030412371   119.12152839   180.94182063
 H      9   8   7     2.043529825336   119.21568202   178.93657936
 C      9   8   7     2.631324647516   121.19462106   358.79436570
 C     11   9   8     2.605759587673   119.68669385   359.82802443
 C      7   4   3     2.624867713300   150.99159071   177.18127533
 H      2   1   3     2.043527608385   119.58962760   179.85792220
 H      5   4   3     2.043234127604   119.28987387   178.51959851
 H      6   1   2     2.044749684688   120.90946931   180.70056306
 H     11   9   8     2.044754937413   119.40296353   180.09138810
 H     12  11   9     2.044749353857   120.90949901   180.70057814
 N      8   7   4     2.643892023486   119.28014771     0.82516201
 C      4   3   2     4.605627790943   149.88891787   181.77120612
 C     20   4   3     2.627209968156   121.52982484   263.03070959
 C     20   4   3     2.627207181434   109.73395034   114.80529937
 C     21  20   4     2.609341922124   120.04995115   214.94622907
 C     22  20   4     2.609342363379   120.04998619   148.54034738
 C     24  22  20     2.641089796881   119.65003956     0.22662946
 H     23  21  20     2.043592659051   120.50719091   179.90535085
 H     24  22  20     2.043594553197   120.50717629   179.90523910
 H     21  20   4     2.045359505737   119.51892884    35.14375982
 H     22  20   4     2.045359304267   119.51889894   328.73779117
 H      1   2   3     2.044756690045   119.40295129   180.09101198
 N      7   4   3     2.646532016848    29.29458168   179.51614872
 C     19   8   7     2.692564943697   119.25364948   179.44938198
 C     32  19   8     2.626223069193   119.76984942    97.61008869
 C     32  19   8     2.626222810477   119.76960670   277.61021009
 C     33  32  19     2.609844977856   120.00544431   179.92657139
 H     33  32  19     2.045401678231   119.51161552     0.07315459
 C     34  32  19     2.609845222975   120.00547459   179.92633308
 H     34  32  19     2.045402421762   119.51159954     0.07303207
 C     35  33  32     2.640825374163   119.61839480     0.14535250
 H     35  33  32     2.043570645276   120.53630055   179.94775172
 H     37  34  32     2.043569077535   120.53633329   179.94775704
 H     13   7   4     2.043234505891   119.28985272     0.64514699
 C     25  24  22     2.682798839551   119.88225483   179.88629418
 C     39  35  33     2.683384654219   119.85428299   179.92713229
 N     43  25  24     2.186607779256   179.99998153     0.00000000
 N     44  39  35     2.186403688476   179.99994788     0.00000000

---------------------
BASIS SET INFORMATION
---------------------
There are 3 groups of distinct atoms

 Group   1 Type C   : 11s6p2d1f contracted to 5s3p2d1f pattern {62111/411/11/1}
 Group   2 Type H   : 5s1p contracted to 3s1p pattern {311/1}
 Group   3 Type N   : 11s6p2d1f contracted to 5s3p2d1f pattern {62111/411/11/1}

Atom   0C    basis set group =>   1
Atom   1C    basis set group =>   1
Atom   2C    basis set group =>   1
Atom   3C    basis set group =>   1
Atom   4C    basis set group =>   1
Atom   5C    basis set group =>   1
Atom   6C    basis set group =>   1
Atom   7C    basis set group =>   1
Atom   8C    basis set group =>   1
Atom   9H    basis set group =>   2
Atom  10C    basis set group =>   1
Atom  11C    basis set group =>   1
Atom  12C    basis set group =>   1
Atom  13H    basis set group =>   2
Atom  14H    basis set group =>   2
Atom  15H    basis set group =>   2
Atom  16H    basis set group =>   2
Atom  17H    basis set group =>   2
Atom  18N    basis set group =>   3
Atom  19C    basis set group =>   1
Atom  20C    basis set group =>   1
Atom  21C    basis set group =>   1
Atom  22C    basis set group =>   1
Atom  23C    basis set group =>   1
Atom  24C    basis set group =>   1
Atom  25H    basis set group =>   2
Atom  26H    basis set group =>   2
Atom  27H    basis set group =>   2
Atom  28H    basis set group =>   2
Atom  29H    basis set group =>   2
Atom  30N    basis set group =>   3
Atom  31C    basis set group =>   1
Atom  32C    basis set group =>   1
Atom  33C    basis set group =>   1
Atom  34C    basis set group =>   1
Atom  35H    basis set group =>   2
Atom  36C    basis set group =>   1
Atom  37H    basis set group =>   2
Atom  38C    basis set group =>   1
Atom  39H    basis set group =>   2
Atom  40H    basis set group =>   2
Atom  41H    basis set group =>   2
Atom  42C    basis set group =>   1
Atom  43C    basis set group =>   1
Atom  44N    basis set group =>   3
Atom  45N    basis set group =>   3
---------------------------------
AUXILIARY/J BASIS SET INFORMATION
---------------------------------
There are 3 groups of distinct atoms

 Group   1 Type C   : 12s5p4d2f1g contracted to 6s4p3d1f1g pattern {711111/2111/211/2/1}
 Group   2 Type H   : 5s2p1d contracted to 3s1p1d pattern {311/2/1}
 Group   3 Type N   : 12s5p4d2f1g contracted to 6s4p3d1f1g pattern {711111/2111/211/2/1}

Atom   0C    basis set group =>   1
Atom   1C    basis set group =>   1
Atom   2C    basis set group =>   1
Atom   3C    basis set group =>   1
Atom   4C    basis set group =>   1
Atom   5C    basis set group =>   1
Atom   6C    basis set group =>   1
Atom   7C    basis set group =>   1
Atom   8C    basis set group =>   1
Atom   9H    basis set group =>   2
Atom  10C    basis set group =>   1
Atom  11C    basis set group =>   1
Atom  12C    basis set group =>   1
Atom  13H    basis set group =>   2
Atom  14H    basis set group =>   2
Atom  15H    basis set group =>   2
Atom  16H    basis set group =>   2
Atom  17H    basis set group =>   2
Atom  18N    basis set group =>   3
Atom  19C    basis set group =>   1
Atom  20C    basis set group =>   1
Atom  21C    basis set group =>   1
Atom  22C    basis set group =>   1
Atom  23C    basis set group =>   1
Atom  24C    basis set group =>   1
Atom  25H    basis set group =>   2
Atom  26H    basis set group =>   2
Atom  27H    basis set group =>   2
Atom  28H    basis set group =>   2
Atom  29H    basis set group =>   2
Atom  30N    basis set group =>   3
Atom  31C    basis set group =>   1
Atom  32C    basis set group =>   1
Atom  33C    basis set group =>   1
Atom  34C    basis set group =>   1
Atom  35H    basis set group =>   2
Atom  36C    basis set group =>   1
Atom  37H    basis set group =>   2
Atom  38C    basis set group =>   1
Atom  39H    basis set group =>   2
Atom  40H    basis set group =>   2
Atom  41H    basis set group =>   2
Atom  42C    basis set group =>   1
Atom  43C    basis set group =>   1
Atom  44N    basis set group =>   3
Atom  45N    basis set group =>   3
---------------------------------
AUXILIARY/C BASIS SET INFORMATION
---------------------------------
There are 3 groups of distinct atoms

 Group   1 Type C   : 8s6p5d3f1g contracted to 8s6p4d3f1g pattern {11111111/111111/2111/111/1}
 Group   2 Type H   : 4s3p2d contracted to 4s2p1d pattern {1111/21/2}
 Group   3 Type N   : 8s6p5d3f1g contracted to 8s6p4d3f1g pattern {11111111/111111/2111/111/1}

Atom   0C    basis set group =>   1
Atom   1C    basis set group =>   1
Atom   2C    basis set group =>   1
Atom   3C    basis set group =>   1
Atom   4C    basis set group =>   1
Atom   5C    basis set group =>   1
Atom   6C    basis set group =>   1
Atom   7C    basis set group =>   1
Atom   8C    basis set group =>   1
Atom   9H    basis set group =>   2
Atom  10C    basis set group =>   1
Atom  11C    basis set group =>   1
Atom  12C    basis set group =>   1
Atom  13H    basis set group =>   2
Atom  14H    basis set group =>   2
Atom  15H    basis set group =>   2
Atom  16H    basis set group =>   2
Atom  17H    basis set group =>   2
Atom  18N    basis set group =>   3
Atom  19C    basis set group =>   1
Atom  20C    basis set group =>   1
Atom  21C    basis set group =>   1
Atom  22C    basis set group =>   1
Atom  23C    basis set group =>   1
Atom  24C    basis set group =>   1
Atom  25H    basis set group =>   2
Atom  26H    basis set group =>   2
Atom  27H    basis set group =>   2
Atom  28H    basis set group =>   2
Atom  29H    basis set group =>   2
Atom  30N    basis set group =>   3
Atom  31C    basis set group =>   1
Atom  32C    basis set group =>   1
Atom  33C    basis set group =>   1
Atom  34C    basis set group =>   1
Atom  35H    basis set group =>   2
Atom  36C    basis set group =>   1
Atom  37H    basis set group =>   2
Atom  38C    basis set group =>   1
Atom  39H    basis set group =>   2
Atom  40H    basis set group =>   2
Atom  41H    basis set group =>   2
Atom  42C    basis set group =>   1
Atom  43C    basis set group =>   1
Atom  44N    basis set group =>   3
Atom  45N    basis set group =>   3


           ************************************************************
           *        Program running with 8 parallel MPI-processes     *
           *              working on a common directory               *
           ************************************************************
------------------------------------------------------------------------------
                           ORCA GTO INTEGRAL CALCULATION
                           -- RI-GTO INTEGRALS CHOSEN --
------------------------------------------------------------------------------
------------------------------------------------------------------------------
                   ___                                                        
                  /   \      - P O W E R E D   B Y -                         
                 /     \                                                     
                 |  |  |   _    _      __       _____    __    __             
                 |  |  |  | |  | |    /  \     |  _  \  |  |  /  |          
                  \  \/   | |  | |   /    \    | | | |  |  | /  /          
                 / \  \   | |__| |  /  /\  \   | |_| |  |  |/  /          
                |  |  |   |  __  | /  /__\  \  |    /   |      \           
                |  |  |   | |  | | |   __   |  |    \   |  |\   \          
                \     /   | |  | | |  |  |  |  | |\  \  |  | \   \       
                 \___/    |_|  |_| |__|  |__|  |_| \__\ |__|  \__/        
                                                                              
                      - O R C A' S   B I G   F R I E N D -                    
                                      &                                       
                       - I N T E G R A L  F E E D E R -                       
                                                                              
 v1 FN, 2020, v2 2021                                                         
------------------------------------------------------------------------------


Reading SHARK input file PA_3_M06L_def2TZVP_coords.SHARKINP.tmp ... ok
----------------------
SHARK INTEGRAL PACKAGE
----------------------

Number of atoms                             ...     46
Number of basis functions                   ...   1026
Number of shells                            ...    394
Maximum angular momentum                    ...      3
Integral batch strategy                     ... SHARK/LIBINT Hybrid
RI-J (if used) integral strategy            ... SPLIT-RIJ (Revised 2003 algorithm where possible)
Printlevel                                  ...      1
Contraction scheme used                     ... SEGMENTED contraction
Coulomb Range Separation                    ... NOT USED
Exchange Range Separation                   ... NOT USED
Finite Nucleus Model                        ... NOT USED
Auxiliary Coulomb fitting basis             ... AVAILABLE
   # of basis functions in Aux-J            ...   1646
   # of shells in Aux-J                     ...    530
   Maximum angular momentum in Aux-J        ...      4
Auxiliary J/K fitting basis                 ... NOT available
Auxiliary Correlation fitting basis         ... AVAILABLE
   # of basis functions in Aux-C            ...   2520
   # of shells in Aux-C                     ...    772
   Maximum angular momentum in Aux-C        ...      4
Auxiliary 'external' fitting basis          ... NOT available
Integral threshold                          ...     2.500000e-11
Primitive cut-off                           ...     2.500000e-12
Primitive pair pre-selection threshold      ...     2.500000e-12

Calculating pre-screening integrals         ... done (  0.1 sec) Dimension = 394
Organizing shell pair data                  ... done (  2.6 sec)
Shell pair information
Total number of shell pairs                 ...     77815
Shell pairs after pre-screening             ...     49816
Total number of primitive shell pairs       ...    243264
Primitive shell pairs kept                  ...    100564
          la=0 lb=0:  12056 shell pairs
          la=1 lb=0:  14258 shell pairs
          la=1 lb=1:   4188 shell pairs
          la=2 lb=0:   7238 shell pairs
          la=2 lb=1:   4312 shell pairs
          la=2 lb=2:   1117 shell pairs
          la=3 lb=0:   3330 shell pairs
          la=3 lb=1:   2032 shell pairs
          la=3 lb=2:   1034 shell pairs
          la=3 lb=3:    251 shell pairs

Calculating one electron integrals          ... done (  0.1 sec)
Calculating RI/J V-Matrix + Cholesky decomp.... done (  0.2 sec)
Calculating RI/C V-Matrix + Cholesky decomp.... done (  0.2 sec)
Calculating Nuclear repulsion               ... done (  0.0 sec) ENN=   2546.024177325277 Eh

SHARK setup successfully completed in   3.9 seconds

Maximum memory used throughout the entire GTOINT-calculation: 83.4 MB


           ************************************************************
           *        Program running with 8 parallel MPI-processes     *
           *              working on a common directory               *
           ************************************************************
-------------------------------------------------------------------------------
                                 ORCA SCF
-------------------------------------------------------------------------------

------------
SCF SETTINGS
------------
Hamiltonian:
 Density Functional     Method          .... DFT(GTOs)
 Exchange Functional    Exchange        .... B88
   X-Alpha parameter    XAlpha          ....  0.666667
   Becke's b parameter  XBeta           ....  0.004200
 Correlation Functional Correlation     .... LYP
 LDA part of GGA corr.  LDAOpt          .... VWN-3
 Gradients option       PostSCFGGA      .... off
 Hybrid DFT is turned on
   Fraction HF Exchange ScalHFX         ....  0.530000
   Scaling of DF-GGA-X  ScalDFX         ....  0.470000
   Scaling of DF-GGA-C  ScalDFC         ....  0.730000
   Scaling of DF-LDA-C  ScalLDAC        ....  0.730000
   Perturbative correction              ....  0.270000
   Density functional embedding theory  .... OFF
   NL short-range parameter             ....  7.800000
 RI-approximation to the Coulomb term is turned on
   Number of AuxJ basis functions       .... 1646
   RIJ-COSX (HFX calculated with COS-X)).... on


General Settings:
 Integral files         IntName         .... PA_3_M06L_def2TZVP_coords
 Hartree-Fock type      HFTyp           .... RHF
 Total Charge           Charge          ....    0
 Multiplicity           Mult            ....    1
 Number of Electrons    NEL             ....  200
 Basis Dimension        Dim             .... 1026
 Nuclear Repulsion      ENuc            ....   2546.0241773253 Eh

Convergence Acceleration:
 DIIS                   CNVDIIS         .... on
   Start iteration      DIISMaxIt       ....    12
   Startup error        DIISStart       ....  0.200000
   # of expansion vecs  DIISMaxEq       ....     5
   Bias factor          DIISBfac        ....   1.050
   Max. coefficient     DIISMaxC        ....  10.000
 Trust-Rad. Augm. Hess. CNVTRAH         .... auto
   Auto Start mean grad. ratio tolernc. ....  1.125000
   Auto Start start iteration           ....    20
   Auto Start num. interpolation iter.  ....    10
   Max. Number of Micro iterations      ....    16
   Max. Number of Macro iterations      .... Maxiter - #DIIS iter
   Number of Davidson start vectors     ....     2
   Converg. threshold I  (grad. norm)   ....   1.000e-05
   Converg. threshold II (energy diff.) ....   1.000e-08
   Grad. Scal. Fac. for Micro threshold ....   0.100
   Minimum threshold for Micro iter.    ....   0.010
   NR start threshold (gradient norm)   ....   0.001
   Initial trust radius                 ....   0.400
   Minimum AH scaling param. (alpha)    ....   1.000
   Maximum AH scaling param. (alpha)    .... 1000.000
   Orbital update algorithm             .... Taylor
   White noise on init. David. guess    .... on
   Maximum white noise                  ....   0.010
   Quad. conv. algorithm                .... NR
 SOSCF                  CNVSOSCF        .... on
   Start iteration      SOSCFMaxIt      ....   150
   Startup grad/error   SOSCFStart      ....  0.003300
 Level Shifting         CNVShift        .... on
   Level shift para.    LevelShift      ....    0.2500
   Turn off err/grad.   ShiftErr        ....    0.0010
 Zerner damping         CNVZerner       .... off
 Static damping         CNVDamp         .... on
   Fraction old density DampFac         ....    0.7000
   Max. Damping (<1)    DampMax         ....    0.9800
   Min. Damping (>=0)   DampMin         ....    0.0000
   Turn off err/grad.   DampErr         ....    0.1000
 Fernandez-Rico         CNVRico         .... off

SCF Procedure:
 Maximum # iterations   MaxIter         ....   125
 SCF integral mode      SCFMode         .... Direct
   Integral package                     .... SHARK and LIBINT hybrid scheme
 Reset frequency        DirectResetFreq ....    20
 Integral Threshold     Thresh          ....  2.500e-11 Eh
 Primitive CutOff       TCut            ....  2.500e-12 Eh

Convergence Tolerance:
 Convergence Check Mode ConvCheckMode   .... Total+1el-Energy
 Convergence forced     ConvForced      .... 1
 Energy Change          TolE            ....  1.000e-08 Eh
 1-El. energy change                    ....  1.000e-05 Eh
 Orbital Gradient       TolG            ....  1.000e-05
 Orbital Rotation angle TolX            ....  1.000e-05
 DIIS Error             TolErr          ....  5.000e-07


Diagonalization of the overlap matrix:
Smallest eigenvalue                        ... 3.472e-06
Time for diagonalization                   ...    0.179 sec
Threshold for overlap eigenvalues          ... 1.000e-08
Number of eigenvalues below threshold      ... 0
Time for construction of square roots      ...    0.093 sec
Total time needed                          ...    0.275 sec

Time for model grid setup =    0.310 sec

------------------------------
INITIAL GUESS: MODEL POTENTIAL
------------------------------
Loading Hartree-Fock densities                     ... done
Calculating cut-offs                               ... done
Initializing the effective Hamiltonian             ... done
Setting up the integral package (SHARK)            ... done
Starting the Coulomb interaction                   ... done (   0.8 sec)
Reading the grid                                   ... done
Mapping shells                                     ... done
Starting the XC term evaluation                    ... done (   0.3 sec)
  promolecular density results
     # of electrons  =    199.986056033
     EX              =   -164.791008864
     EC              =     -2.284755698
     EX+EC           =   -167.075764562
Transforming the Hamiltonian                       ... done (   0.1 sec)
Diagonalizing the Hamiltonian                      ... done (   0.1 sec)
Back transforming the eigenvectors                 ... done (   0.0 sec)
Now organizing SCF variables                       ... done
                      ------------------
                      INITIAL GUESS DONE (   1.6 sec)
                      ------------------
-------------------
DFT GRID GENERATION
-------------------

General Integration Accuracy     IntAcc      ... 4.388
Radial Grid Type                 RadialGrid  ... OptM3 with GC (2021)
Angular Grid (max. ang.)         AngularGrid ... 4 (Lebedev-302)
Angular grid pruning method      GridPruning ... 4 (adaptive)
Weight generation scheme         WeightScheme... Becke
Basis function cutoff            BFCut       ... 1.0000e-11
Integration weight cutoff        WCut        ... 1.0000e-14
Angular grids for H and He will be reduced by one unit
Partially contracted basis set               ... off
Rotationally invariant grid construction     ... off

Total number of grid points                  ...   229212
Total number of batches                      ...     3607
Average number of points per batch           ...       63
Average number of grid points per atom       ...     4983
Time for grid setup =    1.266 sec

--------------------
COSX GRID GENERATION
--------------------

GRIDX 1
-------
General Integration Accuracy     IntAcc      ... 3.816
Radial Grid Type                 RadialGrid  ... OptM3 with GC (2021)
Angular Grid (max. ang.)         AngularGrid ... 1 (Lebedev-50)
Angular grid pruning method      GridPruning ... 4 (adaptive)
Weight generation scheme         WeightScheme... Becke
Basis function cutoff            BFCut       ... 1.0000e-11
Integration weight cutoff        WCut        ... 1.0000e-14
Angular grids for H and He will be reduced by one unit
Partially contracted basis set               ... on
Rotationally invariant grid construction     ... off

Total number of grid points                  ...    29050
Total number of batches                      ...      476
Average number of points per batch           ...       61
Average number of grid points per atom       ...      632
UseSFitting                                  ... on

GRIDX 2
-------
General Integration Accuracy     IntAcc      ... 4.020
Radial Grid Type                 RadialGrid  ... OptM3 with GC (2021)
Angular Grid (max. ang.)         AngularGrid ... 2 (Lebedev-110)
Angular grid pruning method      GridPruning ... 4 (adaptive)
Weight generation scheme         WeightScheme... Becke
Basis function cutoff            BFCut       ... 1.0000e-11
Integration weight cutoff        WCut        ... 1.0000e-14
Angular grids for H and He will be reduced by one unit
Partially contracted basis set               ... on
Rotationally invariant grid construction     ... off

Total number of grid points                  ...    63860
Total number of batches                      ...     1018
Average number of points per batch           ...       62
Average number of grid points per atom       ...     1388
UseSFitting                                  ... on

GRIDX 3
-------
General Integration Accuracy     IntAcc      ... 4.338
Radial Grid Type                 RadialGrid  ... OptM3 with GC (2021)
Angular Grid (max. ang.)         AngularGrid ... 3 (Lebedev-194)
Angular grid pruning method      GridPruning ... 4 (adaptive)
Weight generation scheme         WeightScheme... Becke
Basis function cutoff            BFCut       ... 1.0000e-11
Integration weight cutoff        WCut        ... 1.0000e-14
Angular grids for H and He will be reduced by one unit
Partially contracted basis set               ... on
Rotationally invariant grid construction     ... off

Total number of grid points                  ...   139960
Total number of batches                      ...     2214
Average number of points per batch           ...       63
Average number of grid points per atom       ...     3043
UseSFitting                                  ... on

Time for X-Grid setup             =    1.720 sec


--------------------
CPCM SOLVATION MODEL
--------------------
CPCM parameters:
  Epsilon                                         ...      37.2190
  Refrac                                          ...       1.4305
  Rsolv                                           ...       1.3000
  Surface type                                    ... GAUSSIAN VDW
  Epsilon function type                           ...         CPCM
Solvent:                                     ... N,N-DIMETHYLFORMAMIDE
SMD-CDS solvent descriptors:
  Soln                                       ...    1.4305
  Soln25                                     ...    1.4280
  Sola                                       ...    0.0000
  Solb                                       ...    0.7400
  Solg                                       ...   49.5600
  Solc                                       ...    0.0000
  Solh                                       ...    0.0000
Radii:
 Radius for C  used is    3.4960 Bohr (=   1.8500 Ang.)
 Radius for H  used is    2.2677 Bohr (=   1.2000 Ang.)
 Radius for N  used is    3.5716 Bohr (=   1.8900 Ang.)
Calculating surface                               ...        done! (  0.0s)
GEPOL surface points                              ...         2568
GEPOL Volume                                      ...    2642.8648
GEPOL Surface-area                                ...    1434.6741
Calculating surface distance matrix               ...        done! (  0.0s)
Performing Cholesky decomposition & store         ...        done! (  0.3s)
Overall time for CPCM initialization              ...                 0.3s
--------------
SCF ITERATIONS
--------------
ITER       Energy         Delta-E        Max-DP      RMS-DP      [F,P]     Damp
               ***  Starting incremental Fock matrix formation  ***
  0  -1216.4849079716   0.000000000000 0.04369217  0.00059907  0.2645665 0.7000
  1  -1216.7874470921  -0.302539120416 0.03920716  0.00049925  0.1317272 0.7000
                               ***Turning on DIIS***
  2  -1216.9438503168  -0.156403224715 0.09095835  0.00105658  0.0572720 0.0000
  3  -1217.2101993444  -0.266349027659 0.05439983  0.00035487  0.0588486 0.0000
  4  -1217.2439293337  -0.033729989226 0.01530939  0.00012401  0.0155894 0.0000
  5  -1217.2455629560  -0.001633622320 0.00880590  0.00006131  0.0069431 0.0000
                      *** Initiating the SOSCF procedure ***
                           *** Shutting down DIIS ***
                      *** Re-Reading the Fockian *** 
                      *** Removing any level shift *** 
ITER      Energy       Delta-E        Grad      Rot      Max-DP    RMS-DP
  6  -1217.24580664  -0.0002436813  0.001103  0.001103  0.003154  0.000025
               *** Restarting incremental Fock matrix formation ***
  7  -1217.24553360   0.0002730394  0.001060  0.004218  0.051974  0.000350
  8  -1217.24554880  -0.0000152056  0.000232  0.002288  0.025605  0.000170
  9  -1217.24555264  -0.0000038406  0.000148  0.000557  0.023002  0.000152
 10  -1217.24555424  -0.0000015997  0.000045  0.000144  0.003228  0.000022
 11  -1217.24555429  -0.0000000452  0.000028  0.000049  0.001358  0.000009
 12  -1217.24555437  -0.0000000783  0.000004  0.000025  0.000370  0.000003
 13  -1217.24555434   0.0000000288  0.000003  0.000008  0.000134  0.000001
                  ***Gradient check signals convergence***
              ***Rediagonalizing the Fockian in SOSCF/NRSCF***

               *****************************************************
               *                     SUCCESS                       *
               *           SCF CONVERGED AFTER  14 CYCLES          *
               *****************************************************

Old exchange energy                            =    -88.643021023 Eh
New exchange energy                            =    -88.642950805 Eh
Exchange energy change after final integration =      0.000070218 Eh
Total energy after final integration           =  -1217.245484151 Eh
Final COS-X integration done in                =    34.785 sec

SMD CDS free energy correction energy :                -1.04225     Kcal/mol
Total Energy after SMD CDS correction =             -1217.247145086 Eh

----------------
TOTAL SCF ENERGY
----------------

Total Energy       :        -1217.24714509 Eh          -33122.97876 eV

Components:
Nuclear Repulsion  :         2546.02417733 Eh           69280.84003 eV
Electronic Energy  :        -3763.27132241 Eh         -102403.81879 eV
One Electron Energy:        -6706.19953469 Eh         -182484.96670 eV
Two Electron Energy:         2942.92821228 Eh           80081.14790 eV
Max COSX asymmetry :            0.00001114 Eh               0.00030 eV
CPCM Dielectric    :           -0.04044054 Eh              -1.10044 eV
SMD CDS (Gcds)     :           -0.00166093 Eh              -0.04520 eV

Virial components:
Potential Energy   :        -2430.54298128 Eh          -66138.43693 eV
Kinetic Energy     :         1213.29583620 Eh           33015.45818 eV
Virial Ratio       :            2.00325667


DFT components:
N(Alpha)           :      100.000079566751 electrons
N(Beta)            :      100.000079566751 electrons
N(Total)           :      200.000159133503 electrons
E(X)               :      -78.795188185864 Eh       
E(C)               :       -5.000938405211 Eh       
E(XC)              :      -83.796126591075 Eh       
DFET-embed. en.    :        0.000000000000 Eh       
CPCM Solvation Model Properties:
Surface-charge          :           -0.06430408
Charge-correction       :            0.00063039 Eh               0.01715 eV
Free-energy (cav+disp)  :           -0.00166093 Eh              -0.04520 eV

---------------
SCF CONVERGENCE
---------------

  Last Energy change         ...   -3.1008e-08  Tolerance :   1.0000e-08
  Last MAX-Density change    ...    2.1094e-15  Tolerance :   1.0000e-07
  Last RMS-Density change    ...    1.1982e-17  Tolerance :   5.0000e-09
  Last Orbital Gradient      ...    9.5736e-07  Tolerance :   1.0000e-05
  Last Orbital Rotation      ...    2.1466e-06  Tolerance :   1.0000e-05

             **** THE GBW FILE WAS UPDATED (PA_3_M06L_def2TZVP_coords.gbw) ****
             **** DENSITY PA_3_M06L_def2TZVP_coords.scfp WAS UPDATED ****
             **** ENERGY FILE WAS UPDATED (PA_3_M06L_def2TZVP_coords.en.tmp) ****
             **** THE GBW FILE WAS UPDATED (PA_3_M06L_def2TZVP_coords.gbw) ****
             **** DENSITY PA_3_M06L_def2TZVP_coords.scfp WAS UPDATED ****
----------------
ORBITAL ENERGIES
----------------

  NO   OCC          E(Eh)            E(eV) 
   0   2.0000     -14.875204      -404.7749 
   1   2.0000     -14.874699      -404.7611 
   2   2.0000     -14.851492      -404.1297 
   3   2.0000     -14.851236      -404.1227 
   4   2.0000     -10.674753      -290.4748 
   5   2.0000     -10.674537      -290.4689 
   6   2.0000     -10.673376      -290.4373 
   7   2.0000     -10.673186      -290.4322 
   8   2.0000     -10.669634      -290.3355 
   9   2.0000     -10.669610      -290.3348 
  10   2.0000     -10.668856      -290.3143 
  11   2.0000     -10.668849      -290.3142 
  12   2.0000     -10.665714      -290.2288 
  13   2.0000     -10.665202      -290.2149 
  14   2.0000     -10.642729      -289.6034 
  15   2.0000     -10.642703      -289.6027 
  16   2.0000     -10.642489      -289.5968 
  17   2.0000     -10.642462      -289.5961 
  18   2.0000     -10.631441      -289.2962 
  19   2.0000     -10.631425      -289.2958 
  20   2.0000     -10.631193      -289.2895 
  21   2.0000     -10.631175      -289.2890 
  22   2.0000     -10.612786      -288.7886 
  23   2.0000     -10.612785      -288.7886 
  24   2.0000     -10.612728      -288.7870 
  25   2.0000     -10.612728      -288.7870 
  26   2.0000     -10.609441      -288.6976 
  27   2.0000     -10.609441      -288.6976 
  28   2.0000     -10.608521      -288.6725 
  29   2.0000     -10.608521      -288.6725 
  30   2.0000      -1.138261       -30.9737 
  31   2.0000      -1.096051       -29.8251 
  32   2.0000      -1.054762       -28.7015 
  33   2.0000      -1.054377       -28.6910 
  34   2.0000      -1.008334       -27.4382 
  35   2.0000      -0.999759       -27.2048 
  36   2.0000      -0.993122       -27.0242 
  37   2.0000      -0.959530       -26.1101 
  38   2.0000      -0.909548       -24.7501 
  39   2.0000      -0.892661       -24.2905 
  40   2.0000      -0.885089       -24.0845 
  41   2.0000      -0.884460       -24.0674 
  42   2.0000      -0.877963       -23.8906 
  43   2.0000      -0.873585       -23.7714 
  44   2.0000      -0.841973       -22.9112 
  45   2.0000      -0.822021       -22.3683 
  46   2.0000      -0.765474       -20.8296 
  47   2.0000      -0.751446       -20.4479 
  48   2.0000      -0.738740       -20.1021 
  49   2.0000      -0.728011       -19.8102 
  50   2.0000      -0.726830       -19.7781 
  51   2.0000      -0.696971       -18.9655 
  52   2.0000      -0.694559       -18.8999 
  53   2.0000      -0.652132       -17.7454 
  54   2.0000      -0.648032       -17.6339 
  55   2.0000      -0.646710       -17.5979 
  56   2.0000      -0.646546       -17.5934 
  57   2.0000      -0.615796       -16.7567 
  58   2.0000      -0.608350       -16.5540 
  59   2.0000      -0.576505       -15.6875 
  60   2.0000      -0.570473       -15.5234 
  61   2.0000      -0.567892       -15.4531 
  62   2.0000      -0.543793       -14.7974 
  63   2.0000      -0.541313       -14.7299 
  64   2.0000      -0.534333       -14.5400 
  65   2.0000      -0.527175       -14.3452 
  66   2.0000      -0.514396       -13.9974 
  67   2.0000      -0.513982       -13.9862 
  68   2.0000      -0.510998       -13.9050 
  69   2.0000      -0.510811       -13.8999 
  70   2.0000      -0.505582       -13.7576 
  71   2.0000      -0.502001       -13.6602 
  72   2.0000      -0.500672       -13.6240 
  73   2.0000      -0.483023       -13.1437 
  74   2.0000      -0.476355       -12.9623 
  75   2.0000      -0.474199       -12.9036 
  76   2.0000      -0.469213       -12.7679 
  77   2.0000      -0.457078       -12.4377 
  78   2.0000      -0.456746       -12.4287 
  79   2.0000      -0.448798       -12.2124 
  80   2.0000      -0.442731       -12.0473 
  81   2.0000      -0.439018       -11.9463 
  82   2.0000      -0.436568       -11.8796 
  83   2.0000      -0.425685       -11.5835 
  84   2.0000      -0.419356       -11.4113 
  85   2.0000      -0.411127       -11.1873 
  86   2.0000      -0.409554       -11.1445 
  87   2.0000      -0.406160       -11.0522 
  88   2.0000      -0.405066       -11.0224 
  89   2.0000      -0.403078       -10.9683 
  90   2.0000      -0.399707       -10.8766 
  91   2.0000      -0.376940       -10.2571 
  92   2.0000      -0.318509        -8.6671 
  93   2.0000      -0.313982        -8.5439 
  94   2.0000      -0.307624        -8.3709 
  95   2.0000      -0.306993        -8.3537 
  96   2.0000      -0.300600        -8.1797 
  97   2.0000      -0.297700        -8.1008 
  98   2.0000      -0.264123        -7.1872 
  99   2.0000      -0.199897        -5.4395 
 100   0.0000      -0.009227        -0.2511 
 101   0.0000      -0.008023        -0.2183 
 102   0.0000       0.019098         0.5197 
 103   0.0000       0.020213         0.5500 
 104   0.0000       0.041298         1.1238 
 105   0.0000       0.051649         1.4054 
 106   0.0000       0.052630         1.4321 
 107   0.0000       0.082318         2.2400 
 108   0.0000       0.087567         2.3828 
 109   0.0000       0.087950         2.3932 
 110   0.0000       0.089422         2.4333 
 111   0.0000       0.089556         2.4369 
 112   0.0000       0.098037         2.6677 
 113   0.0000       0.106469         2.8972 
 114   0.0000       0.113643         3.0924 
 115   0.0000       0.118668         3.2291 
 116   0.0000       0.122456         3.3322 
 117   0.0000       0.124026         3.3749 
 118   0.0000       0.125206         3.4070 
 119   0.0000       0.125817         3.4236 
 120   0.0000       0.130144         3.5414 
 121   0.0000       0.137613         3.7446 
 122   0.0000       0.144832         3.9411 
 123   0.0000       0.145375         3.9559 
 124   0.0000       0.159104         4.3294 
 125   0.0000       0.159259         4.3337 
 126   0.0000       0.163585         4.4514 
 127   0.0000       0.166642         4.5346 
 128   0.0000       0.168266         4.5787 
 129   0.0000       0.174578         4.7505 
 130   0.0000       0.181343         4.9346 
 131   0.0000       0.191746         5.2177 
 132   0.0000       0.194312         5.2875 
 133   0.0000       0.203331         5.5329 
 134   0.0000       0.206794         5.6272 
 135   0.0000       0.215748         5.8708 
 136   0.0000       0.220553         6.0016 
 137   0.0000       0.221859         6.0371 
 138   0.0000       0.223789         6.0896 
 139   0.0000       0.225263         6.1297 
 140   0.0000       0.240657         6.5486 
 141   0.0000       0.241104         6.5608 
 142   0.0000       0.244600         6.6559 
 143   0.0000       0.245020         6.6673 
 144   0.0000       0.255907         6.9636 
 145   0.0000       0.257902         7.0179 
 146   0.0000       0.259302         7.0560 
 147   0.0000       0.259833         7.0704 
 148   0.0000       0.266556         7.2533 
 149   0.0000       0.268102         7.2954 
 150   0.0000       0.275362         7.4930 
 151   0.0000       0.276444         7.5224 
 152   0.0000       0.276455         7.5227 
 153   0.0000       0.277017         7.5380 
 154   0.0000       0.286620         7.7993 
 155   0.0000       0.287826         7.8322 
 156   0.0000       0.292108         7.9487 
 157   0.0000       0.294218         8.0061 
 158   0.0000       0.297701         8.1009 
 159   0.0000       0.306814         8.3488 
 160   0.0000       0.308556         8.3962 
 161   0.0000       0.309847         8.4314 
 162   0.0000       0.310129         8.4390 
 163   0.0000       0.311426         8.4743 
 164   0.0000       0.315627         8.5886 
 165   0.0000       0.319338         8.6896 
 166   0.0000       0.319897         8.7048 
 167   0.0000       0.324209         8.8222 
 168   0.0000       0.329289         8.9604 
 169   0.0000       0.333154         9.0656 
 170   0.0000       0.341009         9.2793 
 171   0.0000       0.343355         9.3432 
 172   0.0000       0.346495         9.4286 
 173   0.0000       0.349172         9.5015 
 174   0.0000       0.352802         9.6002 
 175   0.0000       0.354390         9.6434 
 176   0.0000       0.363155         9.8819 
 177   0.0000       0.363624         9.8947 
 178   0.0000       0.371676        10.1138 
 179   0.0000       0.378807        10.3079 
 180   0.0000       0.381698        10.3865 
 181   0.0000       0.383467        10.4347 
 182   0.0000       0.385499        10.4900 
 183   0.0000       0.386529        10.5180 
 184   0.0000       0.394864        10.7448 
 185   0.0000       0.398875        10.8539 
 186   0.0000       0.405678        11.0390 
 187   0.0000       0.407571        11.0906 
 188   0.0000       0.408098        11.1049 
 189   0.0000       0.414598        11.2818 
 190   0.0000       0.416120        11.3232 
 191   0.0000       0.419251        11.4084 
 192   0.0000       0.426253        11.5989 
 193   0.0000       0.428876        11.6703 
 194   0.0000       0.439549        11.9607 
 195   0.0000       0.439740        11.9659 
 196   0.0000       0.440820        11.9953 
 197   0.0000       0.448176        12.1955 
 198   0.0000       0.450513        12.2591 
 199   0.0000       0.450630        12.2623 
 200   0.0000       0.451988        12.2992 
 201   0.0000       0.455366        12.3911 
 202   0.0000       0.459880        12.5140 
 203   0.0000       0.466865        12.7041 
 204   0.0000       0.468520        12.7491 
 205   0.0000       0.471369        12.8266 
 206   0.0000       0.471906        12.8412 
 207   0.0000       0.478917        13.0320 
 208   0.0000       0.481899        13.1131 
 209   0.0000       0.483701        13.1622 
 210   0.0000       0.486494        13.2382 
 211   0.0000       0.489521        13.3206 
 212   0.0000       0.489547        13.3212 
 213   0.0000       0.491347        13.3702 
 214   0.0000       0.493416        13.4265 
 215   0.0000       0.500101        13.6084 
 216   0.0000       0.507838        13.8190 
 217   0.0000       0.508182        13.8283 
 218   0.0000       0.509147        13.8546 
 219   0.0000       0.512527        13.9466 
 220   0.0000       0.516102        14.0438 
 221   0.0000       0.525734        14.3059 
 222   0.0000       0.526838        14.3360 
 223   0.0000       0.537609        14.6291 
 224   0.0000       0.539379        14.6772 
 225   0.0000       0.540489        14.7075 
 226   0.0000       0.542455        14.7609 
 227   0.0000       0.545144        14.8341 
 228   0.0000       0.546930        14.8827 
 229   0.0000       0.547323        14.8934 
 230   0.0000       0.549788        14.9605 
 231   0.0000       0.552731        15.0406 
 232   0.0000       0.556463        15.1421 
 233   0.0000       0.566077        15.4037 
 234   0.0000       0.570584        15.5264 
 235   0.0000       0.572576        15.5806 
 236   0.0000       0.577375        15.7112 
 237   0.0000       0.578598        15.7445 
 238   0.0000       0.580257        15.7896 
 239   0.0000       0.585358        15.9284 
 240   0.0000       0.588961        16.0265 
 241   0.0000       0.604268        16.4430 
 242   0.0000       0.608038        16.5456 
 243   0.0000       0.608764        16.5653 
 244   0.0000       0.613586        16.6965 
 245   0.0000       0.626630        17.0515 
 246   0.0000       0.628780        17.1100 
 247   0.0000       0.633283        17.2325 
 248   0.0000       0.634536        17.2666 
 249   0.0000       0.635610        17.2958 
 250   0.0000       0.652292        17.7498 
 251   0.0000       0.664664        18.0864 
 252   0.0000       0.664683        18.0870 
 253   0.0000       0.668764        18.1980 
 254   0.0000       0.676150        18.3990 
 255   0.0000       0.677333        18.4312 
 256   0.0000       0.677430        18.4338 
 257   0.0000       0.681707        18.5502 
 258   0.0000       0.688568        18.7369 
 259   0.0000       0.690520        18.7900 
 260   0.0000       0.697651        18.9840 
 261   0.0000       0.706202        19.2167 
 262   0.0000       0.716868        19.5070 
 263   0.0000       0.718002        19.5378 
 264   0.0000       0.718198        19.5432 
 265   0.0000       0.719516        19.5790 
 266   0.0000       0.721274        19.6269 
 267   0.0000       0.723895        19.6982 
 268   0.0000       0.730807        19.8863 
 269   0.0000       0.732169        19.9233 
 270   0.0000       0.739855        20.1325 
 271   0.0000       0.744039        20.2463 
 272   0.0000       0.746603        20.3161 
 273   0.0000       0.764261        20.7966 
 274   0.0000       0.767086        20.8735 
 275   0.0000       0.769551        20.9405 
 276   0.0000       0.771093        20.9825 
 277   0.0000       0.779222        21.2037 
 278   0.0000       0.779249        21.2044 
 279   0.0000       0.783889        21.3307 
 280   0.0000       0.787324        21.4242 
 281   0.0000       0.787377        21.4256 
 282   0.0000       0.794680        21.6243 
 283   0.0000       0.798348        21.7242 
 284   0.0000       0.799675        21.7603 
 285   0.0000       0.804829        21.9005 
 286   0.0000       0.809424        22.0255 
 287   0.0000       0.814635        22.1673 
 288   0.0000       0.814901        22.1746 
 289   0.0000       0.816360        22.2143 
 290   0.0000       0.824850        22.4453 
 291   0.0000       0.832636        22.6572 
 292   0.0000       0.834841        22.7172 
 293   0.0000       0.835575        22.7372 
 294   0.0000       0.844202        22.9719 
 295   0.0000       0.852012        23.1844 
 296   0.0000       0.854423        23.2500 
 297   0.0000       0.854664        23.2566 
 298   0.0000       0.856045        23.2942 
 299   0.0000       0.861918        23.4540 
 300   0.0000       0.874880        23.8067 
 301   0.0000       0.875827        23.8325 
 302   0.0000       0.880448        23.9582 
 303   0.0000       0.885783        24.1034 
 304   0.0000       0.896238        24.3879 
 305   0.0000       0.899909        24.4878 
 306   0.0000       0.902961        24.5708 
 307   0.0000       0.904002        24.5992 
 308   0.0000       0.905647        24.6439 
 309   0.0000       0.907853        24.7039 
 310   0.0000       0.934960        25.4416 
 311   0.0000       0.935526        25.4570 
 312   0.0000       0.937545        25.5119 
 313   0.0000       0.947626        25.7862 
 314   0.0000       0.950264        25.8580 
 315   0.0000       0.954373        25.9698 
 316   0.0000       0.956719        26.0337 
 317   0.0000       0.957195        26.0466 
 318   0.0000       0.958625        26.0855 
 319   0.0000       0.967240        26.3199 
 320   0.0000       0.969820        26.3902 
 321   0.0000       0.973846        26.4997 
 322   0.0000       0.982554        26.7366 
 323   0.0000       0.986797        26.8521 
 324   0.0000       0.991672        26.9848 
 325   0.0000       0.993198        27.0263 
 326   0.0000       0.999084        27.1865 
 327   0.0000       1.011508        27.5245 
 328   0.0000       1.011956        27.5367 
 329   0.0000       1.015515        27.6336 
 330   0.0000       1.029260        28.0076 
 331   0.0000       1.031704        28.0741 
 332   0.0000       1.038775        28.2665 
 333   0.0000       1.044534        28.4232 
 334   0.0000       1.060602        28.8605 
 335   0.0000       1.066811        29.0294 
 336   0.0000       1.073031        29.1987 
 337   0.0000       1.088910        29.6307 
 338   0.0000       1.093312        29.7505 
 339   0.0000       1.097922        29.8760 
 340   0.0000       1.098964        29.9043 
 341   0.0000       1.115425        30.3522 
 342   0.0000       1.124136        30.5893 
 343   0.0000       1.126888        30.6642 
 344   0.0000       1.141624        31.0652 
 345   0.0000       1.143327        31.1115 
 346   0.0000       1.146515        31.1982 
 347   0.0000       1.153827        31.3972 
 348   0.0000       1.157294        31.4916 
 349   0.0000       1.160443        31.5772 
 350   0.0000       1.162689        31.6384 
 351   0.0000       1.171058        31.8661 
 352   0.0000       1.176826        32.0231 
 353   0.0000       1.182677        32.1823 
 354   0.0000       1.186717        32.2922 
 355   0.0000       1.189651        32.3720 
 356   0.0000       1.195850        32.5407 
 357   0.0000       1.200770        32.6746 
 358   0.0000       1.211880        32.9769 
 359   0.0000       1.213195        33.0127 
 360   0.0000       1.228355        33.4252 
 361   0.0000       1.240174        33.7468 
 362   0.0000       1.242400        33.8074 
 363   0.0000       1.248849        33.9829 
 364   0.0000       1.255202        34.1558 
 365   0.0000       1.260139        34.2901 
 366   0.0000       1.267554        34.4919 
 367   0.0000       1.273511        34.6540 
 368   0.0000       1.274518        34.6814 
 369   0.0000       1.283635        34.9295 
 370   0.0000       1.294246        35.2182 
 371   0.0000       1.301011        35.4023 
 372   0.0000       1.304690        35.5024 
 373   0.0000       1.315661        35.8010 
 374   0.0000       1.319506        35.9056 
 375   0.0000       1.323373        36.0108 
 376   0.0000       1.323583        36.0165 
 377   0.0000       1.328389        36.1473 
 378   0.0000       1.332274        36.2530 
 379   0.0000       1.336963        36.3806 
 380   0.0000       1.343408        36.5560 
 381   0.0000       1.350908        36.7601 
 382   0.0000       1.352271        36.7972 
 383   0.0000       1.361701        37.0538 
 384   0.0000       1.362584        37.0778 
 385   0.0000       1.363119        37.0924 
 386   0.0000       1.366237        37.1772 
 387   0.0000       1.367977        37.2245 
 388   0.0000       1.373570        37.3767 
 389   0.0000       1.376637        37.4602 
 390   0.0000       1.385851        37.7109 
 391   0.0000       1.393356        37.9151 
 392   0.0000       1.401144        38.1271 
 393   0.0000       1.414872        38.5006 
 394   0.0000       1.416616        38.5481 
 395   0.0000       1.426198        38.8088 
 396   0.0000       1.430059        38.9139 
 397   0.0000       1.438698        39.1490 
 398   0.0000       1.441440        39.2236 
 399   0.0000       1.452928        39.5362 
 400   0.0000       1.458822        39.6966 
 401   0.0000       1.459429        39.7131 
 402   0.0000       1.461423        39.7673 
 403   0.0000       1.464112        39.8405 
 404   0.0000       1.469861        39.9969 
 405   0.0000       1.477806        40.2131 
 406   0.0000       1.483757        40.3751 
 407   0.0000       1.484004        40.3818 
 408   0.0000       1.504835        40.9486 
 409   0.0000       1.510365        41.0991 
 410   0.0000       1.518163        41.3113 
 411   0.0000       1.522590        41.4318 
 412   0.0000       1.525643        41.5149 
 413   0.0000       1.529858        41.6296 
 414   0.0000       1.532105        41.6907 
 415   0.0000       1.547268        42.1033 
 416   0.0000       1.564632        42.5758 
 417   0.0000       1.567149        42.6443 
 418   0.0000       1.575687        42.8766 
 419   0.0000       1.581335        43.0303 
 420   0.0000       1.590211        43.2719 
 421   0.0000       1.595769        43.4231 
 422   0.0000       1.605872        43.6980 
 423   0.0000       1.607256        43.7357 
 424   0.0000       1.609491        43.7965 
 425   0.0000       1.612973        43.8912 
 426   0.0000       1.618458        44.0405 
 427   0.0000       1.624970        44.2177 
 428   0.0000       1.633019        44.4367 
 429   0.0000       1.635101        44.4934 
 430   0.0000       1.637462        44.5576 
 431   0.0000       1.640701        44.6457 
 432   0.0000       1.647935        44.8426 
 433   0.0000       1.656284        45.0698 
 434   0.0000       1.656317        45.0707 
 435   0.0000       1.662378        45.2356 
 436   0.0000       1.673266        45.5319 
 437   0.0000       1.687302        45.9138 
 438   0.0000       1.690573        46.0028 
 439   0.0000       1.691377        46.0247 
 440   0.0000       1.696175        46.1553 
 441   0.0000       1.696252        46.1574 
 442   0.0000       1.696774        46.1716 
 443   0.0000       1.700759        46.2800 
 444   0.0000       1.708145        46.4810 
 445   0.0000       1.717073        46.7239 
 446   0.0000       1.717569        46.7374 
 447   0.0000       1.720788        46.8250 
 448   0.0000       1.720917        46.8285 
 449   0.0000       1.724142        46.9163 
 450   0.0000       1.731129        47.1064 
 451   0.0000       1.733010        47.1576 
 452   0.0000       1.740892        47.3721 
 453   0.0000       1.744837        47.4794 
 454   0.0000       1.759230        47.8711 
 455   0.0000       1.761696        47.9382 
 456   0.0000       1.765261        48.0352 
 457   0.0000       1.770441        48.1762 
 458   0.0000       1.778886        48.4060 
 459   0.0000       1.784414        48.5564 
 460   0.0000       1.794351        48.8268 
 461   0.0000       1.795156        48.8487 
 462   0.0000       1.802276        49.0424 
 463   0.0000       1.814559        49.3766 
 464   0.0000       1.816065        49.4176 
 465   0.0000       1.820337        49.5339 
 466   0.0000       1.827400        49.7261 
 467   0.0000       1.840329        50.0779 
 468   0.0000       1.843456        50.1630 
 469   0.0000       1.844963        50.2040 
 470   0.0000       1.846169        50.2368 
 471   0.0000       1.855205        50.4827 
 472   0.0000       1.865920        50.7743 
 473   0.0000       1.876541        51.0633 
 474   0.0000       1.886113        51.3237 
 475   0.0000       1.889685        51.4209 
 476   0.0000       1.893799        51.5329 
 477   0.0000       1.902074        51.7581 
 478   0.0000       1.907832        51.9148 
 479   0.0000       1.908732        51.9392 
 480   0.0000       1.915291        52.1177 
 481   0.0000       1.940473        52.8030 
 482   0.0000       1.952887        53.1408 
 483   0.0000       1.959384        53.3175 
 484   0.0000       1.961067        53.3633 
 485   0.0000       1.965857        53.4937 
 486   0.0000       1.973973        53.7145 
 487   0.0000       1.976596        53.7859 
 488   0.0000       1.985937        54.0401 
 489   0.0000       1.992446        54.2172 
 490   0.0000       1.995100        54.2894 
 491   0.0000       2.005175        54.5636 
 492   0.0000       2.005944        54.5845 
 493   0.0000       2.016920        54.8832 
 494   0.0000       2.019886        54.9639 
 495   0.0000       2.023393        55.0593 
 496   0.0000       2.026320        55.1390 
 497   0.0000       2.031370        55.2764 
 498   0.0000       2.032043        55.2947 
 499   0.0000       2.032193        55.2988 
 500   0.0000       2.035885        55.3992 
 501   0.0000       2.050746        55.8036 
 502   0.0000       2.058810        56.0231 
 503   0.0000       2.083017        56.6818 
 504   0.0000       2.083724        56.7010 
 505   0.0000       2.085402        56.7467 
 506   0.0000       2.090898        56.8962 
 507   0.0000       2.095325        57.0167 
 508   0.0000       2.118220        57.6397 
 509   0.0000       2.121320        57.7241 
 510   0.0000       2.124735        57.8170 
 511   0.0000       2.141152        58.2637 
 512   0.0000       2.147448        58.4350 
 513   0.0000       2.153111        58.5891 
 514   0.0000       2.170274        59.0562 
 515   0.0000       2.171415        59.0872 
 516   0.0000       2.178206        59.2720 
 517   0.0000       2.197367        59.7934 
 518   0.0000       2.199918        59.8628 
 519   0.0000       2.202744        59.9397 
 520   0.0000       2.204584        59.9898 
 521   0.0000       2.238777        60.9202 
 522   0.0000       2.242706        61.0271 
 523   0.0000       2.255356        61.3714 
 524   0.0000       2.257877        61.4400 
 525   0.0000       2.274467        61.8914 
 526   0.0000       2.276864        61.9566 
 527   0.0000       2.285178        62.1829 
 528   0.0000       2.288834        62.2823 
 529   0.0000       2.289147        62.2908 
 530   0.0000       2.308946        62.8296 
 531   0.0000       2.309038        62.8321 
 532   0.0000       2.315080        62.9965 
 533   0.0000       2.317296        63.0568 
 534   0.0000       2.324271        63.2466 
 535   0.0000       2.326994        63.3207 
 536   0.0000       2.336576        63.5815 
 537   0.0000       2.349151        63.9237 
 538   0.0000       2.350925        63.9719 
 539   0.0000       2.373960        64.5987 
 540   0.0000       2.377723        64.7011 
 541   0.0000       2.378542        64.7234 
 542   0.0000       2.379952        64.7618 
 543   0.0000       2.396565        65.2139 
 544   0.0000       2.398404        65.2639 
 545   0.0000       2.409269        65.5595 
 546   0.0000       2.416824        65.7651 
 547   0.0000       2.417629        65.7870 
 548   0.0000       2.418462        65.8097 
 549   0.0000       2.426023        66.0154 
 550   0.0000       2.433328        66.2142 
 551   0.0000       2.439019        66.3691 
 552   0.0000       2.441204        66.4285 
 553   0.0000       2.458538        66.9002 
 554   0.0000       2.473475        67.3067 
 555   0.0000       2.474001        67.3210 
 556   0.0000       2.491421        67.7950 
 557   0.0000       2.496341        67.9289 
 558   0.0000       2.520944        68.5984 
 559   0.0000       2.536055        69.0096 
 560   0.0000       2.549339        69.3710 
 561   0.0000       2.552067        69.4453 
 562   0.0000       2.578085        70.1533 
 563   0.0000       2.585686        70.3601 
 564   0.0000       2.589258        70.4573 
 565   0.0000       2.599170        70.7270 
 566   0.0000       2.600506        70.7634 
 567   0.0000       2.609955        71.0205 
 568   0.0000       2.616701        71.2041 
 569   0.0000       2.617858        71.2355 
 570   0.0000       2.620285        71.3016 
 571   0.0000       2.623443        71.3875 
 572   0.0000       2.624638        71.4200 
 573   0.0000       2.648700        72.0748 
 574   0.0000       2.651172        72.1421 
 575   0.0000       2.652782        72.1859 
 576   0.0000       2.656584        72.2893 
 577   0.0000       2.671606        72.6981 
 578   0.0000       2.675492        72.8038 
 579   0.0000       2.691299        73.2340 
 580   0.0000       2.703169        73.5570 
 581   0.0000       2.707045        73.6624 
 582   0.0000       2.710290        73.7507 
 583   0.0000       2.715148        73.8829 
[...]
    96a -> 101a  :     0.023375 
    97a -> 100a  :     0.112222 
    97a -> 101a  :     0.065212 

STATE 11:  E=   0.164417 au      4.474 eV    36085.3 cm**-1 <S**2> =   0.000000
    94a -> 101a  :     0.033400 
    95a -> 100a  :     0.045980 
    98a -> 100a  :     0.056854 
    98a -> 101a  :     0.794459 
    99a -> 100a  :     0.025809 

STATE 12:  E=   0.191898 au      5.222 eV    42116.8 cm**-1 <S**2> =   0.000000
    93a -> 102a  :     0.016781 
    94a -> 100a  :     0.312458 
    94a -> 101a  :     0.044424 
    95a -> 101a  :     0.256198 
    97a -> 103a  :     0.011284 
    98a -> 100a  :     0.157034 
    99a -> 109a  :     0.128876 

STATE 13:  E=   0.187531 au      5.103 eV    41158.4 cm**-1 <S**2> =   0.000000
    99a -> 107a  :     0.461826 
    99a -> 112a  :     0.453525 
    99a -> 113a  :     0.025507 
    99a -> 121a  :     0.013410 
    99a -> 122a  :     0.013000 

STATE 14:  E=   0.199071 au      5.417 eV    43691.1 cm**-1 <S**2> =   0.000000
    92a -> 102a  :     0.025585 
    93a -> 103a  :     0.038046 
    94a -> 101a  :     0.331531 
    95a -> 100a  :     0.374971 
    95a -> 101a  :     0.033038 
    97a -> 104a  :     0.016022 
    98a -> 101a  :     0.101859 

STATE 15:  E=   0.182502 au      4.966 eV    40054.5 cm**-1 <S**2> =   0.000000
    97a -> 109a  :     0.028309 
    98a -> 102a  :     0.609549 
    98a -> 103a  :     0.025779 
    98a -> 104a  :     0.226417 
    99a -> 106a  :     0.053785 

STATE 16:  E=   0.198383 au      5.398 eV    43540.0 cm**-1 <S**2> =   0.000000
    92a -> 103a  :     0.028240 
    93a -> 104a  :     0.010400 
    94a -> 100a  :     0.078975 
    95a -> 101a  :     0.074684 
    96a -> 102a  :     0.026357 
    97a -> 106a  :     0.034528 
    98a -> 105a  :     0.101041 
    99a -> 109a  :     0.570386 
    99a -> 110a  :     0.012765 

STATE 17:  E=   0.190766 au      5.191 eV    41868.4 cm**-1 <S**2> =   0.000000
    97a -> 100a  :     0.017560 
    97a -> 105a  :     0.047318 
    98a -> 102a  :     0.032484 
    98a -> 103a  :     0.713840 
    98a -> 106a  :     0.115232 
    99a -> 104a  :     0.034159 

STATE 18:  E=   0.201678 au      5.488 eV    44263.3 cm**-1 <S**2> =   0.000000
    96a -> 114a  :     0.014579 
    99a -> 107a  :     0.269488 
    99a -> 112a  :     0.368415 
    99a -> 113a  :     0.285546 
    99a -> 122a  :     0.011647 

STATE 19:  E=   0.211863 au      5.765 eV    46498.6 cm**-1 <S**2> =   0.000000
    92a -> 106a  :     0.017153 
    93a -> 102a  :     0.025211 
    96a -> 102a  :     0.014848 
    96a -> 104a  :     0.023813 
    97a -> 103a  :     0.150948 
    97a -> 106a  :     0.032755 
    98a -> 105a  :     0.513862 
    99a -> 109a  :     0.165468 

STATE 20:  E=   0.210981 au      5.741 eV    46304.9 cm**-1 <S**2> =   0.000000
    91a -> 105a  :     0.012649 
    92a -> 104a  :     0.049137 
    93a -> 103a  :     0.019946 
    93a -> 106a  :     0.016121 
    96a -> 103a  :     0.137739 
    96a -> 106a  :     0.058329 
    97a -> 102a  :     0.405043 
    97a -> 103a  :     0.017568 
    97a -> 104a  :     0.068076 
    98a -> 109a  :     0.125162 
    99a -> 105a  :     0.055696 

STATE 21:  E=   0.201540 au      5.484 eV    44232.8 cm**-1 <S**2> =   0.000000
    92a -> 100a  :     0.089924 
    92a -> 101a  :     0.013920 
    93a -> 101a  :     0.020352 
    94a -> 103a  :     0.022833 
    95a -> 102a  :     0.013026 
    95a -> 103a  :     0.033519 
    96a -> 100a  :     0.051039 
    96a -> 101a  :     0.068973 
    97a -> 100a  :     0.394553 
    97a -> 101a  :     0.108299 
    98a -> 102a  :     0.048069 
    98a -> 103a  :     0.011665 
    98a -> 104a  :     0.080321 

STATE 22:  E=   0.202442 au      5.509 eV    44430.9 cm**-1 <S**2> =   0.000000
    92a -> 100a  :     0.047885 
    92a -> 101a  :     0.041170 
    93a -> 101a  :     0.010122 
    94a -> 102a  :     0.041204 
    95a -> 102a  :     0.012503 
    95a -> 103a  :     0.023506 
    96a -> 100a  :     0.116791 
    96a -> 101a  :     0.036863 
    97a -> 100a  :     0.194715 
    97a -> 101a  :     0.278353 
    98a -> 102a  :     0.033048 
    98a -> 103a  :     0.013820 
    98a -> 104a  :     0.095818 

STATE 23:  E=   0.200892 au      5.467 eV    44090.6 cm**-1 <S**2> =   0.000000
    92a -> 101a  :     0.020283 
    93a -> 100a  :     0.037954 
    96a -> 100a  :     0.234082 
    98a -> 102a  :     0.125377 
    98a -> 103a  :     0.011922 
    98a -> 104a  :     0.257608 
    99a -> 108a  :     0.203897 
    99a -> 118a  :     0.039803 

STATE 24:  E=   0.204756 au      5.572 eV    44938.7 cm**-1 <S**2> =   0.000000
    92a -> 101a  :     0.014848 
    93a -> 100a  :     0.012149 
    96a -> 100a  :     0.058709 
    97a -> 101a  :     0.026528 
    98a -> 102a  :     0.044706 
    98a -> 104a  :     0.096372 
    98a -> 107a  :     0.014263 
    99a -> 108a  :     0.581837 
    99a -> 115a  :     0.011216 
    99a -> 118a  :     0.102302 

STATE 25:  E=   0.202491 au      5.510 eV    44441.5 cm**-1 <S**2> =   0.000000
    92a -> 101a  :     0.050023 
    96a -> 100a  :     0.441146 
    96a -> 101a  :     0.021763 
    97a -> 101a  :     0.324583 
    98a -> 102a  :     0.011223 
    98a -> 104a  :     0.097918 

STATE 26:  E=   0.203146 au      5.528 eV    44585.5 cm**-1 <S**2> =   0.000000
    93a -> 101a  :     0.016797 
    96a -> 100a  :     0.023205 
    96a -> 101a  :     0.800472 
    97a -> 100a  :     0.115884 

STATE 27:  E=   0.228751 au      6.225 eV    50205.0 cm**-1 <S**2> =   0.000000
    92a -> 102a  :     0.011097 
    92a -> 103a  :     0.127014 
    92a -> 106a  :     0.011280 
    93a -> 102a  :     0.146734 
    93a -> 103a  :     0.011640 
    93a -> 104a  :     0.069231 
    94a -> 100a  :     0.030101 
    95a -> 101a  :     0.028960 
    96a -> 102a  :     0.188319 
    96a -> 103a  :     0.014000 
    97a -> 102a  :     0.013109 
    97a -> 103a  :     0.213265 
    97a -> 106a  :     0.014239 
    98a -> 105a  :     0.032754 
    99a -> 109a  :     0.040484 

STATE 28:  E=   0.217790 au      5.926 eV    47799.4 cm**-1 <S**2> =   0.000000
    92a -> 100a  :     0.020749 
    93a -> 101a  :     0.030778 
    94a -> 103a  :     0.060481 
    95a -> 102a  :     0.044611 
    95a -> 103a  :     0.020345 
    95a -> 104a  :     0.016456 
    97a -> 100a  :     0.015562 
    97a -> 105a  :     0.066826 
    98a -> 102a  :     0.011254 
    98a -> 103a  :     0.100089 
    98a -> 106a  :     0.552859 

STATE 29:  E=   0.220166 au      5.991 eV    48320.9 cm**-1 <S**2> =   0.000000
    96a -> 113a  :     0.023112 
    99a -> 111a  :     0.104194 
    99a -> 114a  :     0.759544 

STATE 30:  E=   0.228986 au      6.231 eV    50256.7 cm**-1 <S**2> =   0.000000
    92a -> 100a  :     0.019350 
    92a -> 101a  :     0.133144 
    93a -> 100a  :     0.128123 
    93a -> 101a  :     0.011802 
    94a -> 102a  :     0.298830 
    94a -> 103a  :     0.015690 
    94a -> 104a  :     0.052297 
    95a -> 102a  :     0.036134 
    95a -> 103a  :     0.221893 
    95a -> 106a  :     0.011914 
    98a -> 104a  :     0.022384 


-------------------------
TD-DFT-EXCITATION SPECTRA
-------------------------

Center of mass = (  0.0001, -0.0000,  0.0000)
Calculating the Dipole integrals                  ... done
Transforming integrals                            ... done
Calculating the Linear Momentum integrals         ... done
Transforming integrals                            ... done
Calculating angular momentum integrals            ... done
Transforming integrals                            ... done

-----------------------------------------------------------------------------
         ABSORPTION SPECTRUM VIA TRANSITION ELECTRIC DIPOLE MOMENTS
-----------------------------------------------------------------------------
State   Energy    Wavelength  fosc         T2        TX        TY        TZ  
        (cm-1)      (nm)                 (au**2)    (au)      (au)      (au) 
-----------------------------------------------------------------------------
   1   20567.9    486.2   0.004061986   0.06502  -0.25498  -0.00000  -0.00001
   2   20863.6    479.3   0.033102027   0.52232  -0.72272   0.00005  -0.00001
   3   24996.2    400.1   0.000109273   0.00144   0.00005  -0.00710   0.03727
   4   26088.6    383.3   0.147087371   1.85610  -0.00001  -1.36204  -0.03065
   5   31673.6    315.7   0.000466186   0.00485   0.06961   0.00004  -0.00007
   6   28927.7    345.7   0.000833887   0.00949   0.00001  -0.03326   0.09157
   7   31130.6    321.2   0.142049147   1.50220   0.00003   1.22564   0.00385
   8   36414.6    274.6   0.162404157   1.46824   1.21171   0.00015  -0.00017
   9   39375.1    254.0   0.031984112   0.26742  -0.00013   0.01500  -0.51691
  10   39342.0    254.2   0.049014476   0.41015  -0.00024  -0.00889  -0.64037
  11   36085.3    277.1   0.002045769   0.01866  -0.13662   0.00005  -0.00002
  12   42116.8    237.4   0.982778067   7.68203   2.77165  -0.00016  -0.00002
  13   41158.4    243.0   0.009439811   0.07551   0.00009   0.02016   0.27404
  14   43691.1    228.9   0.027192265   0.20489   0.45265  -0.00049   0.00002
  15   40054.5    249.7   1.110390990   9.12641  -0.00015  -3.02099  -0.00741
  16   43540.0    229.7   0.001658816   0.01254   0.11199  -0.00000  -0.00000
  17   41868.4    238.8   0.010241909   0.08053  -0.00001   0.08453  -0.27090
  18   44263.3    225.9   0.001027950   0.00765  -0.00011  -0.00712   0.08715
  19   46498.6    215.1   0.986471483   6.98426   2.64277  -0.00003  -0.00003
  20   46304.9    216.0   0.000396991   0.00282  -0.05313   0.00003   0.00006
  21   44232.8    226.1   0.017090904   0.12720  -0.00007  -0.22572  -0.27614
  22   44430.9    225.1   0.011242547   0.08330   0.00004  -0.23313   0.17015
  23   44090.6    226.8   0.003664838   0.02736   0.00007   0.14518   0.07930
  24   44938.7    222.5   0.000840332   0.00616   0.00014  -0.05223  -0.05855
  25   44441.5    225.0   0.041381100   0.30654  -0.00023  -0.54379  -0.10410
  26   44585.5    224.3   0.000004590   0.00003   0.00014   0.00314   0.00490
  27   50205.0    199.2   1.620649221  10.62718  -3.25994   0.00001  -0.00006
  28   47799.4    209.2   0.175244516   1.20697  -0.00030  -0.15810   1.08719
  29   48320.9    206.9   0.011063816   0.07538  -0.27455  -0.00037  -0.00044
  30   50256.7    199.0   0.107094781   0.70154   0.00008  -0.48779  -0.68088

-----------------------------------------------------------------------------
         ABSORPTION SPECTRUM VIA TRANSITION VELOCITY DIPOLE MOMENTS
-----------------------------------------------------------------------------
State   Energy    Wavelength   fosc        P2         PX        PY        PZ  
        (cm-1)      (nm)                 (au**2)     (au)      (au)      (au) 
-----------------------------------------------------------------------------
   1   20567.9    486.2   0.007019154   0.00099   0.03141   0.00000   0.00000
   2   20863.6    479.3   0.057258426   0.00816   0.09036  -0.00000   0.00000
   3   24996.2    400.1   0.000144166   0.00002  -0.00001   0.00108  -0.00484
   4   26088.6    383.3   0.226534245   0.04039   0.00000   0.20093   0.00433
   5   31673.6    315.7   0.000604261   0.00013  -0.01144  -0.00001   0.00001
   6   28927.7    345.7   0.001172038   0.00023   0.00000   0.00537  -0.01425
   7   31130.6    321.2   0.205670108   0.04376  -0.00000  -0.20918  -0.00069
   8   36414.6    274.6   0.222614232   0.05540  -0.23538  -0.00003   0.00003
   9   39375.1    254.0   0.037632471   0.01013   0.00002  -0.00319   0.10058
  10   39342.0    254.2   0.057605254   0.01549   0.00005   0.00209   0.12444
  11   36085.3    277.1   0.002922091   0.00072   0.02685  -0.00001   0.00000
  12   42116.8    237.4   1.081900633   0.31142  -0.55805   0.00003   0.00000
  13   41158.4    243.0   0.007292275   0.00205  -0.00002  -0.00495  -0.04502
  14   43691.1    228.9   0.028614975   0.00854  -0.09244   0.00010  -0.00000
  15   40054.5    249.7   1.404121647   0.38438   0.00003   0.61998   0.00151
  16   43540.0    229.7   0.002744749   0.00082  -0.02858  -0.00000   0.00000
  17   41868.4    238.8   0.012971576   0.00371   0.00000  -0.01816   0.05815
  18   44263.3    225.9   0.001035279   0.00031   0.00002   0.00198  -0.01759
  19   46498.6    215.1   1.151988078   0.36610  -0.60506   0.00001   0.00001
  20   46304.9    216.0   0.000471548   0.00015   0.01222  -0.00001  -0.00001
  21   44232.8    226.1   0.023834846   0.00721   0.00001   0.05220   0.06694
  22   44430.9    225.1   0.015249969   0.00463  -0.00001   0.05386  -0.04159
  23   44090.6    226.8   0.005268065   0.00159  -0.00002  -0.03519  -0.01869
  24   44938.7    222.5   0.000935989   0.00029  -0.00004   0.01003   0.01367
  25   44441.5    225.0   0.057253494   0.01739   0.00005   0.12952   0.02480
  26   44585.5    224.3   0.000001611   0.00000  -0.00003  -0.00068  -0.00016
  27   50205.0    199.2   1.800462584   0.61779   0.78599  -0.00000   0.00001
  28   47799.4    209.2   0.220177477   0.07193   0.00007   0.03851  -0.26542
  29   48320.9    206.9   0.013497294   0.00446   0.06676   0.00009   0.00011
  30   50256.7    199.0   0.123099804   0.04228  -0.00001   0.11981   0.16712

-------------------------------------------------------------------
                             CD SPECTRUM
-------------------------------------------------------------------
State  Energy     Wavelength     R         MX        MY        MZ   
       (cm-1)       (nm)     (1e40*cgs)   (au)      (au)      (au)  
-------------------------------------------------------------------
   1   20567.9    486.2      2.32755  -0.01936   0.00001  -0.00012
   2   20863.6    479.3     56.38667  -0.16549  -0.00000  -0.00006
   3   24996.2    400.1    -24.32991  -0.00001   0.00106  -1.38461
   4   26088.6    383.3    -64.48976  -0.00001   0.09988   0.02424
   5   31673.6    315.7      0.11855   0.00361   0.00001  -0.00004
   6   28927.7    345.7      4.60315   0.00001  -0.03136   0.09524
   7   31130.6    321.2     43.37115   0.00000   0.07502   0.01275
   8   36414.6    274.6     62.54331   0.10948   0.00002   0.00005
   9   39375.1    254.0    -18.81372  -0.00001  -0.46890   0.06359
  10   39342.0    254.2    -44.14175  -0.00002   0.38202   0.14091
  11   36085.3    277.1      2.19464  -0.03407  -0.00002   0.00006
  12   42116.8    237.4    -56.69536  -0.04339  -0.00001  -0.00001
  13   41158.4    243.0     13.25049  -0.00000   0.01884   0.10117
  14   43691.1    228.9     -1.92623  -0.00903  -0.00002  -0.00006
  15   40054.5    249.7    109.68327  -0.00000  -0.07706   0.02156
  16   43540.0    229.7      0.13479   0.00255  -0.00002  -0.00000
  17   41868.4    238.8    -164.46602   0.00001   0.04795   1.30271
  18   44263.3    225.9     -0.69550   0.00001   0.00341  -0.01665
  19   46498.6    215.1     19.08461   0.01532  -0.00009  -0.00001
  20   46304.9    216.0     -0.05828   0.00233  -0.00002  -0.00002
  21   44232.8    226.1    -64.50568   0.00001   0.42206   0.15049
  22   44430.9    225.1    -76.12520  -0.00002   0.65616  -0.04995
  23   44090.6    226.8    -20.00597   0.00001  -0.28969  -0.00478
  24   44938.7    222.5     -1.76256   0.00001   0.05712   0.01290
  25   44441.5    225.0     19.57167   0.00000  -0.06103  -0.08000
  26   44585.5    224.3      0.22257   0.00001  -0.06475   0.13777
  27   50205.0    199.2     47.57262  -0.03095  -0.00008  -0.00006
  28   47799.4    209.2    236.47262   0.00001  -0.18108   0.43503
  29   48320.9    206.9    -30.40035   0.23487  -0.00160   0.00001
  30   50256.7    199.0    451.29159   0.00027  -2.05468   0.06612

Total run time:     4341.336 sec

           *** ORCA-CIS/TD-DFT FINISHED WITHOUT ERROR ***

Maximum memory used throughout the entire CIS-calculation: 4207.4 MB

-----------------------
CIS/TD-DFT TOTAL ENERGY
-----------------------

    E(SCF)  =  -1217.247145086 Eh
    DE(CIS) =      0.093714154 Eh (Root  1)
    ----------------------------- ---------
    E(tot)  =  -1217.153430932 Eh



-------------------------------------------------------------------------------
                          DFT DISPERSION CORRECTION                            
                                                                               
                              DFTD3 V3.1  Rev 1                                
                          USING Becke-Johnson damping                          
-------------------------------------------------------------------------------
The B2PLYP functional is recognized
Active option DFTDOPT                   ...         4   

molecular C6(AA) [au] = 30991.183168 


            DFT-D V3
 parameters
 s6 scaling factor         :     0.6400 
 a1 scaling factor         :     0.3065 
 s8 scaling factor         :     0.9147 
 a2 scaling factor         :     5.0570 
 ad hoc parameters k1-k3   :    16.0000     1.3333    -4.0000 

 Edisp/kcal,au: -36.713767709727  -0.058507106762 
 E6   /kcal   : -20.507196060 
 E8   /kcal   : -16.206571649 
 % E8         :  44.143035870 

-------------------------   ----------------
Dispersion correction           -0.058507107
-------------------------   ----------------


-------------------------   --------------------
FINAL SINGLE POINT ENERGY     -1217.211938038689
-------------------------   --------------------


                            ***************************************
                            *     ORCA property calculations      *
                            ***************************************


  WARNING: The energy has been calculated at the MP2 level but the densities
           used in the property calculations are still SCF densities
           MP2 response densities have not been calculated 
           use %mp2 Density relaxed end
           or  %mp2 Density unrelaxed end

                                    ---------------------
                                    Active property flags
                                    ---------------------
   (+) Dipole Moment


------------------------------------------------------------------------------
                       ORCA ELECTRIC PROPERTIES CALCULATION
------------------------------------------------------------------------------

Dipole Moment Calculation                       ... on
Quadrupole Moment Calculation                   ... off
Polarizability Calculation                      ... off
GBWName                                         ... PA_3_M06L_def2TZVP_coords.gbw
Electron density                                ... PA_3_M06L_def2TZVP_coords.scfp
The origin for moment calculation is the CENTER OF MASS  = ( 0.000061, -0.000000  0.000002)

-------------
DIPOLE MOMENT
-------------
                                X             Y             Z
Electronic contribution:     -0.02081       0.00000       0.00038
Nuclear contribution   :     -0.01216       0.00002      -0.00044
                        -----------------------------------------
Total Dipole Moment    :     -0.03298       0.00002      -0.00006
                        -----------------------------------------
Magnitude (a.u.)       :      0.03298
Magnitude (Debye)      :      0.08382



--------------------
Rotational spectrum 
--------------------
 
Rotational constants in cm-1:     0.013166     0.002691     0.002341 
Rotational constants in MHz :   394.716059    80.676940    70.178145 

 Dipole components along the rotational axes: 
x,y,z [a.u.] :    -0.032977     0.000022    -0.000062 
x,y,z [Debye]:    -0.083820     0.000055    -0.000156 

 

Timings for individual modules:

Sum of individual times         ...     4855.235 sec (=  80.921 min)
GTO integral calculation        ...        4.733 sec (=   0.079 min)   0.1 %
SCF iterations                  ...      267.339 sec (=   4.456 min)   5.5 %
MP2 module                      ...      240.775 sec (=   4.013 min)   5.0 %
CIS module                      ...     4342.388 sec (=  72.373 min)  89.4 %
                             ****ORCA TERMINATED NORMALLY****
TOTAL RUN TIME: 0 days 1 hours 20 minutes 58 seconds 156 msec
