 Entering Gaussian System, Link 0=g09
 Input=/home/png4rjv/fotokatalizis/benchmark/OPCs/CA_50_states/CA_3_CAM-B3LYP-D3_def2TZVP.gjf
 Output=/home/png4rjv/fotokatalizis/benchmark/OPCs/CA_50_states/CA_3_CAM-B3LYP-D3_def2TZVP.log
 Initial command:
 /opt/nce/packages/global/g09/l1.exe "/home/png4rjv/fotokatalizis/benchmark/OPCs/CA_50_states/CA_3_CAM-B3LYP-D3_def2TZVP/Gau-42227.inp" -scrdir="/home/png4rjv/fotokatalizis/benchmark/OPCs/CA_50_states/CA_3_CAM-B3LYP-D3_def2TZVP/"
 Default is to use a total of  12 processors:
                               12 via shared-memory
                                1 via Linda
 Entering Link 1 = /opt/nce/packages/global/g09/l1.exe PID=     42228.
  
 Copyright (c) 1988,1990,1992,1993,1995,1998,2003,2009,2015,
            Gaussian, Inc.  All Rights Reserved.
  
 This is part of the Gaussian(R) 09 program.  It is based on
 the Gaussian(R) 03 system (copyright 2003, Gaussian, Inc.),
 the Gaussian(R) 98 system (copyright 1998, Gaussian, Inc.),
 the Gaussian(R) 94 system (copyright 1995, Gaussian, Inc.),
 the Gaussian 92(TM) system (copyright 1992, Gaussian, Inc.),
 the Gaussian 90(TM) system (copyright 1990, Gaussian, Inc.),
 the Gaussian 88(TM) system (copyright 1988, Gaussian, Inc.),
 the Gaussian 86(TM) system (copyright 1986, Carnegie Mellon
 University), and the Gaussian 82(TM) system (copyright 1983,
 Carnegie Mellon University). Gaussian is a federally registered
 trademark of Gaussian, Inc.
  
 This software contains proprietary and confidential information,
 including trade secrets, belonging to Gaussian, Inc.
  
 This software is provided under written license and may be
 used, copied, transmitted, or stored only in accord with that
 written license.
  
 The following legend is applicable only to US Government
 contracts under FAR:
  
                    RESTRICTED RIGHTS LEGEND
  
 Use, reproduction and disclosure by the US Government is
 subject to restrictions as set forth in subparagraphs (a)
 and (c) of the Commercial Computer Software - Restricted
 Rights clause in FAR 52.227-19.
  
 Gaussian, Inc.
 340 Quinnipiac St., Bldg. 40, Wallingford CT 06492
  
  
 ---------------------------------------------------------------
 Warning -- This program may not be used in any manner that
 competes with the business of Gaussian, Inc. or will provide
 assistance to any competitor of Gaussian, Inc.  The licensee
 of this program is prohibited from giving any competitor of
 Gaussian, Inc. access to this program.  By using this program,
 the user acknowledges that Gaussian, Inc. is engaged in the
 business of creating and licensing software in the field of
 computational chemistry and represents and warrants to the
 licensee that it is not a competitor of Gaussian, Inc. and that
 it will not use this program in any manner prohibited above.
 ---------------------------------------------------------------
  

 Cite this work as:
 Gaussian 09, Revision E.01,
 M. J. Frisch, G. W. Trucks, H. B. Schlegel, G. E. Scuseria, 
 M. A. Robb, J. R. Cheeseman, G. Scalmani, V. Barone, B. Mennucci, 
 G. A. Petersson, H. Nakatsuji, M. Caricato, X. Li, H. P. Hratchian, 
 A. F. Izmaylov, J. Bloino, G. Zheng, J. L. Sonnenberg, M. Hada, 
 M. Ehara, K. Toyota, R. Fukuda, J. Hasegawa, M. Ishida, T. Nakajima, 
 Y. Honda, O. Kitao, H. Nakai, T. Vreven, J. A. Montgomery, Jr., 
 J. E. Peralta, F. Ogliaro, M. Bearpark, J. J. Heyd, E. Brothers, 
 K. N. Kudin, V. N. Staroverov, T. Keith, R. Kobayashi, J. Normand, 
 K. Raghavachari, A. Rendell, J. C. Burant, S. S. Iyengar, J. Tomasi, 
 M. Cossi, N. Rega, J. M. Millam, M. Klene, J. E. Knox, J. B. Cross, 
 V. Bakken, C. Adamo, J. Jaramillo, R. Gomperts, R. E. Stratmann, 
 O. Yazyev, A. J. Austin, R. Cammi, C. Pomelli, J. W. Ochterski, 
 R. L. Martin, K. Morokuma, V. G. Zakrzewski, G. A. Voth, 
 P. Salvador, J. J. Dannenberg, S. Dapprich, A. D. Daniels, 
 O. Farkas, J. B. Foresman, J. V. Ortiz, J. Cioslowski, 
 and D. J. Fox, Gaussian, Inc., Wallingford CT, 2013.
 
 ******************************************
 Gaussian 09:  ES64L-G09RevE.01 30-Nov-2015
                 1-Jul-2022 
 ******************************************
 %chk=cp.chk
 Default route:  MaxDisk=500GB
 ----------------------------------------------------------------------
 #p cam-b3lyp/def2TZVP td=(NStates=50) int=ultrafine scrf=(SMD,solvent=
 Acetonitrile) EmpiricalDispersion=GD3BJ
 ----------------------------------------------------------------------
 1/38=1/1;
 2/12=2,17=6,18=5,40=1/2;
 3/5=44,7=101,11=9,16=1,25=1,30=1,70=32201,72=2,74=-40,75=-5,124=41/1,2,8,3;
 4//1;
 5/5=2,38=5,53=2/2;
 8/6=1,10=1,108=50/1;
 9/41=50,42=1,70=2/14;
 6/7=2,8=2,9=2,10=2/1;
 99/5=1,9=1/99;
 Leave Link    1 at Fri Jul  1 14:25:53 2022, MaxMem=           0 cpu:         1.7
 (Enter /opt/nce/packages/global/g09/l101.exe)
 -----
 Title
 -----
 Symbolic Z-matrix:
 Charge =  0 Multiplicity = 1
 C                     1.29372  -0.50832   0.15484 
 C                     0.2133   -1.37254   0.01857 
 C                    -1.07339  -0.87059  -0.1481 
 C                    -1.26571   0.5102   -0.18885 
 C                    -0.20323   1.39335  -0.02643 
 C                     1.07265   0.86842   0.15007 
 C                    -2.5746    1.02218  -0.4457 
 C                     2.17485   1.7487    0.37523 
 N                    -3.62035   1.43323  -0.66129 
 N                     3.05522   2.45481   0.5634 
 N                     2.59534  -0.99594   0.32715 
 C                     3.12018  -1.50985   1.50989 
 C                     3.57135  -1.05946  -0.66465 
 C                     2.51637  -1.6391    2.74991 
 C                     4.4478   -1.90201   1.27786 
 C                     3.49342  -0.67677  -1.99374 
 C                     4.73588  -1.61516  -0.11173 
 C                     3.27519  -2.18149   3.7709 
 H                     1.49301  -1.32883   2.91455 
 C                     5.19034  -2.44233   2.32084 
 C                     4.62278  -0.85441  -2.77203 
 H                     2.58696  -0.25612  -2.40794 
 C                     5.85716  -1.78444  -0.91486 
 C                     4.59722  -2.57978   3.56188 
 H                     2.83345  -2.29822   4.75186 
 H                     6.21612  -2.74934   2.16234 
 C                     5.79315  -1.40049  -2.24134 
 H                     4.59614  -0.56411  -3.81416 
 H                     6.76457  -2.21093  -0.50703 
 H                     5.16179  -2.99966   4.38371 
 H                     6.6581   -1.52526  -2.87915 
 N                    -2.17145  -1.72456  -0.29955 
 C                    -3.13551  -1.98226   0.67341 
 C                    -2.47668  -2.46017  -1.44224 
 C                    -3.23111  -1.48531   1.96287 
 C                    -4.06786  -2.89127   0.14961 
 C                    -1.80969  -2.50594  -2.6554 
 C                    -3.64776  -3.19532  -1.20236 
 C                    -4.29866  -1.91449   2.73031 
 H                    -2.50261  -0.78868   2.35539 
 C                    -5.13061  -3.30892   0.94132 
 C                    -2.33954  -3.32031  -3.63954 
 H                    -0.91173  -1.92811  -2.82915 
 C                    -4.16165  -4.00502  -2.20804 
 C                    -5.23971  -2.81529   2.22799 
 H                    -4.40396  -1.54369   3.74145 
 H                    -5.85945  -4.00997   0.55547 
 C                    -3.50142  -4.06349  -3.42108 
 H                    -1.84238  -3.38029  -4.59885 
 H                    -5.06487  -4.57822  -2.04306 
 H                    -6.06205  -3.13058   2.85631 
 H                    -3.8889   -4.68928  -4.21398 
 N                    -0.41565   2.77528  -0.03651 
 C                     0.00411   3.6609   -1.03052 
 C                    -1.09502   3.49494   0.94773 
 C                     0.69201   3.39941  -2.20412 
 C                    -0.40861   4.95521  -0.67949 
 C                    -1.66914   3.04115   2.12382 
 C                    -1.10932   4.8493    0.58288 
 C                     0.97582   4.47421  -3.02684 
 H                     0.99745   2.39709  -2.47173 
 C                    -0.11341   6.01875  -1.52338 
 C                    -2.27845   3.98004   2.9361 
 H                    -1.64354   1.99616   2.40107 
 C                    -1.72587   5.77425   1.41646 
 C                     0.58079   5.7707   -2.69252 
 H                     1.51473   4.30327  -3.9495 
 H                    -0.42487   7.02348  -1.26837 
 C                    -2.30991   5.33173   2.58844 
 H                    -2.73884   3.65737   3.86065 
 H                    -1.74586   6.82343   1.15125 
 H                     0.81939   6.5881   -3.35988 
 H                    -2.79504   6.03911   3.24776 
 Cl                    0.46901  -3.06707   0.06358 
 
 NAtoms=     74 NQM=       74 NQMF=       0 NMMI=      0 NMMIF=      0
                NMic=       0 NMicF=      0.
                    Isotopes and Nuclear Properties:
 (Nuclear quadrupole moments (NQMom) in fm**2, nuclear magnetic moments (NMagM)
  in nuclear magnetons)

  Atom         1           2           3           4           5           6           7           8           9          10
 IAtWgt=          12          12          12          12          12          12          12          12          14          14
 AtmWgt=  12.0000000  12.0000000  12.0000000  12.0000000  12.0000000  12.0000000  12.0000000  12.0000000  14.0030740  14.0030740
 NucSpn=           0           0           0           0           0           0           0           0           2           2
 AtZEff=   0.0000000   0.0000000   0.0000000   0.0000000   0.0000000   0.0000000   0.0000000   0.0000000   0.0000000   0.0000000
 NQMom=    0.0000000   0.0000000   0.0000000   0.0000000   0.0000000   0.0000000   0.0000000   0.0000000   2.0440000   2.0440000
 NMagM=    0.0000000   0.0000000   0.0000000   0.0000000   0.0000000   0.0000000   0.0000000   0.0000000   0.4037610   0.4037610
 AtZNuc=   6.0000000   6.0000000   6.0000000   6.0000000   6.0000000   6.0000000   6.0000000   6.0000000   7.0000000   7.0000000

  Atom        11          12          13          14          15          16          17          18          19          20
 IAtWgt=          14          12          12          12          12          12          12          12           1          12
 AtmWgt=  14.0030740  12.0000000  12.0000000  12.0000000  12.0000000  12.0000000  12.0000000  12.0000000   1.0078250  12.0000000
 NucSpn=           2           0           0           0           0           0           0           0           1           0
 AtZEff=   0.0000000   0.0000000   0.0000000   0.0000000   0.0000000   0.0000000   0.0000000   0.0000000   0.0000000   0.0000000
 NQMom=    2.0440000   0.0000000   0.0000000   0.0000000   0.0000000   0.0000000   0.0000000   0.0000000   0.0000000   0.0000000
 NMagM=    0.4037610   0.0000000   0.0000000   0.0000000   0.0000000   0.0000000   0.0000000   0.0000000   2.7928460   0.0000000
 AtZNuc=   7.0000000   6.0000000   6.0000000   6.0000000   6.0000000   6.0000000   6.0000000   6.0000000   1.0000000   6.0000000

  Atom        21          22          23          24          25          26          27          28          29          30
 IAtWgt=          12           1          12          12           1           1          12           1           1           1
 AtmWgt=  12.0000000   1.0078250  12.0000000  12.0000000   1.0078250   1.0078250  12.0000000   1.0078250   1.0078250   1.0078250
 NucSpn=           0           1           0           0           1           1           0           1           1           1
 AtZEff=   0.0000000   0.0000000   0.0000000   0.0000000   0.0000000   0.0000000   0.0000000   0.0000000   0.0000000   0.0000000
 NQMom=    0.0000000   0.0000000   0.0000000   0.0000000   0.0000000   0.0000000   0.0000000   0.0000000   0.0000000   0.0000000
 NMagM=    0.0000000   2.7928460   0.0000000   0.0000000   2.7928460   2.7928460   0.0000000   2.7928460   2.7928460   2.7928460
 AtZNuc=   6.0000000   1.0000000   6.0000000   6.0000000   1.0000000   1.0000000   6.0000000   1.0000000   1.0000000   1.0000000

  Atom        31          32          33          34          35          36          37          38          39          40
 IAtWgt=           1          14          12          12          12          12          12          12          12           1
 AtmWgt=   1.0078250  14.0030740  12.0000000  12.0000000  12.0000000  12.0000000  12.0000000  12.0000000  12.0000000   1.0078250
 NucSpn=           1           2           0           0           0           0           0           0           0           1
 AtZEff=   0.0000000   0.0000000   0.0000000   0.0000000   0.0000000   0.0000000   0.0000000   0.0000000   0.0000000   0.0000000
 NQMom=    0.0000000   2.0440000   0.0000000   0.0000000   0.0000000   0.0000000   0.0000000   0.0000000   0.0000000   0.0000000
 NMagM=    2.7928460   0.4037610   0.0000000   0.0000000   0.0000000   0.0000000   0.0000000   0.0000000   0.0000000   2.7928460
 AtZNuc=   1.0000000   7.0000000   6.0000000   6.0000000   6.0000000   6.0000000   6.0000000   6.0000000   6.0000000   1.0000000

  Atom        41          42          43          44          45          46          47          48          49          50
 IAtWgt=          12          12           1          12          12           1           1          12           1           1
 AtmWgt=  12.0000000  12.0000000   1.0078250  12.0000000  12.0000000   1.0078250   1.0078250  12.0000000   1.0078250   1.0078250
 NucSpn=           0           0           1           0           0           1           1           0           1           1
 AtZEff=   0.0000000   0.0000000   0.0000000   0.0000000   0.0000000   0.0000000   0.0000000   0.0000000   0.0000000   0.0000000
 NQMom=    0.0000000   0.0000000   0.0000000   0.0000000   0.0000000   0.0000000   0.0000000   0.0000000   0.0000000   0.0000000
 NMagM=    0.0000000   0.0000000   2.7928460   0.0000000   0.0000000   2.7928460   2.7928460   0.0000000   2.7928460   2.7928460
 AtZNuc=   6.0000000   6.0000000   1.0000000   6.0000000   6.0000000   1.0000000   1.0000000   6.0000000   1.0000000   1.0000000

  Atom        51          52          53          54          55          56          57          58          59          60
 IAtWgt=           1           1          14          12          12          12          12          12          12          12
 AtmWgt=   1.0078250   1.0078250  14.0030740  12.0000000  12.0000000  12.0000000  12.0000000  12.0000000  12.0000000  12.0000000
 NucSpn=           1           1           2           0           0           0           0           0           0           0
 AtZEff=   0.0000000   0.0000000   0.0000000   0.0000000   0.0000000   0.0000000   0.0000000   0.0000000   0.0000000   0.0000000
 NQMom=    0.0000000   0.0000000   2.0440000   0.0000000   0.0000000   0.0000000   0.0000000   0.0000000   0.0000000   0.0000000
 NMagM=    2.7928460   2.7928460   0.4037610   0.0000000   0.0000000   0.0000000   0.0000000   0.0000000   0.0000000   0.0000000
 AtZNuc=   1.0000000   1.0000000   7.0000000   6.0000000   6.0000000   6.0000000   6.0000000   6.0000000   6.0000000   6.0000000

  Atom        61          62          63          64          65          66          67          68          69          70
 IAtWgt=           1          12          12           1          12          12           1           1          12           1
 AtmWgt=   1.0078250  12.0000000  12.0000000   1.0078250  12.0000000  12.0000000   1.0078250   1.0078250  12.0000000   1.0078250
 NucSpn=           1           0           0           1           0           0           1           1           0           1
 AtZEff=   0.0000000   0.0000000   0.0000000   0.0000000   0.0000000   0.0000000   0.0000000   0.0000000   0.0000000   0.0000000
 NQMom=    0.0000000   0.0000000   0.0000000   0.0000000   0.0000000   0.0000000   0.0000000   0.0000000   0.0000000   0.0000000
 NMagM=    2.7928460   0.0000000   0.0000000   2.7928460   0.0000000   0.0000000   2.7928460   2.7928460   0.0000000   2.7928460
 AtZNuc=   1.0000000   6.0000000   6.0000000   1.0000000   6.0000000   6.0000000   1.0000000   1.0000000   6.0000000   1.0000000

  Atom        71          72          73          74
 IAtWgt=           1           1           1          35
 AtmWgt=   1.0078250   1.0078250   1.0078250  34.9688527
 NucSpn=           1           1           1           3
 AtZEff=   0.0000000   0.0000000   0.0000000   0.0000000
 NQMom=    0.0000000   0.0000000   0.0000000  -8.1650000
 NMagM=    2.7928460   2.7928460   2.7928460   0.8218740
 AtZNuc=   1.0000000   1.0000000   1.0000000  17.0000000
 Leave Link  101 at Fri Jul  1 14:25:53 2022, MaxMem=  5242880000 cpu:         1.1
 (Enter /opt/nce/packages/global/g09/l202.exe)
 Stoichiometry    C44H24ClN5
 Framework group  C1[X(C44H24ClN5)]
 Deg. of freedom   216
 Full point group                 C1      NOp   1
 Largest Abelian subgroup         C1      NOp   1
 Largest concise Abelian subgroup C1      NOp   1
                         Standard orientation:                         
 ---------------------------------------------------------------------
 Center     Atomic      Atomic             Coordinates (Angstroms)
 Number     Number       Type             X           Y           Z
 ---------------------------------------------------------------------
      1          6           0        1.293716   -0.508321    0.154838
      2          6           0        0.213301   -1.372541    0.018574
      3          6           0       -1.073391   -0.870595   -0.148099
      4          6           0       -1.265712    0.510196   -0.188848
      5          6           0       -0.203230    1.393352   -0.026426
      6          6           0        1.072653    0.868418    0.150069
      7          6           0       -2.574603    1.022183   -0.445695
      8          6           0        2.174851    1.748704    0.375232
      9          7           0       -3.620346    1.433228   -0.661290
     10          7           0        3.055221    2.454812    0.563397
     11          7           0        2.595338   -0.995934    0.327151
     12          6           0        3.120182   -1.509852    1.509891
     13          6           0        3.571354   -1.059458   -0.664646
     14          6           0        2.516375   -1.639095    2.749906
     15          6           0        4.447804   -1.902003    1.277858
     16          6           0        3.493419   -0.676769   -1.993744
     17          6           0        4.735878   -1.615153   -0.111730
     18          6           0        3.275186   -2.181486    3.770895
     19          1           0        1.493009   -1.328829    2.914547
     20          6           0        5.190337   -2.442326    2.320841
     21          6           0        4.622776   -0.854410   -2.772033
     22          1           0        2.586963   -0.256119   -2.407935
     23          6           0        5.857164   -1.784437   -0.914857
     24          6           0        4.597224   -2.579781    3.561875
     25          1           0        2.833452   -2.298215    4.751855
     26          1           0        6.216125   -2.749338    2.162344
     27          6           0        5.793155   -1.400484   -2.241337
     28          1           0        4.596137   -0.564106   -3.814161
     29          1           0        6.764570   -2.210924   -0.507026
     30          1           0        5.161789   -2.999654    4.383707
     31          1           0        6.658097   -1.525252   -2.879145
     32          7           0       -2.171448   -1.724557   -0.299553
     33          6           0       -3.135513   -1.982258    0.673409
     34          6           0       -2.476675   -2.460175   -1.442240
     35          6           0       -3.231104   -1.485311    1.962869
     36          6           0       -4.067857   -2.891268    0.149613
     37          6           0       -1.809685   -2.505944   -2.655399
     38          6           0       -3.647759   -3.195322   -1.202355
     39          6           0       -4.298658   -1.914490    2.730307
     40          1           0       -2.502610   -0.788678    2.355394
     41          6           0       -5.130609   -3.308927    0.941317
     42          6           0       -2.339539   -3.320312   -3.639537
     43          1           0       -0.911731   -1.928109   -2.829150
     44          6           0       -4.161652   -4.005018   -2.208037
     45          6           0       -5.239713   -2.815296    2.227986
     46          1           0       -4.403962   -1.543694    3.741449
     47          1           0       -5.859451   -4.009974    0.555472
     48          6           0       -3.501417   -4.063488   -3.421079
     49          1           0       -1.842379   -3.380291   -4.598847
     50          1           0       -5.064873   -4.578220   -2.043060
     51          1           0       -6.062045   -3.130583    2.856309
     52          1           0       -3.888897   -4.689285   -4.213977
     53          7           0       -0.415651    2.775284   -0.036514
     54          6           0        0.004106    3.660899   -1.030518
     55          6           0       -1.095017    3.494938    0.947733
     56          6           0        0.692005    3.399410   -2.204124
     57          6           0       -0.408615    4.955214   -0.679485
     58          6           0       -1.669141    3.041148    2.123820
     59          6           0       -1.109317    4.849302    0.582881
     60          6           0        0.975821    4.474205   -3.026844
     61          1           0        0.997451    2.397088   -2.471734
     62          6           0       -0.113411    6.018754   -1.523380
     63          6           0       -2.278452    3.980043    2.936096
     64          1           0       -1.643543    1.996162    2.401071
     65          6           0       -1.725869    5.774250    1.416455
     66          6           0        0.580790    5.770702   -2.692520
     67          1           0        1.514726    4.303273   -3.949499
     68          1           0       -0.424873    7.023480   -1.268365
     69          6           0       -2.309916    5.331727    2.588440
     70          1           0       -2.738841    3.657365    3.860645
     71          1           0       -1.745866    6.823429    1.151245
     72          1           0        0.819388    6.588103   -3.359882
     73          1           0       -2.795040    6.039107    3.247758
     74         17           0        0.469010   -3.067067    0.063577
 ---------------------------------------------------------------------
 Rotational constants (GHZ):      0.0620926      0.0605679      0.0422874
 Leave Link  202 at Fri Jul  1 14:25:53 2022, MaxMem=  5242880000 cpu:         0.1
 (Enter /opt/nce/packages/global/g09/l301.exe)
 Standard basis: def2TZVP (5D, 7F)
 Ernie: Thresh=  0.10000D-02 Tol=  0.10000D-05 Strict=F.
 There are  1950 symmetry adapted cartesian basis functions of A   symmetry.
 There are  1700 symmetry adapted basis functions of A   symmetry.
  1700 basis functions,  2760 primitive gaussians,  1950 cartesian basis functions
   170 alpha electrons      170 beta electrons
       nuclear repulsion energy      6271.9294825570 Hartrees.
 IExCor=20419 DFT=T Ex+Corr=CAM-B3LYP ExCW=0 ScaHFX=  1.000000
 ScaDFX=  1.000000  1.000000  1.000000  0.810000 ScalE2=  1.000000  1.000000
 IRadAn=      5 IRanWt=     -1 IRanGd=            0 ICorTp=0 IEmpDi=141
  HFx wShort=  0.000000 wLong=  0.330000 cFull=  0.190000 cShort=  0.000000 cLong=  0.460000
  DFx wShort=  0.000000 wLong=  0.330000 cFull=  0.190000 cShort=  0.000000 cLong=  0.460000
 NAtoms=   74 NActive=   74 NUniq=   74 SFac= 1.00D+00 NAtFMM=   60 NAOKFM=T Big=T
 Integral buffers will be    131072 words long.
 Raffenetti 1 integral format.
 Two-electron integral symmetry is turned on.
 R6Disp:  Grimme-D3(BJ) Dispersion energy=       -0.1155756955 Hartrees.
 Nuclear repulsion after empirical dispersion term =     6271.8139068615 Hartrees.
 ------------------------------------------------------------------------------
 Polarizable Continuum Model (PCM)
 =================================
 Model                : PCM (using non-symmetric T matrix).
 Atomic radii         : SMD-Coulomb.
 Polarization charges : Total charges.
 Charge compensation  : None.
 Solution method      : On-the-fly selection.
 Cavity type          : VdW (van der Waals Surface) (Alpha=1.000).
 Cavity algorithm     : GePol (No added spheres)
                        Default sphere list used, NSphG=   74.
                        Lebedev-Laikov grids with approx.  5.0 points / Ang**2.
                        Smoothing algorithm: York/Karplus (Gamma=1.0000).
                        Polarization charges: spherical gaussians, with
                                              point-specific exponents (IZeta= 3).
                        Self-potential: point-specific (ISelfS= 7).
                        Self-field    : sphere-specific E.n sum rule (ISelfD= 2).
 Solvent              : Acetonitrile, Eps=  35.688000 Eps(inf)=   1.806874
 ------------------------------------------------------------------------------
 GePol: Number of generator spheres                  =      74
 GePol: Total number of spheres                      =      74
 GePol: Number of exposed spheres                    =      74 (100.00%)
 GePol: Number of points                             =    5972
 GePol: Average weight of points                     =       0.11
 GePol: Minimum weight of points                     =   0.20D-10
 GePol: Maximum weight of points                     =    0.18138
 GePol: Number of points with low weight             =     315
 GePol: Fraction of low-weight points (<1% of avg)   =       5.27%
 GePol: Cavity surface area                          =    645.918 Ang**2
 GePol: Cavity volume                                =    658.578 Ang**3
 ------------------------------------------------------------------------------
 Atomic radii for non-electrostatic terms: SMD-CDS.
 ------------------------------------------------------------------------------
 PCM non-electrostatic energy =        -0.0137849552 Hartrees.
 Nuclear repulsion after PCM non-electrostatic terms =     6271.8001219063 Hartrees.
 Leave Link  301 at Fri Jul  1 14:25:53 2022, MaxMem=  5242880000 cpu:         3.6
 (Enter /opt/nce/packages/global/g09/l302.exe)
 NPDir=0 NMtPBC=     1 NCelOv=     1 NCel=       1 NClECP=     1 NCelD=      1
         NCelK=      1 NCelE2=     1 NClLst=     1 CellRange=     0.0.
 One-electron integrals computed using PRISM.
   1 Symmetry operations used in ECPInt.
 ECPInt:  NShTT=  210276 NPrTT=  664162 LenC2=  155652 LenP2D=  318224.
 LDataN:  DoStor=T MaxTD1= 6 Len=  172
 NBasis=  1700 RedAO= T EigKep=  1.47D-06  NBF=  1700
 NBsUse=  1700 1.00D-06 EigRej= -1.00D+00 NBFU=  1700
 Precomputing XC quadrature grid using
 IXCGrd= 4 IRadAn=           5 IRanWt=          -1 IRanGd=           0 AccXCQ= 0.00D+00.
 Generated NRdTot=       0 NPtTot=           0 NUsed=           0 NTot=          32
 NSgBfM=  1859  1859  1859  1862  1862 MxSgAt=    74 MxSgA2=    74.
 Leave Link  302 at Fri Jul  1 14:26:00 2022, MaxMem=  5242880000 cpu:        81.5
 (Enter /opt/nce/packages/global/g09/l308.exe)
 Leave Link  308 at Fri Jul  1 14:26:02 2022, MaxMem=  5242880000 cpu:        12.1
 (Enter /opt/nce/packages/global/g09/l303.exe)
 DipDrv:  MaxL=1.
 Leave Link  303 at Fri Jul  1 14:26:02 2022, MaxMem=  5242880000 cpu:         6.5
 (Enter /opt/nce/packages/global/g09/l401.exe)
 ExpMin= 9.52D-02 ExpMax= 6.95D+04 ExpMxC= 2.37D+03 IAcc=3 IRadAn=         5 AccDes= 0.00D+00
 Harris functional with IExCor=20419 and IRadAn=       5 diagonalized for initial guess.
 HarFok:  IExCor=20419 AccDes= 0.00D+00 IRadAn=         5 IDoV= 1 UseB2=F ITyADJ=14
 ICtDFT=  3500011 ScaDFX=  1.000000  1.000000  1.000000  1.000000
 FoFCou: FMM=F IPFlag=           0 FMFlag=      100000 FMFlg1=        2001
         NFxFlg=           0 DoJE=T BraDBF=F KetDBF=T FulRan=T
         wScrn=  0.000000 ICntrl=     500 IOpCl=  0 I1Cent=   200000004 NGrid=           0
         NMat0=    1 NMatS0=      1 NMatT0=    0 NMatD0=    1 NMtDS0=    0 NMtDT0=    0
 Petite list used in FoFCou.
 Harris En= -2340.81081347597    
 JPrj=0 DoOrth=F DoCkMO=F.
 Leave Link  401 at Fri Jul  1 14:26:26 2022, MaxMem=  5242880000 cpu:       278.8
 (Enter /opt/nce/packages/global/g09/l502.exe)
 Closed shell SCF:
 Using DIIS extrapolation, IDIIS=  1040.
 Integral symmetry usage will be decided dynamically.
 IVT=    11463646 IEndB=    11463646 NGot=  5242880000 MDV=  5235237445
 LenX=  5235237445 LenY=  5231432995
 Requested convergence on RMS density matrix=1.00D-08 within 128 cycles.
 Requested convergence on MAX density matrix=1.00D-06.
 Requested convergence on             energy=1.00D-06.
 No special actions if energy rises.
 Fock matrices will be formed incrementally for  20 cycles.

 Cycle   1  Pass 1  IDiag  1:
 FoFJK:  IHMeth= 1 ICntrl=       0 DoSepK=T KAlg= 0 I1Cent=   0 FoldK=F
 IRaf=         1 NMat=   1 IRICut=       1 DoRegI=T DoRafI=F ISym2E= 0.
 FoFCou: FMM=T IPFlag=           0 FMFlag=      100000 FMFlg1=        2001
         NFxFlg=           0 DoJE=T BraDBF=F KetDBF=F FulRan=T
         wScrn=  0.000000 ICntrl=     500 IOpCl=  0 I1Cent=           0 NGrid=           0
         NMat0=    1 NMatS0=      1 NMatT0=    0 NMatD0=    1 NMtDS0=    0 NMtDT0=    0
 Symmetry not used in FoFCou.
 FMM levels:  10  Number of levels for PrismC:   9
 Inv3:  Mode=1 IEnd=   106994352.
 Iteration    1 A*A^-1 deviation from unit magnitude is 8.77D-15 for   5972.
 Iteration    1 A*A^-1 deviation from orthogonality  is 4.77D-15 for   5961   4429.
 Iteration    1 A^-1*A deviation from unit magnitude is 8.55D-15 for   5972.
 Iteration    1 A^-1*A deviation from orthogonality  is 9.01D-10 for   3318   1370.
 Iteration    2 A*A^-1 deviation from unit magnitude is 2.66D-15 for   3927.
 Iteration    2 A*A^-1 deviation from orthogonality  is 3.19D-15 for   2891    134.
 Iteration    2 A^-1*A deviation from unit magnitude is 8.88D-16 for    607.
 Iteration    2 A^-1*A deviation from orthogonality  is 3.96D-16 for   5968   5960.
 E= -2424.17270134287    
 DIIS: error= 3.63D-02 at cycle   1 NSaved=   1.
 NSaved= 1 IEnMin= 1 EnMin= -2424.17270134287     IErMin= 1 ErrMin= 3.63D-02
 ErrMax= 3.63D-02  0.00D+00 EMaxC= 1.00D-01 BMatC= 3.97D+00 BMatP= 3.97D+00
 IDIUse=3 WtCom= 6.37D-01 WtEn= 3.63D-01
 Coeff-Com:  0.100D+01
 Coeff-En:   0.100D+01
 Coeff:      0.100D+01
 Gap=     0.479 Goal=   None    Shift=    0.000
 GapD=    0.479 DampG=2.000 DampE=0.500 DampFc=1.0000 IDamp=-1.
 RMSDP=6.40D-03 MaxDP=1.56D+00              OVMax= 2.15D-01

 Cycle   2  Pass 1  IDiag  1:
 RMSU=  3.10D-03    CP:  4.33D-01
 E= -2424.39329368457     Delta-E=       -0.220592341702 Rises=F Damp=F
 DIIS: error= 1.83D-02 at cycle   2 NSaved=   2.
 NSaved= 2 IEnMin= 2 EnMin= -2424.39329368457     IErMin= 2 ErrMin= 1.83D-02
 ErrMax= 1.83D-02  0.00D+00 EMaxC= 1.00D-01 BMatC= 7.09D-01 BMatP= 3.97D+00
 IDIUse=3 WtCom= 8.17D-01 WtEn= 1.83D-01
 Coeff-Com:  0.238D+00 0.762D+00
 Coeff-En:   0.390D+00 0.610D+00
 Coeff:      0.266D+00 0.734D+00
 Gap=     0.253 Goal=   None    Shift=    0.000
 RMSDP=1.33D-03 MaxDP=2.92D-01 DE=-2.21D-01 OVMax= 2.29D-01

 Cycle   3  Pass 1  IDiag  1:
 RMSU=  1.20D-03    CP:  4.16D-01  8.22D-01
 E= -2424.65957030461     Delta-E=       -0.266276620034 Rises=F Damp=F
 DIIS: error= 1.20D-02 at cycle   3 NSaved=   3.
 NSaved= 3 IEnMin= 3 EnMin= -2424.65957030461     IErMin= 3 ErrMin= 1.20D-02
 ErrMax= 1.20D-02  0.00D+00 EMaxC= 1.00D-01 BMatC= 3.16D-01 BMatP= 7.09D-01
 IDIUse=3 WtCom= 8.80D-01 WtEn= 1.20D-01
 Coeff-Com:  0.451D-01 0.402D+00 0.553D+00
 Coeff-En:   0.000D+00 0.349D+00 0.651D+00
 Coeff:      0.397D-01 0.396D+00 0.564D+00
 Gap=     0.232 Goal=   None    Shift=    0.000
 RMSDP=4.43D-04 MaxDP=8.70D-02 DE=-2.66D-01 OVMax= 1.10D-01

 Cycle   4  Pass 1  IDiag  1:
 RMSU=  2.80D-04    CP:  4.01D-01  8.83D-01  7.93D-01
 E= -2424.92821061639     Delta-E=       -0.268640311788 Rises=F Damp=F
 DIIS: error= 2.03D-03 at cycle   4 NSaved=   4.
 NSaved= 4 IEnMin= 4 EnMin= -2424.92821061639     IErMin= 4 ErrMin= 2.03D-03
 ErrMax= 2.03D-03  0.00D+00 EMaxC= 1.00D-01 BMatC= 1.16D-02 BMatP= 3.16D-01
 IDIUse=3 WtCom= 9.80D-01 WtEn= 2.03D-02
 Coeff-Com:  0.959D-02 0.138D+00 0.257D+00 0.596D+00
 Coeff-En:   0.000D+00 0.000D+00 0.000D+00 0.100D+01
 Coeff:      0.939D-02 0.135D+00 0.251D+00 0.604D+00
 Gap=     0.210 Goal=   None    Shift=    0.000
 RMSDP=1.59D-04 MaxDP=2.65D-02 DE=-2.69D-01 OVMax= 1.63D-02

 Cycle   5  Pass 1  IDiag  1:
 RMSU=  9.98D-05    CP:  3.94D-01  8.98D-01  7.96D-01  6.96D-01
 E= -2424.93654985669     Delta-E=       -0.008339240296 Rises=F Damp=F
 DIIS: error= 7.24D-04 at cycle   5 NSaved=   5.
 NSaved= 5 IEnMin= 5 EnMin= -2424.93654985669     IErMin= 5 ErrMin= 7.24D-04
 ErrMax= 7.24D-04  0.00D+00 EMaxC= 1.00D-01 BMatC= 7.11D-04 BMatP= 1.16D-02
 IDIUse=3 WtCom= 9.93D-01 WtEn= 7.24D-03
 Coeff-Com:  0.932D-03 0.235D-01 0.643D-01 0.243D+00 0.668D+00
 Coeff-En:   0.000D+00 0.000D+00 0.000D+00 0.000D+00 0.100D+01
 Coeff:      0.926D-03 0.233D-01 0.638D-01 0.241D+00 0.671D+00
 Gap=     0.210 Goal=   None    Shift=    0.000
 RMSDP=4.59D-05 MaxDP=6.59D-03 DE=-8.34D-03 OVMax= 6.37D-03

 Cycle   6  Pass 1  IDiag  1:
 RMSU=  3.73D-05    CP:  3.96D-01  8.95D-01  7.95D-01  7.38D-01  9.64D-01
 E= -2424.93694040073     Delta-E=       -0.000390544043 Rises=F Damp=F
 DIIS: error= 4.81D-04 at cycle   6 NSaved=   6.
 NSaved= 6 IEnMin= 6 EnMin= -2424.93694040073     IErMin= 6 ErrMin= 4.81D-04
 ErrMax= 4.81D-04  0.00D+00 EMaxC= 1.00D-01 BMatC= 2.86D-04 BMatP= 7.11D-04
 IDIUse=3 WtCom= 9.95D-01 WtEn= 4.81D-03
 Coeff-Com: -0.119D-02-0.123D-01-0.827D-02 0.307D-01 0.424D+00 0.567D+00
 Coeff-En:   0.000D+00 0.000D+00 0.000D+00 0.000D+00 0.269D+00 0.731D+00
 Coeff:     -0.118D-02-0.122D-01-0.823D-02 0.306D-01 0.424D+00 0.568D+00
 Gap=     0.211 Goal=   None    Shift=    0.000
 RMSDP=2.39D-05 MaxDP=3.03D-03 DE=-3.91D-04 OVMax= 3.05D-03

 Cycle   7  Pass 1  IDiag  1:
 RMSU=  1.51D-05    CP:  3.96D-01  8.94D-01  8.03D-01  7.35D-01  1.11D+00
                    CP:  8.85D-01
 E= -2424.93718088990     Delta-E=       -0.000240489171 Rises=F Damp=F
 DIIS: error= 3.77D-05 at cycle   7 NSaved=   7.
 NSaved= 7 IEnMin= 7 EnMin= -2424.93718088990     IErMin= 7 ErrMin= 3.77D-05
 ErrMax= 3.77D-05  0.00D+00 EMaxC= 1.00D-01 BMatC= 3.71D-06 BMatP= 2.86D-04
 IDIUse=1 WtCom= 1.00D+00 WtEn= 0.00D+00
 Coeff-Com: -0.305D-03-0.435D-02-0.524D-02-0.914D-02 0.613D-01 0.138D+00
 Coeff-Com:  0.820D+00
 Coeff:     -0.305D-03-0.435D-02-0.524D-02-0.914D-02 0.613D-01 0.138D+00
 Coeff:      0.820D+00
 Gap=     0.211 Goal=   None    Shift=    0.000
 RMSDP=6.45D-06 MaxDP=1.54D-03 DE=-2.40D-04 OVMax= 6.42D-04

 Cycle   8  Pass 1  IDiag  1:
 RMSU=  2.64D-06    CP:  3.96D-01  8.93D-01  8.03D-01  7.34D-01  1.14D+00
                    CP:  9.80D-01  1.10D+00
 E= -2424.93718628984     Delta-E=       -0.000005399939 Rises=F Damp=F
 DIIS: error= 2.02D-05 at cycle   8 NSaved=   8.
 NSaved= 8 IEnMin= 8 EnMin= -2424.93718628984     IErMin= 8 ErrMin= 2.02D-05
 ErrMax= 2.02D-05  0.00D+00 EMaxC= 1.00D-01 BMatC= 9.24D-07 BMatP= 3.71D-06
 IDIUse=1 WtCom= 1.00D+00 WtEn= 0.00D+00
 Coeff-Com:  0.214D-04-0.282D-03-0.112D-02-0.926D-02-0.386D-01-0.225D-01
 Coeff-Com:  0.354D+00 0.717D+00
 Coeff:      0.214D-04-0.282D-03-0.112D-02-0.926D-02-0.386D-01-0.225D-01
 Coeff:      0.354D+00 0.717D+00
 Gap=     0.211 Goal=   None    Shift=    0.000
 RMSDP=3.18D-06 MaxDP=8.38D-04 DE=-5.40D-06 OVMax= 3.62D-04

 Cycle   9  Pass 1  IDiag  1:
 RMSU=  1.06D-06    CP:  3.96D-01  8.93D-01  8.03D-01  7.33D-01  1.15D+00
                    CP:  1.02D+00  1.19D+00  1.20D+00
 E= -2424.93718746598     Delta-E=       -0.000001176142 Rises=F Damp=F
 DIIS: error= 8.48D-06 at cycle   9 NSaved=   9.
 NSaved= 9 IEnMin= 9 EnMin= -2424.93718746598     IErMin= 9 ErrMin= 8.48D-06
 ErrMax= 8.48D-06  0.00D+00 EMaxC= 1.00D-01 BMatC= 1.35D-07 BMatP= 9.24D-07
 IDIUse=1 WtCom= 1.00D+00 WtEn= 0.00D+00
 Coeff-Com:  0.553D-04 0.577D-03 0.490D-03-0.248D-02-0.283D-01-0.324D-01
 Coeff-Com:  0.354D-01 0.321D+00 0.705D+00
 Coeff:      0.553D-04 0.577D-03 0.490D-03-0.248D-02-0.283D-01-0.324D-01
 Coeff:      0.354D-01 0.321D+00 0.705D+00
 Gap=     0.211 Goal=   None    Shift=    0.000
 RMSDP=1.55D-06 MaxDP=4.46D-04 DE=-1.18D-06 OVMax= 1.67D-04

 Cycle  10  Pass 1  IDiag  1:
 RMSU=  4.16D-07    CP:  3.96D-01  8.93D-01  8.03D-01  7.32D-01  1.15D+00
                    CP:  1.03D+00  1.22D+00  1.32D+00  1.02D+00
 E= -2424.93718764850     Delta-E=       -0.000000182514 Rises=F Damp=F
 DIIS: error= 2.58D-06 at cycle  10 NSaved=  10.
 NSaved=10 IEnMin=10 EnMin= -2424.93718764850     IErMin=10 ErrMin= 2.58D-06
 ErrMax= 2.58D-06  0.00D+00 EMaxC= 1.00D-01 BMatC= 1.36D-08 BMatP= 1.35D-07
 IDIUse=1 WtCom= 1.00D+00 WtEn= 0.00D+00
 Coeff-Com:  0.187D-04 0.233D-03 0.317D-03-0.140D-04-0.700D-02-0.975D-02
 Coeff-Com: -0.179D-01 0.509D-01 0.287D+00 0.696D+00
 Coeff:      0.187D-04 0.233D-03 0.317D-03-0.140D-04-0.700D-02-0.975D-02
 Coeff:     -0.179D-01 0.509D-01 0.287D+00 0.696D+00
 Gap=     0.211 Goal=   None    Shift=    0.000
 RMSDP=4.23D-07 MaxDP=1.21D-04 DE=-1.83D-07 OVMax= 5.52D-05

 Cycle  11  Pass 1  IDiag  1:
 RMSU=  1.15D-07    CP:  3.96D-01  8.93D-01  8.03D-01  7.32D-01  1.15D+00
                    CP:  1.03D+00  1.23D+00  1.36D+00  1.13D+00  1.07D+00
 E= -2424.93718766795     Delta-E=       -0.000000019450 Rises=F Damp=F
 DIIS: error= 1.32D-06 at cycle  11 NSaved=  11.
 NSaved=11 IEnMin=11 EnMin= -2424.93718766795     IErMin=11 ErrMin= 1.32D-06
 ErrMax= 1.32D-06  0.00D+00 EMaxC= 1.00D-01 BMatC= 2.38D-09 BMatP= 1.36D-08
 IDIUse=1 WtCom= 1.00D+00 WtEn= 0.00D+00
 Coeff-Com: -0.148D-05-0.389D-05 0.457D-04 0.439D-03 0.223D-02 0.195D-02
 Coeff-Com: -0.142D-01-0.451D-01-0.971D-02 0.299D+00 0.766D+00
 Coeff:     -0.148D-05-0.389D-05 0.457D-04 0.439D-03 0.223D-02 0.195D-02
 Coeff:     -0.142D-01-0.451D-01-0.971D-02 0.299D+00 0.766D+00
 Gap=     0.211 Goal=   None    Shift=    0.000
 RMSDP=2.40D-07 MaxDP=6.71D-05 DE=-1.95D-08 OVMax= 2.27D-05

 Cycle  12  Pass 1  IDiag  1:
 RMSU=  6.19D-08    CP:  3.96D-01  8.93D-01  8.03D-01  7.32D-01  1.15D+00
                    CP:  1.03D+00  1.23D+00  1.38D+00  1.17D+00  1.17D+00
                    CP:  1.23D+00
 E= -2424.93718767238     Delta-E=       -0.000000004427 Rises=F Damp=F
 DIIS: error= 5.98D-07 at cycle  12 NSaved=  12.
 NSaved=12 IEnMin=12 EnMin= -2424.93718767238     IErMin=12 ErrMin= 5.98D-07
 ErrMax= 5.98D-07  0.00D+00 EMaxC= 1.00D-01 BMatC= 2.15D-10 BMatP= 2.38D-09
 IDIUse=1 WtCom= 1.00D+00 WtEn= 0.00D+00
 Coeff-Com: -0.240D-05-0.237D-04-0.206D-04 0.148D-03 0.147D-02 0.180D-02
 Coeff-Com: -0.139D-02-0.210D-01-0.362D-01 0.163D-01 0.191D+00 0.848D+00
 Coeff:     -0.240D-05-0.237D-04-0.206D-04 0.148D-03 0.147D-02 0.180D-02
 Coeff:     -0.139D-02-0.210D-01-0.362D-01 0.163D-01 0.191D+00 0.848D+00
 Gap=     0.211 Goal=   None    Shift=    0.000
 RMSDP=8.90D-08 MaxDP=2.08D-05 DE=-4.43D-09 OVMax= 1.02D-05

 Cycle  13  Pass 1  IDiag  1:
 RMSU=  4.34D-08    CP:  3.96D-01  8.93D-01  8.03D-01  7.32D-01  1.15D+00
                    CP:  1.03D+00  1.23D+00  1.39D+00  1.19D+00  1.19D+00
                    CP:  1.42D+00  1.31D+00
 E= -2424.93718767295     Delta-E=       -0.000000000569 Rises=F Damp=F
 DIIS: error= 2.84D-07 at cycle  13 NSaved=  13.
 NSaved=13 IEnMin=13 EnMin= -2424.93718767295     IErMin=13 ErrMin= 2.84D-07
 ErrMax= 2.84D-07  0.00D+00 EMaxC= 1.00D-01 BMatC= 9.05D-11 BMatP= 2.15D-10
 IDIUse=1 WtCom= 1.00D+00 WtEn= 0.00D+00
 Coeff-Com: -0.912D-06-0.110D-04-0.205D-04-0.871D-05 0.269D-03 0.492D-03
 Coeff-Com:  0.236D-02-0.175D-02-0.147D-01-0.445D-01-0.657D-01 0.446D+00
 Coeff-Com:  0.677D+00
 Coeff:     -0.912D-06-0.110D-04-0.205D-04-0.871D-05 0.269D-03 0.492D-03
 Coeff:      0.236D-02-0.175D-02-0.147D-01-0.445D-01-0.657D-01 0.446D+00
 Coeff:      0.677D+00
 Gap=     0.211 Goal=   None    Shift=    0.000
 RMSDP=6.30D-08 MaxDP=7.81D-06 DE=-5.69D-10 OVMax= 4.09D-06

 Cycle  14  Pass 1  IDiag  1:
 RMSU=  4.14D-08    CP:  3.96D-01  8.93D-01  8.03D-01  7.32D-01  1.15D+00
                    CP:  1.03D+00  1.23D+00  1.39D+00  1.19D+00  1.20D+00
                    CP:  1.49D+00  1.71D+00  1.59D+00
 E= -2424.93718767334     Delta-E=       -0.000000000398 Rises=F Damp=F
 DIIS: error= 9.24D-08 at cycle  14 NSaved=  14.
 NSaved=14 IEnMin=14 EnMin= -2424.93718767334     IErMin=14 ErrMin= 9.24D-08
 ErrMax= 9.24D-08  0.00D+00 EMaxC= 1.00D-01 BMatC= 1.56D-11 BMatP= 9.05D-11
 IDIUse=1 WtCom= 1.00D+00 WtEn= 0.00D+00
 Coeff-Com: -0.334D-07-0.168D-05-0.694D-05-0.286D-04-0.147D-03-0.120D-03
 Coeff-Com:  0.132D-02 0.282D-02 0.197D-04-0.219D-01-0.689D-01 0.440D-01
 Coeff-Com:  0.323D+00 0.720D+00
 Coeff:     -0.334D-07-0.168D-05-0.694D-05-0.286D-04-0.147D-03-0.120D-03
 Coeff:      0.132D-02 0.282D-02 0.197D-04-0.219D-01-0.689D-01 0.440D-01
 Coeff:      0.323D+00 0.720D+00
 Gap=     0.211 Goal=   None    Shift=    0.000
 RMSDP=9.23D-08 MaxDP=1.32D-05 DE=-3.98D-10 OVMax= 1.98D-06

 Cycle  15  Pass 1  IDiag  1:
 RMSU=  3.38D-08    CP:  3.96D-01  8.93D-01  8.03D-01  7.32D-01  1.15D+00
                    CP:  1.04D+00  1.23D+00  1.39D+00  1.19D+00  1.22D+00
                    CP:  1.58D+00  2.06D+00  2.50D+00  2.19D+00
 E= -2424.93718767381     Delta-E=       -0.000000000467 Rises=F Damp=F
 DIIS: error= 6.43D-08 at cycle  15 NSaved=  15.
 NSaved=15 IEnMin=15 EnMin= -2424.93718767381     IErMin=15 ErrMin= 6.43D-08
 ErrMax= 6.43D-08  0.00D+00 EMaxC= 1.00D-01 BMatC= 4.44D-12 BMatP= 1.56D-11
 IDIUse=1 WtCom= 1.00D+00 WtEn= 0.00D+00
 Coeff-Com:  0.957D-07 0.439D-06-0.124D-05-0.152D-04-0.123D-03-0.145D-03
 Coeff-Com:  0.417D-03 0.186D-02 0.200D-02-0.699D-02-0.319D-01-0.425D-01
 Coeff-Com:  0.794D-01 0.408D+00 0.590D+00
 Coeff:      0.957D-07 0.439D-06-0.124D-05-0.152D-04-0.123D-03-0.145D-03
 Coeff:      0.417D-03 0.186D-02 0.200D-02-0.699D-02-0.319D-01-0.425D-01
 Coeff:      0.794D-01 0.408D+00 0.590D+00
 Gap=     0.211 Goal=   None    Shift=    0.000
 RMSDP=1.34D-07 MaxDP=2.13D-05 DE=-4.67D-10 OVMax= 8.12D-07

 Cycle  16  Pass 1  IDiag  1:
 RMSU=  4.99D-08    CP:  3.96D-01  8.93D-01  8.03D-01  7.32D-01  1.15D+00
                    CP:  1.04D+00  1.23D+00  1.39D+00  1.19D+00  1.23D+00
                    CP:  1.67D+00  2.42D+00  3.00D+00  3.00D+00  2.55D+00
 E= -2424.93718767452     Delta-E=       -0.000000000706 Rises=F Damp=F
 DIIS: error= 7.44D-08 at cycle  16 NSaved=  16.
 NSaved=16 IEnMin=16 EnMin= -2424.93718767452     IErMin=15 ErrMin= 6.43D-08
 ErrMax= 7.44D-08  0.00D+00 EMaxC= 1.00D-01 BMatC= 2.87D-12 BMatP= 4.44D-12
 IDIUse=1 WtCom= 1.00D+00 WtEn= 0.00D+00
 Coeff-Com:  0.100D-06 0.466D-06-0.126D-05-0.157D-04-0.128D-03-0.151D-03
 Coeff-Com:  0.430D-03 0.193D-02 0.209D-02-0.719D-02-0.330D-01-0.446D-01
 Coeff-Com:  0.818D-01 0.423D+00 0.614D+00-0.387D-01
 Coeff:      0.100D-06 0.466D-06-0.126D-05-0.157D-04-0.128D-03-0.151D-03
 Coeff:      0.430D-03 0.193D-02 0.209D-02-0.719D-02-0.330D-01-0.446D-01
 Coeff:      0.818D-01 0.423D+00 0.614D+00-0.387D-01
 Gap=     0.211 Goal=   None    Shift=    0.000
 RMSDP=1.17D-08 MaxDP=1.96D-06 DE=-7.06D-10 OVMax= 8.44D-09

 Cycle  17  Pass 1  IDiag  1:
 RMSU=  1.94D-09    CP:  3.96D-01  8.93D-01  8.03D-01  7.32D-01  1.15D+00
                    CP:  1.04D+00  1.23D+00  1.39D+00  1.19D+00  1.23D+00
                    CP:  1.66D+00  2.40D+00  3.00D+00  3.00D+00  2.42D+00
                    CP:  8.65D-01
 E= -2424.93718767438     Delta-E=        0.000000000138 Rises=F Damp=F
 DIIS: error= 7.33D-08 at cycle  17 NSaved=  17.
 NSaved=17 IEnMin=16 EnMin= -2424.93718767452     IErMin=15 ErrMin= 6.43D-08
 ErrMax= 7.33D-08  0.00D+00 EMaxC= 1.00D-01 BMatC= 2.91D-12 BMatP= 2.87D-12
 IDIUse=1 WtCom= 1.00D+00 WtEn= 0.00D+00
 Coeff-Com:  0.100D-06 0.466D-06-0.126D-05-0.157D-04-0.128D-03-0.151D-03
 Coeff-Com:  0.428D-03 0.192D-02 0.209D-02-0.716D-02-0.329D-01-0.445D-01
 Coeff-Com:  0.814D-01 0.422D+00 0.614D+00-0.134D+00 0.976D-01
 Coeff:      0.100D-06 0.466D-06-0.126D-05-0.157D-04-0.128D-03-0.151D-03
 Coeff:      0.428D-03 0.192D-02 0.209D-02-0.716D-02-0.329D-01-0.445D-01
 Coeff:      0.814D-01 0.422D+00 0.614D+00-0.134D+00 0.976D-01
 Gap=     0.211 Goal=   None    Shift=    0.000
 RMSDP=4.31D-09 MaxDP=3.58D-07 DE= 1.38D-10 OVMax= 2.29D-09

 Error on total polarization charges =  0.08521
 SCF Done:  E(RCAM-B3LYP) =  -2424.93718767     A.U. after   17 cycles
            NFock= 17  Conv=0.43D-08     -V/T= 2.0037
 KE= 2.415954988700D+03 PE=-1.819780798953D+04 EE= 7.085115691253D+03
 SMD-CDS (non-electrostatic) energy       (kcal/mol) =      -8.65
 (included in total energy above)
 Leave Link  502 at Fri Jul  1 16:03:01 2022, MaxMem=  5242880000 cpu:     68632.7
 (Enter /opt/nce/packages/global/g09/l801.exe)
 DoSCS=F DFT=T ScalE2(SS,OS)=  1.000000  1.000000
 ExpMin= 9.52D-02 ExpMax= 6.95D+04 ExpMxC= 2.37D+03 IAcc=3 IRadAn=         5 AccDes= 0.00D+00
 HarFok:  IExCor=  205 AccDes= 0.00D+00 IRadAn=         5 IDoV=-2 UseB2=F ITyADJ=14
 ICtDFT= 12500011 ScaDFX=  1.000000  1.000000  1.000000  1.000000
 Largest valence mixing into a core orbital is  6.11D-05
 Largest core mixing into a valence orbital is  1.94D-05
 Range of M.O.s used for correlation:    55  1700
 NBasis=  1700 NAE=   170 NBE=   170 NFC=    54 NFV=     0
 NROrb=   1646 NOA=   116 NOB=   116 NVA=  1530 NVB=  1530

 **** Warning!!: The largest alpha MO coefficient is  0.94238713D+02

 Leave Link  801 at Fri Jul  1 16:03:02 2022, MaxMem=  5242880000 cpu:         6.9
 (Enter /opt/nce/packages/global/g09/l914.exe)
 RHF ground state
 MDV=  5242880000 DFT=T DoStab=F Mixed=T DoRPA=T DoScal=F NonHer=T
 Would need an additional       6305823300000 words for in-memory AO integral storage.
 NEqPCM:  Using non-equilibrium solvation (IEInf=1, Eps=  35.6880, EpsInf=   1.8069)
 Inv3:  Mode=1 IEnd=   106994352.
 Iteration    1 A*A^-1 deviation from unit magnitude is 1.27D-14 for   5970.
 Iteration    1 A*A^-1 deviation from orthogonality  is 4.00D-15 for   5416   4837.
 Iteration    1 A^-1*A deviation from unit magnitude is 1.24D-14 for   5970.
 Iteration    1 A^-1*A deviation from orthogonality  is 1.24D-14 for   2471   2439.
 Making orbital integer symmetry assigments:
 Orbital symmetries:
       Occupied  (A) (A) (A) (A) (A) (A) (A) (A) (A) (A) (A) (A)
                 (A) (A) (A) (A) (A) (A) (A) (A) (A) (A) (A) (A)
                 (A) (A) (A) (A) (A) (A) (A) (A) (A) (A) (A) (A)
                 (A) (A) (A) (A) (A) (A) (A) (A) (A) (A) (A) (A)
                 (A) (A) (A) (A) (A) (A) (A) (A) (A) (A) (A) (A)
                 (A) (A) (A) (A) (A) (A) (A) (A) (A) (A) (A) (A)
                 (A) (A) (A) (A) (A) (A) (A) (A) (A) (A) (A) (A)
                 (A) (A) (A) (A) (A) (A) (A) (A) (A) (A) (A) (A)
                 (A) (A) (A) (A) (A) (A) (A) (A) (A) (A) (A) (A)
                 (A) (A) (A) (A) (A) (A) (A) (A) (A) (A) (A) (A)
                 (A) (A) (A) (A) (A) (A) (A) (A) (A) (A) (A) (A)
                 (A) (A) (A) (A) (A) (A) (A) (A) (A) (A) (A) (A)
                 (A) (A) (A) (A) (A) (A) (A) (A) (A) (A) (A) (A)
                 (A) (A) (A) (A) (A) (A) (A) (A) (A) (A) (A) (A)
                 (A) (A)
       Virtual   (A) (A) (A) (A) (A) (A) (A) (A) (A) (A) (A) (A)
                 (A) (A) (A) (A) (A) (A) (A) (A) (A) (A) (A) (A)
                 (A) (A) (A) (A) (A) (A) (A) (A) (A) (A) (A) (A)
                 (A) (A) (A) (A) (A) (A) (A) (A) (A) (A) (A) (A)
                 (A) (A) (A) (A) (A) (A) (A) (A) (A) (A) (A) (A)
                 (A) (A) (A) (A) (A) (A) (A) (A) (A) (A) (A) (A)
                 (A) (A) (A) (A) (A) (A) (A) (A) (A) (A) (A) (A)
                 (A) (A) (A) (A) (A) (A) (A) (A) (A) (A) (A) (A)
                 (A) (A) (A) (A) (A) (A) (A) (A) (A) (A) (A) (A)
                 (A) (A) (A) (A) (A) (A) (A) (A) (A) (A) (A) (A)
                 (A) (A) (A) (A) (A) (A) (A) (A) (A) (A) (A) (A)
                 (A) (A) (A) (A) (A) (A) (A) (A) (A) (A) (A) (A)
                 (A) (A) (A) (A) (A) (A) (A) (A) (A) (A) (A) (A)
                 (A) (A) (A) (A) (A) (A) (A) (A) (A) (A) (A) (A)
                 (A) (A) (A) (A) (A) (A) (A) (A) (A) (A) (A) (A)
                 (A) (A) (A) (A) (A) (A) (A) (A) (A) (A) (A) (A)
                 (A) (A) (A) (A) (A) (A) (A) (A) (A) (A) (A) (A)
                 (A) (A) (A) (A) (A) (A) (A) (A) (A) (A) (A) (A)
                 (A) (A) (A) (A) (A) (A) (A) (A) (A) (A) (A) (A)
                 (A) (A) (A) (A) (A) (A) (A) (A) (A) (A) (A) (A)
                 (A) (A) (A) (A) (A) (A) (A) (A) (A) (A) (A) (A)
                 (A) (A) (A) (A) (A) (A) (A) (A) (A) (A) (A) (A)
                 (A) (A) (A) (A) (A) (A) (A) (A) (A) (A) (A) (A)
                 (A) (A) (A) (A) (A) (A) (A) (A) (A) (A) (A) (A)
                 (A) (A) (A) (A) (A) (A) (A) (A) (A) (A) (A) (A)
                 (A) (A) (A) (A) (A) (A) (A) (A) (A) (A) (A) (A)
                 (A) (A) (A) (A) (A) (A) (A) (A) (A) (A) (A) (A)
                 (A) (A) (A) (A) (A) (A) (A) (A) (A) (A) (A) (A)
                 (A) (A) (A) (A) (A) (A) (A) (A) (A) (A) (A) (A)
                 (A) (A) (A) (A) (A) (A) (A) (A) (A) (A) (A) (A)
                 (A) (A) (A) (A) (A) (A) (A) (A) (A) (A) (A) (A)
                 (A) (A) (A) (A) (A) (A) (A) (A) (A) (A) (A) (A)
                 (A) (A) (A) (A) (A) (A) (A) (A) (A) (A) (A) (A)
                 (A) (A) (A) (A) (A) (A) (A) (A) (A) (A) (A) (A)
                 (A) (A) (A) (A) (A) (A) (A) (A) (A) (A) (A) (A)
                 (A) (A) (A) (A) (A) (A) (A) (A) (A) (A) (A) (A)
                 (A) (A) (A) (A) (A) (A) (A) (A) (A) (A) (A) (A)
                 (A) (A) (A) (A) (A) (A) (A) (A) (A) (A) (A) (A)
                 (A) (A) (A) (A) (A) (A) (A) (A) (A) (A) (A) (A)
                 (A) (A) (A) (A) (A) (A) (A) (A) (A) (A) (A) (A)
                 (A) (A) (A) (A) (A) (A) (A) (A) (A) (A) (A) (A)
                 (A) (A) (A) (A) (A) (A) (A) (A) (A) (A) (A) (A)
                 (A) (A) (A) (A) (A) (A) (A) (A) (A) (A) (A) (A)
                 (A) (A) (A) (A) (A) (A) (A) (A) (A) (A) (A) (A)
                 (A) (A) (A) (A) (A) (A) (A) (A) (A) (A) (A) (A)
                 (A) (A) (A) (A) (A) (A) (A) (A) (A) (A) (A) (A)
                 (A) (A) (A) (A) (A) (A) (A) (A) (A) (A) (A) (A)
                 (A) (A) (A) (A) (A) (A) (A) (A) (A) (A) (A) (A)
                 (A) (A) (A) (A) (A) (A) (A) (A) (A) (A) (A) (A)
                 (A) (A) (A) (A) (A) (A) (A) (A) (A) (A) (A) (A)
                 (A) (A) (A) (A) (A) (A) (A) (A) (A) (A) (A) (A)
                 (A) (A) (A) (A) (A) (A) (A) (A) (A) (A) (A) (A)
                 (A) (A) (A) (A) (A) (A) (A) (A) (A) (A) (A) (A)
                 (A) (A) (A) (A) (A) (A) (A) (A) (A) (A) (A) (A)
                 (A) (A) (A) (A) (A) (A) (A) (A) (A) (A) (A) (A)
                 (A) (A) (A) (A) (A) (A) (A) (A) (A) (A) (A) (A)
                 (A) (A) (A) (A) (A) (A) (A) (A) (A) (A) (A) (A)
                 (A) (A) (A) (A) (A) (A) (A) (A) (A) (A) (A) (A)
                 (A) (A) (A) (A) (A) (A) (A) (A) (A) (A) (A) (A)
                 (A) (A) (A) (A) (A) (A) (A) (A) (A) (A) (A) (A)
                 (A) (A) (A) (A) (A) (A) (A) (A) (A) (A) (A) (A)
                 (A) (A) (A) (A) (A) (A) (A) (A) (A) (A) (A) (A)
                 (A) (A) (A) (A) (A) (A) (A) (A) (A) (A) (A) (A)
                 (A) (A) (A) (A) (A) (A) (A) (A) (A) (A) (A) (A)
                 (A) (A) (A) (A) (A) (A) (A) (A) (A) (A) (A) (A)
                 (A) (A) (A) (A) (A) (A) (A) (A) (A) (A) (A) (A)
                 (A) (A) (A) (A) (A) (A) (A) (A) (A) (A) (A) (A)
                 (A) (A) (A) (A) (A) (A) (A) (A) (A) (A) (A) (A)
                 (A) (A) (A) (A) (A) (A) (A) (A) (A) (A) (A) (A)
                 (A) (A) (A) (A) (A) (A) (A) (A) (A) (A) (A) (A)
                 (A) (A) (A) (A) (A) (A) (A) (A) (A) (A) (A) (A)
                 (A) (A) (A) (A) (A) (A) (A) (A) (A) (A) (A) (A)
                 (A) (A) (A) (A) (A) (A) (A) (A) (A) (A) (A) (A)
                 (A) (A) (A) (A) (A) (A) (A) (A) (A) (A) (A) (A)
                 (A) (A) (A) (A) (A) (A) (A) (A) (A) (A) (A) (A)
                 (A) (A) (A) (A) (A) (A) (A) (A) (A) (A) (A) (A)
                 (A) (A) (A) (A) (A) (A) (A) (A) (A) (A) (A) (A)
                 (A) (A) (A) (A) (A) (A) (A) (A) (A) (A) (A) (A)
                 (A) (A) (A) (A) (A) (A) (A) (A) (A) (A) (A) (A)
                 (A) (A) (A) (A) (A) (A) (A) (A) (A) (A) (A) (A)
                 (A) (A) (A) (A) (A) (A) (A) (A) (A) (A) (A) (A)
                 (A) (A) (A) (A) (A) (A) (A) (A) (A) (A) (A) (A)
                 (A) (A) (A) (A) (A) (A) (A) (A) (A) (A) (A) (A)
                 (A) (A) (A) (A) (A) (A) (A) (A) (A) (A) (A) (A)
                 (A) (A) (A) (A) (A) (A) (A) (A) (A) (A) (A) (A)
                 (A) (A) (A) (A) (A) (A) (A) (A) (A) (A) (A) (A)
                 (A) (A) (A) (A) (A) (A) (A) (A) (A) (A) (A) (A)
                 (A) (A) (A) (A) (A) (A) (A) (A) (A) (A) (A) (A)
                 (A) (A) (A) (A) (A) (A) (A) (A) (A) (A) (A) (A)
                 (A) (A) (A) (A) (A) (A) (A) (A) (A) (A) (A) (A)
                 (A) (A) (A) (A) (A) (A) (A) (A) (A) (A) (A) (A)
                 (A) (A) (A) (A) (A) (A) (A) (A) (A) (A) (A) (A)
                 (A) (A) (A) (A) (A) (A) (A) (A) (A) (A) (A) (A)
                 (A) (A) (A) (A) (A) (A) (A) (A) (A) (A) (A) (A)
                 (A) (A) (A) (A) (A) (A) (A) (A) (A) (A) (A) (A)
                 (A) (A) (A) (A) (A) (A) (A) (A) (A) (A) (A) (A)
                 (A) (A) (A) (A) (A) (A) (A) (A) (A) (A) (A) (A)
                 (A) (A) (A) (A) (A) (A) (A) (A) (A) (A) (A) (A)
                 (A) (A) (A) (A) (A) (A) (A) (A) (A) (A) (A) (A)
                 (A) (A) (A) (A) (A) (A) (A) (A) (A) (A) (A) (A)
                 (A) (A) (A) (A) (A) (A) (A) (A) (A) (A) (A) (A)
                 (A) (A) (A) (A) (A) (A) (A) (A) (A) (A) (A) (A)
                 (A) (A) (A) (A) (A) (A) (A) (A) (A) (A) (A) (A)
                 (A) (A) (A) (A) (A) (A) (A) (A) (A) (A) (A) (A)
                 (A) (A) (A) (A) (A) (A) (A) (A) (A) (A) (A) (A)
                 (A) (A) (A) (A) (A) (A) (A) (A) (A) (A) (A) (A)
                 (A) (A) (A) (A) (A) (A) (A) (A) (A) (A) (A) (A)
                 (A) (A) (A) (A) (A) (A) (A) (A) (A) (A) (A) (A)
                 (A) (A) (A) (A) (A) (A) (A) (A) (A) (A) (A) (A)
                 (A) (A) (A) (A) (A) (A) (A) (A) (A) (A) (A) (A)
                 (A) (A) (A) (A) (A) (A) (A) (A) (A) (A) (A) (A)
                 (A) (A) (A) (A) (A) (A) (A) (A) (A) (A) (A) (A)
                 (A) (A) (A) (A) (A) (A) (A) (A) (A) (A) (A) (A)
                 (A) (A) (A) (A) (A) (A) (A) (A) (A) (A) (A) (A)
                 (A) (A) (A) (A) (A) (A) (A) (A) (A) (A) (A) (A)
                 (A) (A) (A) (A) (A) (A) (A) (A) (A) (A) (A) (A)
                 (A) (A) (A) (A) (A) (A) (A) (A) (A) (A) (A) (A)
                 (A) (A) (A) (A) (A) (A) (A) (A) (A) (A) (A) (A)
                 (A) (A) (A) (A) (A) (A) (A) (A) (A) (A) (A) (A)
                 (A) (A) (A) (A) (A) (A) (A) (A) (A) (A) (A) (A)
                 (A) (A) (A) (A) (A) (A) (A) (A) (A) (A) (A) (A)
                 (A) (A) (A) (A) (A) (A) (A) (A) (A) (A) (A) (A)
                 (A) (A) (A) (A) (A) (A) (A) (A) (A) (A) (A) (A)
                 (A) (A) (A) (A) (A) (A) (A) (A) (A) (A) (A) (A)
                 (A) (A) (A) (A) (A) (A) (A) (A) (A) (A) (A) (A)
                 (A) (A) (A) (A) (A) (A) (A) (A) (A) (A) (A) (A)
                 (A) (A) (A) (A) (A) (A) (A) (A) (A) (A) (A) (A)
                 (A) (A) (A) (A) (A) (A)
   200 initial guesses have been made.
 Convergence on wavefunction:    0.001000000000000
 Davidson Disk Diagonalization:  ConvIn= 1.00D-03 SkipCon=T Conv= 1.00D-03.
 Max sub-space:   800 roots to seek:   200 dimension of matrix:       354960
 Iteration     1 Dimension   200 NMult     0 NNew    200
 CISAX will form    72 AO SS matrices at one time.
 NMat=    72 NSing=    72 JSym2X= 0.
 FoFJK:  IHMeth= 1 ICntrl=       0 DoSepK=T KAlg= 0 I1Cent=   0 FoldK=F
 IRaf=         1 NMat= 144 IRICut=       1 DoRegI=T DoRafI=F ISym2E= 0.
 NMat=    72 NSing=    72 JSym2X= 0.
 NMat=    56 NSing=    56 JSym2X= 0.
 New state      4 was old state      7
 New state      5 was old state      4
 New state      6 was old state      5
 New state      7 was old state      6
 New state      8 was old state      9
 New state      9 was old state      8
 New state     10 was old state     12
 New state     11 was old state     10
 New state     12 was old state     11
 New state     13 was old state     21
 New state     16 was old state     34
 New state     17 was old state     27
 New state     18 was old state     26
 New state     19 was old state     29
 New state     20 was old state     16
 New state     21 was old state     18
 New state     22 was old state     17
 New state     23 was old state     36
 New state     24 was old state     35
 New state     25 was old state     37
 New state     26 was old state     47
 New state     27 was old state     38
 New state     28 was old state     23
 New state     29 was old state     13
 New state     30 was old state     45
 New state     31 was old state     48
 New state     32 was old state     20
 New state     33 was old state     19
 New state     34 was old state     39
 New state     35 was old state     22
 New state     36 was old state     24
 New state     37 was old state     42
 New state     38 was old state     41
 New state     39 was old state     43
 New state     40 was old state     52
 New state     41 was old state     40
 New state     42 was old state     65
 New state     43 was old state     44
 New state     44 was old state     55
 New state     45 was old state     68
 New state     46 was old state     25
 New state     47 was old state     28
 New state     48 was old state     30
 New state     49 was old state     31
 New state     50 was old state     32
 Excitation Energies [eV] at current iteration:
 Root      1 :     3.473590504636505
 Root      2 :     3.664278174342419
 Root      3 :     3.778685798005304
 Root      4 :     3.952046264830976
 Root      5 :     4.166606811123097
 Root      6 :     4.173447758639777
 Root      7 :     4.266900513135041
 Root      8 :     4.270788840889481
 Root      9 :     4.359226862346683
 Root     10 :     4.536464685863830
 Root     11 :     4.771008500423230
 Root     12 :     4.777147990509403
 Root     13 :     4.806680356141534
 Root     14 :     4.828367982381531
 Root     15 :     4.837595515848954
 Root     16 :     5.045052916561086
 Root     17 :     5.217645743503638
 Root     18 :     5.222309116012612
 Root     19 :     5.242194596681534
 Root     20 :     5.376837758907674
 Root     21 :     5.415943175481665
 Root     22 :     5.459997506968575
 Root     23 :     5.755025464752761
 Root     24 :     5.932636902309482
 Root     25 :     5.959298594152791
 Root     26 :     5.988211015048758
 Root     27 :     5.998509215981663
 Root     28 :     6.027583260174535
 Root     29 :     6.035471734015193
 Root     30 :     6.040627813800285
 Root     31 :     6.047516310146347
 Root     32 :     6.058839098189989
 Root     33 :     6.137569604637746
 Root     34 :     6.173919162856533
 Root     35 :     6.176498518042083
 Root     36 :     6.191874439144812
 Root     37 :     6.226506315360543
 Root     38 :     6.230659566921173
 Root     39 :     6.252707652969076
 Root     40 :     6.266339861017387
 Root     41 :     6.273827889681169
 Root     42 :     6.290522891133576
 Root     43 :     6.323630779103575
 Root     44 :     6.347151383045783
 Root     45 :     6.347739513609157
 Root     46 :     6.369922091401222
 Root     47 :     6.374243051906371
 Root     48 :     6.382959880786957
 Root     49 :     6.407864356165199
 Root     50 :     6.412937611507288
 Root     51 :     6.418634567352501
 Root     52 :     6.466836814832273
 Root     53 :     6.475801032495952
 Root     54 :     6.500807639312108
 Root     55 :     6.537121828048414
 Root     56 :     6.621643146588429
 Root     57 :     6.798605162718971
 Root     58 :     6.812265264832881
 Root     59 :     6.849185547166146
 Root     60 :     6.855439945719237
 Root     61 :     6.863367011500027
 Root     62 :     6.868600972163541
 Root     63 :     6.920504759353642
 Root     64 :     6.938467956478610
 Root     65 :     6.959362258795067
 Root     66 :     6.982817694566319
 Root     67 :     7.020556986503832
 Root     68 :     7.025562656082258
 Root     69 :     7.048522159141434
 Root     70 :     7.061252002199528
 Root     71 :     7.067051892897692
 Root     72 :     7.072753502898608
 Root     73 :     7.093339269443684
 Root     74 :     7.099740084620679
 Root     75 :     7.106330649662789
 Root     76 :     7.134692003226807
 Root     77 :     7.140123492063391
 Root     78 :     7.146740183675799
 Root     79 :     7.176799278125021
 Root     80 :     7.184999890994464
 Root     81 :     7.191430803434057
 Root     82 :     7.205397831550170
 Root     83 :     7.214989722504157
 Root     84 :     7.294672968981478
 Root     85 :     7.310001682440486
 Root     86 :     7.342665558057102
 Root     87 :     7.343869794939923
 Root     88 :     7.364928357442661
 Root     89 :     7.371585877714774
 Root     90 :     7.380924587382889
 Root     91 :     7.394615762907216
 Root     92 :     7.401075650344525
 Root     93 :     7.409860552551778
 Root     94 :     7.414789324545540
 Root     95 :     7.419803812795430
 Root     96 :     7.425685190832056
 Root     97 :     7.433764106473962
 Root     98 :     7.444069628294963
 Root     99 :     7.466731376705791
 Root    100 :     7.468291848046251
 Root    101 :     7.478592973249609
 Root    102 :     7.481420126217628
 Root    103 :     7.486628650318060
 Root    104 :     7.489964202806921
 Root    105 :     7.513988664097837
 Root    106 :     7.525316894334173
 Root    107 :     7.530317541170058
 Root    108 :     7.535996755622731
 Root    109 :     7.539919830915285
 Root    110 :     7.548409796524475
 Root    111 :     7.552465597963404
 Root    112 :     7.563381135493069
 Root    113 :     7.568199143651200
 Root    114 :     7.571622469574028
 Root    115 :     7.579107829929135
 Root    116 :     7.586506359457092
 Root    117 :     7.590691331977619
 Root    118 :     7.594982442590315
 Root    119 :     7.596297355629878
 Root    120 :     7.612798862907693
 Root    121 :     7.615327152285436
 Root    122 :     7.622968452112738
 Root    123 :     7.624659173112633
 Root    124 :     7.632362745645326
 Root    125 :     7.650803679744717
 Root    126 :     7.655371410844295
 Root    127 :     7.685749288003891
 Root    128 :     7.715068757211331
 Root    129 :     7.720802036759896
 Root    130 :     7.757059308138736
 Root    131 :     7.760954714216595
 Root    132 :     7.773670479564733
 Root    133 :     7.782628215112763
 Root    134 :     7.806134950810008
 Root    135 :     7.824076357299829
 Root    136 :     7.837113287667983
 Root    137 :     7.840662008476303
 Root    138 :     7.842070911770321
 Root    139 :     7.848553116495440
 Root    140 :     7.851758518061062
 Root    141 :     7.892013438173972
 Root    142 :     7.895306111526863
 Root    143 :     7.914663180583855
 Root    144 :     7.927833584364046
 Root    145 :     7.938000574441858
 Root    146 :     7.944822368878480
 Root    147 :     7.948830289654710
 Root    148 :     7.969418238413691
 Root    149 :     7.972569699205943
 Root    150 :     7.985526496617896
 Root    151 :     7.999194489628693
 Root    152 :     8.014027865234072
 Root    153 :     8.045955013283942
 Root    154 :     8.091771021798420
 Root    155 :     8.098294937020606
 Root    156 :     8.116619596429903
 Root    157 :     8.133558005519609
 Root    158 :     8.143585384948031
 Root    159 :     8.182633719747319
 Root    160 :     8.190507427341309
 Root    161 :     8.197275193478898
 Root    162 :     8.205555748002761
 Root    163 :     8.209827766269706
 Root    164 :     8.221271699185696
 Root    165 :     8.228994608950947
 Root    166 :     8.236717619426168
 Root    167 :     8.248099696732170
 Root    168 :     8.258696147036648
 Root    169 :     8.270132221506453
 Root    170 :     8.270883195959966
 Root    171 :     8.305633324725440
 Root    172 :     8.356973957843730
 Root    173 :     8.370814454307439
 Root    174 :     8.374619936751076
 Root    175 :     8.388785899194890
 Root    176 :     8.393114849661723
 Root    177 :     8.398958378744849
 Root    178 :     8.401145596179489
 Root    179 :     8.470522113959989
 Root    180 :     8.480209424928907
 Root    181 :     8.491560243850731
 Root    182 :     8.492569015175636
 Root    183 :     8.500241844459742
 Root    184 :     8.501323242325466
 Root    185 :     8.501874731843079
 Root    186 :     8.502572375650081
 Root    187 :     8.543975823105365
 Root    188 :     8.570543381072277
 Root    189 :     8.596175060130701
 Root    190 :     8.616428340871833
 Root    191 :     8.622399511624595
 Root    192 :     8.630555334124310
 Root    193 :     8.642778216249075
 Root    194 :     8.651003862196724
 Root    195 :     8.685536538731027
 Root    196 :     8.731746978049635
 Root    197 :     8.745059831121527
 Root    198 :     8.771915538308004
 Root    199 :     8.777155882533124
 Root    200 :     8.837303227590379
 Iteration     2 Dimension   300 NMult   200 NNew    100
 CISAX will form   100 AO SS matrices at one time.
 NMat=   100 NSing=   100 JSym2X= 0.
 Root      1 not converged, maximum delta is    0.025808490089708
 Root      2 not converged, maximum delta is    0.045225841537659
 Root      3 not converged, maximum delta is    0.035365398394191
 Root      4 not converged, maximum delta is    0.049962421742207
 Root      5 not converged, maximum delta is    0.049073500465407
 Root      6 not converged, maximum delta is    0.050366230850909
 Root      7 not converged, maximum delta is    0.437773570050334
 Root      8 not converged, maximum delta is    0.343624973452160
 Root      9 not converged, maximum delta is    0.057516172998723
 Root     10 not converged, maximum delta is    0.099541593323658
 Root     11 not converged, maximum delta is    0.353015847104240
 Root     12 not converged, maximum delta is    0.351424076937893
 Root     13 not converged, maximum delta is    0.234889083507081
 New state     14 was old state     15
 Root     14 not converged, maximum delta is    0.269484861245423
 New state     15 was old state     14
 Root     15 not converged, maximum delta is    0.196365883178858
 Root     16 not converged, maximum delta is    0.204862497704093
 New state     17 was old state     18
 Root     17 not converged, maximum delta is    0.214931063072196
 New state     18 was old state     17
 Root     18 not converged, maximum delta is    0.214911290188303
 Root     19 not converged, maximum delta is    0.200663915686393
 Root     20 not converged, maximum delta is    0.054906969940475
 Root     21 not converged, maximum delta is    0.067727309491763
 New state     22 was old state     30
 Root     22 not converged, maximum delta is    0.293247864538456
 New state     23 was old state     22
 Root     23 not converged, maximum delta is    0.034144469238236
 Root     24 not converged, maximum delta is    0.428333422412044
 Root     25 not converged, maximum delta is    0.273725944153920
 Root     26 not converged, maximum delta is    0.214399949794381
 New state     27 was old state     23
 Root     27 not converged, maximum delta is    0.188802003470561
 New state     28 was old state     38
 Root     28 not converged, maximum delta is    0.528189430723219
 New state     29 was old state     37
 Root     29 not converged, maximum delta is    0.178514729836778
 New state     30 was old state     39
 Root     30 not converged, maximum delta is    0.362113474881463
 New state     31 was old state     40
 Root     31 not converged, maximum delta is    0.332712357608856
 New state     32 was old state     42
 Root     32 not converged, maximum delta is    0.215333766324455
 New state     33 was old state     44
 Root     33 not converged, maximum delta is    0.154938278650971
 New state     34 was old state     43
 Root     34 not converged, maximum delta is    0.211147025717411
 New state     35 was old state     55
 Root     35 not converged, maximum delta is    0.317380683156286
 New state     36 was old state     27
 Root     36 not converged, maximum delta is    0.416889440620240
 New state     37 was old state     31
 Root     37 not converged, maximum delta is    0.222442814077237
 New state     38 was old state     28
 Root     38 not converged, maximum delta is    0.183996697674306
 New state     39 was old state     29
 Root     39 not converged, maximum delta is    0.140667441654956
 New state     40 was old state     32
 Root     40 not converged, maximum delta is    0.104566949430042
 New state     41 was old state     33
 Root     41 not converged, maximum delta is    0.112662491539917
 New state     42 was old state     34
 Root     42 not converged, maximum delta is    0.177051930389516
 New state     43 was old state     35
 Root     43 not converged, maximum delta is    0.236089378903399
 New state     44 was old state     36
 Root     44 not converged, maximum delta is    0.124081809609864
 Root     45 not converged, maximum delta is    0.252084634553261
 New state     46 was old state     53
 Root     46 not converged, maximum delta is    0.487064832059189
 New state     47 was old state     41
 Root     47 not converged, maximum delta is    0.104786024702752
 New state     48 was old state     46
 Root     48 not converged, maximum delta is    0.054200144113075
 New state     49 was old state     47
 Root     49 not converged, maximum delta is    0.071894992989939
 New state     50 was old state     48
 Root     50 not converged, maximum delta is    0.112517152417569
 Excitation Energies [eV] at current iteration:
 Root      1 :     3.405596523959581   Change is   -0.067993980676924
 Root      2 :     3.587542008334005   Change is   -0.076736166008414
 Root      3 :     3.729224072424525   Change is   -0.049461725580779
 Root      4 :     3.808306334961269   Change is   -0.143739929869708
 Root      5 :     4.139630361397169   Change is   -0.026976449725928
 Root      6 :     4.146733750224501   Change is   -0.026714008415276
 Root      7 :     4.196478742951392   Change is   -0.070421770183649
 Root      8 :     4.255405138565139   Change is   -0.015383702324342
 Root      9 :     4.270762371640851   Change is   -0.088464490705832
 Root     10 :     4.490363786411780   Change is   -0.046100899452050
 Root     11 :     4.495650972189624   Change is   -0.275357528233605
 Root     12 :     4.503155102000652   Change is   -0.273992888508751
 Root     13 :     4.516378881924884   Change is   -0.290301474216651
 Root     14 :     4.771833235130624   Change is   -0.065762280718330
 Root     15 :     4.779225454834808   Change is   -0.049142527546722
 Root     16 :     4.805201185113174   Change is   -0.239851731447912
 Root     17 :     4.821347840032830   Change is   -0.400961275979782
 Root     18 :     4.824208053927558   Change is   -0.393437689576080
 Root     19 :     4.845410730516812   Change is   -0.396783866164722
 Root     20 :     5.289185717997503   Change is   -0.087652040910170
 Root     21 :     5.327115386995889   Change is   -0.088827788485777
 Root     22 :     5.377890661138377   Change is   -0.662737152661908
 Root     23 :     5.412879287955293   Change is   -0.047118219013283
 Root     24 :     5.488415968115643   Change is   -0.444220934193840
 Root     25 :     5.494283616679517   Change is   -0.465014977473273
 Root     26 :     5.522910025251220   Change is   -0.465300989797538
 Root     27 :     5.662089079913041   Change is   -0.092936384839721
 Root     28 :     5.819178406690868   Change is   -0.411481160230306
 Root     29 :     5.826739962468837   Change is   -0.399766352891706
 Root     30 :     5.841979112726365   Change is   -0.410728540242711
 Root     31 :     5.852625275942509   Change is   -0.413714585074879
 Root     32 :     5.853720861097642   Change is   -0.436802030035934
 Root     33 :     5.874170822097732   Change is   -0.472980560948052
 Root     34 :     5.885165380148206   Change is   -0.438465398955370
 Root     35 :     5.936489969354144   Change is   -0.600631858694270
 Root     36 :     5.959478715328029   Change is   -0.039030500653635
 Root     37 :     5.981313677128298   Change is   -0.066202633018049
 Root     38 :     6.027970011900750   Change is    0.000386751726216
 Root     39 :     6.036599555344329   Change is    0.001127821329137
 Root     40 :     6.054506807164813   Change is   -0.004332291025176
 Root     41 :     6.124749700569517   Change is   -0.012819904068230
 Root     42 :     6.140776012769603   Change is   -0.033143150086931
 Root     43 :     6.162127375709256   Change is   -0.014371142332827
 Root     44 :     6.182175708146852   Change is   -0.009698730997959
 Root     45 :     6.191933948706700   Change is   -0.155805564902458
 Root     46 :     6.194365900129493   Change is   -0.281435132366459
 Root     47 :     6.254801668107461   Change is   -0.019026221573708
 Root     48 :     6.364606176690159   Change is   -0.005315914711063
 Root     49 :     6.368438194949558   Change is   -0.005804856956812
 Root     50 :     6.377207305008610   Change is   -0.005752575778347
 Iteration     3 Dimension   400 NMult   300 NNew    100
 CISAX will form   100 AO SS matrices at one time.
 NMat=   100 NSing=   100 JSym2X= 0.
 Root      1 not converged, maximum delta is    0.003475075435455
 Root      2 not converged, maximum delta is    0.005092563193782
 Root      3 not converged, maximum delta is    0.003081327537441
 Root      4 not converged, maximum delta is    0.006270811070182
 Root      5 not converged, maximum delta is    0.002732576519750
 Root      6 not converged, maximum delta is    0.002826082531321
 Root      7 not converged, maximum delta is    0.008073363349671
 Root      8 not converged, maximum delta is    0.002669826373883
 Root      9 not converged, maximum delta is    0.003399798005719
 New state     10 was old state     11
 Root     10 not converged, maximum delta is    0.252298889074045
 New state     11 was old state     12
 Root     11 not converged, maximum delta is    0.283107876786614
 New state     12 was old state     10
 Root     12 not converged, maximum delta is    0.178096304586528
 Root     13 not converged, maximum delta is    0.027799762985816
 Root     14 not converged, maximum delta is    0.075151008880739
 Root     15 not converged, maximum delta is    0.106186449334352
 Root     16 not converged, maximum delta is    0.110926735620690
 Root     17 not converged, maximum delta is    0.141932247285178
 Root     18 not converged, maximum delta is    0.145981636438388
 Root     19 not converged, maximum delta is    0.079590426452237
 Root     20 not converged, maximum delta is    0.003740997283854
 Root     21 not converged, maximum delta is    0.060298981233408
 Root     22 not converged, maximum delta is    0.093085506967374
 Root     23 not converged, maximum delta is    0.006165528484859
 Root     24 not converged, maximum delta is    0.021190606576012
 Root     25 not converged, maximum delta is    0.025507281824579
 Root     26 not converged, maximum delta is    0.019668166819950
 Root     27 not converged, maximum delta is    0.013327979152705
 Root     28 not converged, maximum delta is    0.216206186051325
 Root     29 not converged, maximum delta is    0.078519444286360
 Root     30 not converged, maximum delta is    0.266469061623243
 New state     31 was old state     34
 Root     31 not converged, maximum delta is    0.230271328878136
 Root     32 not converged, maximum delta is    0.217585850921629
 New state     33 was old state     31
 Root     33 not converged, maximum delta is    0.200337316255830
 New state     34 was old state     33
 Root     34 not converged, maximum delta is    0.067307891292591
 Root     35 not converged, maximum delta is    0.154764465314915
 Root     36 not converged, maximum delta is    0.071879998198290
 Root     37 not converged, maximum delta is    0.087889611725266
 Root     38 not converged, maximum delta is    0.051193343639354
 Root     39 not converged, maximum delta is    0.026331361816781
 Root     40 not converged, maximum delta is    0.020914968125889
 Root     41 not converged, maximum delta is    0.273340274254099
 Root     42 not converged, maximum delta is    0.227055873105011
 Root     43 not converged, maximum delta is    0.151238322466255
 Root     44 not converged, maximum delta is    0.287006455163920
 New state     45 was old state     46
 Root     45 not converged, maximum delta is    0.132553111172561
 New state     46 was old state     45
 Root     46 not converged, maximum delta is    0.306153467332641
 Root     47 not converged, maximum delta is    0.093119243477712
 Root     48 not converged, maximum delta is    0.562888451939530
 Root     49 not converged, maximum delta is    0.433092092725492
 Root     50 not converged, maximum delta is    0.454107893988280
 Excitation Energies [eV] at current iteration:
 Root      1 :     3.402276938536604   Change is   -0.003319585422977
 Root      2 :     3.583588580201799   Change is   -0.003953428132206
 Root      3 :     3.726489409104875   Change is   -0.002734663319650
 Root      4 :     3.801253385372019   Change is   -0.007052949589250
 Root      5 :     4.138651655070746   Change is   -0.000978706326424
 Root      6 :     4.145828622302693   Change is   -0.000905127921809
 Root      7 :     4.191806547398793   Change is   -0.004672195552599
 Root      8 :     4.254775197492218   Change is   -0.000629941072922
 Root      9 :     4.267305491531987   Change is   -0.003456880108864
 Root     10 :     4.477353786168116   Change is   -0.018297186021508
 Root     11 :     4.484743639649841   Change is   -0.018411462350812
 Root     12 :     4.489467611917340   Change is   -0.000896174494440
 Root     13 :     4.498562405642076   Change is   -0.017816476282807
 Root     14 :     4.764780759935485   Change is   -0.007052475195138
 Root     15 :     4.771715506173012   Change is   -0.007509948661797
 Root     16 :     4.793111771821267   Change is   -0.012089413291907
 Root     17 :     4.804665024067496   Change is   -0.016682815965333
 Root     18 :     4.809138466703156   Change is   -0.015069587224402
 Root     19 :     4.828524654284384   Change is   -0.016886076232428
 Root     20 :     5.286570909363404   Change is   -0.002614808634099
 Root     21 :     5.323543274588017   Change is   -0.003572112407871
 Root     22 :     5.348625244371139   Change is   -0.029265416767238
 Root     23 :     5.410091375280376   Change is   -0.002787912674917
 Root     24 :     5.459565282364858   Change is   -0.028850685750784
 Root     25 :     5.466673021381260   Change is   -0.027610595298257
 Root     26 :     5.493861902354217   Change is   -0.029048122897003
 Root     27 :     5.654780744732863   Change is   -0.007308335180178
 Root     28 :     5.755663960147960   Change is   -0.063514446542907
 Root     29 :     5.798676890146907   Change is   -0.028063072321931
 Root     30 :     5.803825906856719   Change is   -0.038153205869646
 Root     31 :     5.810225241063287   Change is   -0.074940139084919
 Root     32 :     5.821262864862807   Change is   -0.032457996234835
 Root     33 :     5.830204354782697   Change is   -0.022420921159812
 Root     34 :     5.837022056601256   Change is   -0.037148765496475
 Root     35 :     5.878745621218799   Change is   -0.057744348135344
 Root     36 :     5.941195459551407   Change is   -0.018283255776621
 Root     37 :     5.972387230220002   Change is   -0.008926446908296
 Root     38 :     6.021415108378054   Change is   -0.006554903522696
 Root     39 :     6.032663416155584   Change is   -0.003936139188746
[...]
 Alpha virt. eigenvalues --    2.43892   2.44292   2.44808   2.45509   2.45662
 Alpha virt. eigenvalues --    2.45799   2.46310   2.46557   2.46859   2.47488
 Alpha virt. eigenvalues --    2.48786   2.49229   2.49629   2.50089   2.50826
 Alpha virt. eigenvalues --    2.50980   2.51252   2.51522   2.52602   2.52805
 Alpha virt. eigenvalues --    2.53130   2.54143   2.55078   2.55447   2.55589
 Alpha virt. eigenvalues --    2.55676   2.56284   2.56439   2.57509   2.57647
 Alpha virt. eigenvalues --    2.57822   2.58712   2.58899   2.59172   2.59603
 Alpha virt. eigenvalues --    2.59842   2.60137   2.61060   2.63397   2.63640
 Alpha virt. eigenvalues --    2.64154   2.64510   2.64797   2.65003   2.65099
 Alpha virt. eigenvalues --    2.65470   2.66315   2.66614   2.66715   2.68854
 Alpha virt. eigenvalues --    2.68938   2.69215   2.69731   2.70094   2.70252
 Alpha virt. eigenvalues --    2.70910   2.71031   2.71121   2.71380   2.71398
 Alpha virt. eigenvalues --    2.71712   2.72265   2.72599   2.72639   2.72776
 Alpha virt. eigenvalues --    2.72877   2.73112   2.73385   2.73417   2.73833
 Alpha virt. eigenvalues --    2.74133   2.74375   2.74444   2.74580   2.74796
 Alpha virt. eigenvalues --    2.75413   2.75775   2.76075   2.76357   2.76560
 Alpha virt. eigenvalues --    2.76781   2.76988   2.77026   2.77480   2.77851
 Alpha virt. eigenvalues --    2.78275   2.78430   2.78660   2.79037   2.79198
 Alpha virt. eigenvalues --    2.79977   2.80287   2.80325   2.80559   2.80575
 Alpha virt. eigenvalues --    2.80773   2.80865   2.80953   2.81048   2.81293
 Alpha virt. eigenvalues --    2.81521   2.81740   2.82066   2.82192   2.82396
 Alpha virt. eigenvalues --    2.82758   2.82924   2.82993   2.83199   2.83493
 Alpha virt. eigenvalues --    2.83617   2.83709   2.84151   2.84853   2.84967
 Alpha virt. eigenvalues --    2.85722   2.85839   2.85997   2.86053   2.86845
 Alpha virt. eigenvalues --    2.87286   2.87372   2.88120   2.88177   2.88829
 Alpha virt. eigenvalues --    2.88953   2.89171   2.89684   2.90009   2.90205
 Alpha virt. eigenvalues --    2.90406   2.90530   2.90645   2.91240   2.91380
 Alpha virt. eigenvalues --    2.91818   2.92084   2.92478   2.92561   2.93175
 Alpha virt. eigenvalues --    2.93322   2.93591   2.93685   2.93937   2.94030
 Alpha virt. eigenvalues --    2.94296   2.94642   2.95109   2.95284   2.95546
 Alpha virt. eigenvalues --    2.95941   2.96261   2.96772   2.96926   2.97526
 Alpha virt. eigenvalues --    2.98507   2.99003   2.99809   2.99879   2.99923
 Alpha virt. eigenvalues --    3.00501   3.00778   3.01304   3.01571   3.01661
 Alpha virt. eigenvalues --    3.01715   3.02060   3.02285   3.02633   3.02844
 Alpha virt. eigenvalues --    3.03392   3.03550   3.03630   3.04236   3.04686
 Alpha virt. eigenvalues --    3.04807   3.05068   3.05164   3.05441   3.05781
 Alpha virt. eigenvalues --    3.06126   3.06552   3.06754   3.07234   3.07774
 Alpha virt. eigenvalues --    3.08046   3.08762   3.09574   3.09691   3.10365
 Alpha virt. eigenvalues --    3.10444   3.10685   3.10804   3.11546   3.11825
 Alpha virt. eigenvalues --    3.11907   3.12676   3.12800   3.13150   3.13420
 Alpha virt. eigenvalues --    3.13441   3.13895   3.14188   3.14277   3.14425
 Alpha virt. eigenvalues --    3.14673   3.14827   3.14860   3.15946   3.16157
 Alpha virt. eigenvalues --    3.16357   3.16404   3.16824   3.17810   3.17999
 Alpha virt. eigenvalues --    3.18369   3.18951   3.19784   3.20473   3.21097
 Alpha virt. eigenvalues --    3.21148   3.21245   3.21684   3.21908   3.22050
 Alpha virt. eigenvalues --    3.22240   3.22636   3.22881   3.23096   3.23344
 Alpha virt. eigenvalues --    3.23668   3.23924   3.24179   3.24338   3.24684
 Alpha virt. eigenvalues --    3.24766   3.24797   3.25083   3.25405   3.25443
 Alpha virt. eigenvalues --    3.25970   3.26252   3.26448   3.26668   3.26810
 Alpha virt. eigenvalues --    3.26875   3.27195   3.27546   3.27732   3.27833
 Alpha virt. eigenvalues --    3.27947   3.28241   3.28788   3.28954   3.29101
 Alpha virt. eigenvalues --    3.29552   3.29651   3.30661   3.31019   3.31227
 Alpha virt. eigenvalues --    3.31382   3.32072   3.32164   3.32708   3.33038
 Alpha virt. eigenvalues --    3.33275   3.33414   3.33932   3.34263   3.34479
 Alpha virt. eigenvalues --    3.34564   3.34860   3.35092   3.35340   3.35705
 Alpha virt. eigenvalues --    3.36039   3.36293   3.37117   3.37173   3.37624
 Alpha virt. eigenvalues --    3.37766   3.38447   3.38657   3.38933   3.39117
 Alpha virt. eigenvalues --    3.39212   3.39509   3.39715   3.40218   3.40796
 Alpha virt. eigenvalues --    3.40994   3.41052   3.41265   3.41899   3.42104
 Alpha virt. eigenvalues --    3.42136   3.42259   3.42572   3.42663   3.42966
 Alpha virt. eigenvalues --    3.43257   3.43670   3.43843   3.44009   3.44345
 Alpha virt. eigenvalues --    3.45140   3.45234   3.45300   3.45617   3.46101
 Alpha virt. eigenvalues --    3.46164   3.46856   3.46927   3.47226   3.47291
 Alpha virt. eigenvalues --    3.47896   3.48028   3.48129   3.48245   3.48436
 Alpha virt. eigenvalues --    3.48857   3.48933   3.49234   3.49410   3.49543
 Alpha virt. eigenvalues --    3.50155   3.50353   3.50717   3.51183   3.51864
 Alpha virt. eigenvalues --    3.52073   3.52247   3.53210   3.53790   3.53840
 Alpha virt. eigenvalues --    3.54361   3.54856   3.54992   3.55922   3.56209
 Alpha virt. eigenvalues --    3.56387   3.56677   3.56897   3.57554   3.57619
 Alpha virt. eigenvalues --    3.57696   3.58067   3.58484   3.58761   3.58803
 Alpha virt. eigenvalues --    3.59083   3.59141   3.59565   3.59925   3.60057
 Alpha virt. eigenvalues --    3.60243   3.60366   3.60698   3.60823   3.60932
 Alpha virt. eigenvalues --    3.61295   3.61452   3.61748   3.61877   3.62105
 Alpha virt. eigenvalues --    3.63208   3.63268   3.64217   3.64349   3.64812
 Alpha virt. eigenvalues --    3.65008   3.65052   3.65510   3.65918   3.66217
 Alpha virt. eigenvalues --    3.66407   3.66525   3.66595   3.66713   3.67004
 Alpha virt. eigenvalues --    3.67125   3.67987   3.68068   3.68401   3.69390
 Alpha virt. eigenvalues --    3.69719   3.69976   3.70012   3.70229   3.70353
 Alpha virt. eigenvalues --    3.70424   3.70468   3.71426   3.71969   3.72351
 Alpha virt. eigenvalues --    3.72665   3.72743   3.73130   3.73540   3.74189
 Alpha virt. eigenvalues --    3.74650   3.75142   3.75714   3.76010   3.76931
 Alpha virt. eigenvalues --    3.77440   3.77863   3.78136   3.81175   3.83509
 Alpha virt. eigenvalues --    3.84442   3.84695   3.85446   3.86552   3.87347
 Alpha virt. eigenvalues --    3.88024   3.88065   3.88461   3.89189   3.89555
 Alpha virt. eigenvalues --    3.89630   3.90070   3.90103   3.90271   3.90498
 Alpha virt. eigenvalues --    3.91890   3.92756   3.94347   3.94588   3.95562
 Alpha virt. eigenvalues --    3.95679   3.96214   3.97177   3.97629   3.98487
 Alpha virt. eigenvalues --    3.98848   3.99643   4.00230   4.00379   4.01926
 Alpha virt. eigenvalues --    4.02003   4.02520   4.02623   4.02740   4.02779
 Alpha virt. eigenvalues --    4.03114   4.03431   4.03485   4.03771   4.04179
 Alpha virt. eigenvalues --    4.04512   4.04714   4.05107   4.05447   4.06291
 Alpha virt. eigenvalues --    4.06908   4.07018   4.07227   4.08149   4.08939
 Alpha virt. eigenvalues --    4.09267   4.09552   4.10261   4.10957   4.11314
 Alpha virt. eigenvalues --    4.11722   4.12332   4.13656   4.14263   4.15536
 Alpha virt. eigenvalues --    4.16804   4.17041   4.17294   4.18312   4.18567
 Alpha virt. eigenvalues --    4.18822   4.18971   4.19501   4.19708   4.19789
 Alpha virt. eigenvalues --    4.20117   4.20523   4.20873   4.21029   4.21187
 Alpha virt. eigenvalues --    4.21605   4.22539   4.23922   4.23981   4.24362
 Alpha virt. eigenvalues --    4.24511   4.24743   4.25057   4.25668   4.25783
 Alpha virt. eigenvalues --    4.26703   4.27186   4.27388   4.28224   4.28250
 Alpha virt. eigenvalues --    4.28359   4.28593   4.28830   4.28882   4.28916
 Alpha virt. eigenvalues --    4.29210   4.29637   4.30153   4.30241   4.30555
 Alpha virt. eigenvalues --    4.30657   4.30829   4.31944   4.32107   4.32561
 Alpha virt. eigenvalues --    4.32804   4.34645   4.34811   4.35007   4.35495
 Alpha virt. eigenvalues --    4.35636   4.36353   4.36882   4.37437   4.38014
 Alpha virt. eigenvalues --    4.38077   4.38795   4.39126   4.39584   4.39747
 Alpha virt. eigenvalues --    4.40428   4.40952   4.41160   4.41356   4.41666
 Alpha virt. eigenvalues --    4.42005   4.42260   4.42974   4.43666   4.44277
 Alpha virt. eigenvalues --    4.44743   4.45400   4.46522   4.47308   4.47490
 Alpha virt. eigenvalues --    4.49270   4.49466   4.49657   4.51564   4.51686
 Alpha virt. eigenvalues --    4.51964   4.52091   4.53274   4.53797   4.56822
 Alpha virt. eigenvalues --    4.57464   4.58095   4.59506   4.60149   4.61511
 Alpha virt. eigenvalues --    4.63209   4.63435   4.64073   4.64189   4.64683
 Alpha virt. eigenvalues --    4.64819   4.65326   4.65920   4.66866   4.67118
 Alpha virt. eigenvalues --    4.67494   4.67628   4.68357   4.69704   4.69899
 Alpha virt. eigenvalues --    4.71111   4.71740   4.72132   4.73760   4.74228
 Alpha virt. eigenvalues --    4.75945   4.76272   4.77225   4.78969   4.79504
 Alpha virt. eigenvalues --    4.79984   4.80148   4.80466   4.80919   4.81330
 Alpha virt. eigenvalues --    4.81860   4.82830   4.83041   4.83098   4.83403
 Alpha virt. eigenvalues --    4.83795   4.87155   4.87252   4.87709   4.88178
 Alpha virt. eigenvalues --    4.88332   4.89508   4.90765   4.91365   4.91459
 Alpha virt. eigenvalues --    4.91540   4.91637   4.92510   4.93024   4.93471
 Alpha virt. eigenvalues --    4.94461   4.94705   4.97304   4.98571   4.98861
 Alpha virt. eigenvalues --    5.00087   5.00778   5.02233   5.04382   5.04747
 Alpha virt. eigenvalues --    5.05066   5.05558   5.06314   5.06782   5.07265
 Alpha virt. eigenvalues --    5.08356   5.09080   5.09381   5.09819   5.11296
 Alpha virt. eigenvalues --    5.12909   5.13950   5.14514   5.15277   5.15428
 Alpha virt. eigenvalues --    5.16202   5.16890   5.16995   5.20104   5.20568
 Alpha virt. eigenvalues --    5.22296   5.23446   5.23758   5.25389   5.25559
 Alpha virt. eigenvalues --    5.26077   5.26507   5.26899   5.27622   5.28573
 Alpha virt. eigenvalues --    5.30306   5.31550   5.32320   5.33998   5.34231
 Alpha virt. eigenvalues --    5.36997   5.39498   5.40620   5.41462   5.42113
 Alpha virt. eigenvalues --    5.43269   5.43430   5.44357   5.44908   5.45025
 Alpha virt. eigenvalues --    5.45532   5.45630   5.45794   5.46413   5.46747
 Alpha virt. eigenvalues --    5.49700   5.52347   5.54164   5.54588   5.55459
 Alpha virt. eigenvalues --    5.58473   5.61637   5.62184   5.64420   5.66135
 Alpha virt. eigenvalues --    5.67516   5.67962   5.68239   5.68962   5.69184
 Alpha virt. eigenvalues --    5.69987   5.70774   5.71400   5.72600   5.73205
 Alpha virt. eigenvalues --    5.76287   5.77616   5.80042   5.81601   5.81889
 Alpha virt. eigenvalues --    5.85427   5.85929   5.86506   5.86852   5.87141
 Alpha virt. eigenvalues --    5.88294   5.89359   5.90489   5.91057   5.92881
 Alpha virt. eigenvalues --    5.96119   6.01302   6.01449   6.03080   6.05529
 Alpha virt. eigenvalues --    6.16523   6.23985   6.27758   6.29478   6.30171
 Alpha virt. eigenvalues --    6.40408   6.42163   6.45239   6.53851   6.56373
 Alpha virt. eigenvalues --    6.59118   6.59923  10.83297  11.04966  11.50186
 Alpha virt. eigenvalues --   22.29653  22.30681  22.34198  22.53383  22.53949
 Alpha virt. eigenvalues --   22.54504  22.65127  22.67569  22.67874  22.67912
 Alpha virt. eigenvalues --   22.71947  22.72658  22.73434  22.73699  22.74233
 Alpha virt. eigenvalues --   22.75354  22.80931  22.81102  22.81958  22.84129
 Alpha virt. eigenvalues --   22.84769  22.85500  23.00735  23.01475  23.01723
 Alpha virt. eigenvalues --   23.03017  23.08745  23.09452  23.09689  23.20702
 Alpha virt. eigenvalues --   23.28386  23.28756  23.29731  23.29944  23.31679
 Alpha virt. eigenvalues --   23.61697  23.62547  23.62748  23.63497  23.86859
 Alpha virt. eigenvalues --   23.87535  23.87700  23.90249  24.01539  26.58884
 Alpha virt. eigenvalues --   32.30838  32.31669  33.45053  33.47445  33.50643
          Condensed to atoms (all electrons):
 Mulliken charges:
               1
     1  C   -0.045488
     2  C    0.083102
     3  C   -0.016662
     4  C    0.194328
     5  C   -0.029143
     6  C    0.217615
     7  C   -0.194187
     8  C   -0.203892
     9  N    0.029793
    10  N    0.029318
    11  N    0.016281
    12  C    0.109460
    13  C    0.107643
    14  C   -0.259637
    15  C    0.009283
    16  C   -0.259983
    17  C    0.008431
    18  C   -0.151410
    19  H    0.179027
    20  C   -0.227890
    21  C   -0.150884
    22  H    0.186751
    23  C   -0.228760
    24  C   -0.172657
    25  H    0.167019
    26  H    0.166584
    27  C   -0.174231
    28  H    0.166379
    29  H    0.166826
    30  H    0.163301
    31  H    0.163105
    32  N    0.012924
    33  C    0.106178
    34  C    0.108966
    35  C   -0.262069
    36  C    0.006775
    37  C   -0.257248
    38  C    0.002635
    39  C   -0.150820
    40  H    0.191182
    41  C   -0.226506
    42  C   -0.151058
    43  H    0.182894
    44  C   -0.225949
    45  C   -0.175404
    46  H    0.166550
    47  H    0.166864
    48  C   -0.173921
    49  H    0.167023
    50  H    0.166710
    51  H    0.163095
    52  H    0.163395
    53  N    0.001093
    54  C    0.109455
    55  C    0.108497
    56  C   -0.269882
    57  C   -0.000933
    58  C   -0.270010
    59  C   -0.001099
    60  C   -0.142600
    61  H    0.190412
    62  C   -0.221679
    63  C   -0.144150
    64  H    0.192253
    65  C   -0.220554
    66  C   -0.178335
    67  H    0.166948
    68  H    0.166958
    69  C   -0.178410
    70  H    0.166837
    71  H    0.166990
    72  H    0.163351
    73  H    0.163277
    74  Cl  -0.000061
 Sum of Mulliken charges =  -0.00000
 Mulliken charges with hydrogens summed into heavy atoms:
               1
     1  C   -0.045488
     2  C    0.083102
     3  C   -0.016662
     4  C    0.194328
     5  C   -0.029143
     6  C    0.217615
     7  C   -0.194187
     8  C   -0.203892
     9  N    0.029793
    10  N    0.029318
    11  N    0.016281
    12  C    0.109460
    13  C    0.107643
    14  C   -0.080610
    15  C    0.009283
    16  C   -0.073232
    17  C    0.008431
    18  C    0.015610
    20  C   -0.061305
    21  C    0.015495
    23  C   -0.061933
    24  C   -0.009356
    27  C   -0.011126
    32  N    0.012924
    33  C    0.106178
    34  C    0.108966
    35  C   -0.070886
    36  C    0.006775
    37  C   -0.074353
    38  C    0.002635
    39  C    0.015730
    41  C   -0.059642
    42  C    0.015965
    44  C   -0.059239
    45  C   -0.012310
    48  C   -0.010525
    53  N    0.001093
    54  C    0.109455
    55  C    0.108497
    56  C   -0.079469
    57  C   -0.000933
    58  C   -0.077757
    59  C   -0.001099
    60  C    0.024348
    62  C   -0.054721
    63  C    0.022688
    65  C   -0.053564
    66  C   -0.014985
    69  C   -0.015133
    74  Cl  -0.000061
 Electronic spatial extent (au):  <R**2>=          27652.5182
 Charge=             -0.0000 electrons
 Dipole moment (field-independent basis, Debye):
    X=              0.4386    Y=             -3.6033    Z=              0.0641  Tot=              3.6305
 Quadrupole moment (field-independent basis, Debye-Ang):
   XX=           -309.6466   YY=           -292.4350   ZZ=           -263.8101
   XY=             -3.2456   XZ=            -18.7793   YZ=             -1.4067
 Traceless Quadrupole moment (field-independent basis, Debye-Ang):
   XX=            -21.0160   YY=             -3.8044   ZZ=             24.8205
   XY=             -3.2456   XZ=            -18.7793   YZ=             -1.4067
 Octapole moment (field-independent basis, Debye-Ang**2):
  XXX=             95.2425  YYY=            111.6531  ZZZ=              1.6591  XYY=            -90.0333
  XXY=           -212.1674  XXZ=             30.1627  XZZ=              8.2803  YZZ=            -24.4863
  YYZ=            -29.4241  XYZ=            -74.1399
 Hexadecapole moment (field-independent basis, Debye-Ang**3):
 XXXX=         -16019.8087 YYYY=         -14883.8366 ZZZZ=          -5988.0073 XXXY=             -5.9766
 XXXZ=           -274.4843 YYYX=            -91.1855 YYYZ=             -5.5439 ZZZX=           -209.0465
 ZZZY=            -17.4982 XXYY=          -5250.9139 XXZZ=          -3557.0313 YYZZ=          -3515.4877
 XXYZ=            -17.8087 YYXZ=            -32.4936 ZZXY=             -5.7891
 N-N= 6.271800121906D+03 E-N=-1.819780798957D+04  KE= 2.415954988700D+03
 Leave Link  601 at Sat Jul  2 15:19:20 2022, MaxMem=  5242880000 cpu:        14.6
 (Enter /opt/nce/packages/global/g09/l9999.exe)
 1\1\GINC-CN036\SP\RCAM-B3LYP TD-FC\def2TZVP\C44H24Cl1N5\PNG4RJV\02-Jul
 -2022\0\\#p cam-b3lyp/def2TZVP td=(NStates=50) int=ultrafine scrf=(SMD
 ,solvent=Acetonitrile) EmpiricalDispersion=GD3BJ\\Title\\0,1\C,0,1.293
 716,-0.508322,0.154838\C,0,0.2133,-1.372541,0.018574\C,0,-1.073391,-0.
 870594,-0.148099\C,0,-1.265712,0.510197,-0.188848\C,0,-0.203229,1.3933
 52,-0.026426\C,0,1.072653,0.868417,0.150069\C,0,-2.574603,1.022184,-0.
 445695\C,0,2.174852,1.748703,0.375232\N,0,-3.620345,1.43323,-0.66129\N
 ,0,3.055222,2.45481,0.563397\N,0,2.595337,-0.995935,0.327151\C,0,3.120
 181,-1.509854,1.509891\C,0,3.571353,-1.05946,-0.664646\C,0,2.516374,-1
 .639096,2.749906\C,0,4.447803,-1.902005,1.277858\C,0,3.493419,-0.67677
 1,-1.993744\C,0,4.735877,-1.615155,-0.11173\C,0,3.275185,-2.181488,3.7
 70895\H,0,1.493008,-1.32883,2.914547\C,0,5.190336,-2.442329,2.320841\C
 ,0,4.622776,-0.854412,-2.772033\H,0,2.586963,-0.25612,-2.407935\C,0,5.
 857163,-1.78444,-0.914857\C,0,4.597223,-2.579783,3.561875\H,0,2.833451
 ,-2.298216,4.751855\H,0,6.216124,-2.749341,2.162344\C,0,5.793154,-1.40
 0487,-2.241337\H,0,4.596137,-0.564108,-3.814161\H,0,6.764569,-2.210927
 ,-0.507026\H,0,5.161787,-2.999657,4.383707\H,0,6.658096,-1.525255,-2.8
 79145\N,0,-2.171449,-1.724556,-0.299553\C,0,-3.135514,-1.982256,0.6734
 09\C,0,-2.476676,-2.460174,-1.44224\C,0,-3.231105,-1.485309,1.962869\C
 ,0,-4.067858,-2.891266,0.149613\C,0,-1.809686,-2.505943,-2.655399\C,0,
 -3.647761,-3.19532,-1.202355\C,0,-4.298659,-1.914488,2.730307\H,0,-2.5
 0261,-0.788677,2.355394\C,0,-5.130611,-3.308924,0.941317\C,0,-2.339541
 ,-3.320311,-3.639537\H,0,-0.911732,-1.928109,-2.82915\C,0,-4.161654,-4
 .005016,-2.208037\C,0,-5.239714,-2.815293,2.227986\H,0,-4.403963,-1.54
 3692,3.741449\H,0,-5.859453,-4.009971,0.555472\C,0,-3.501419,-4.063486
 ,-3.421079\H,0,-1.842381,-3.38029,-4.598847\H,0,-5.064875,-4.578217,-2
 .04306\H,0,-6.062047,-3.13058,2.856309\H,0,-3.888899,-4.689283,-4.2139
 77\N,0,-0.41565,2.775284,-0.036514\C,0,0.004108,3.660899,-1.030518\C,0
 ,-1.095015,3.494939,0.947733\C,0,0.692007,3.39941,-2.204124\C,0,-0.408
 613,4.955214,-0.679485\C,0,-1.66914,3.041149,2.12382\C,0,-1.109315,4.8
 49303,0.582881\C,0,0.975823,4.474205,-3.026844\H,0,0.997452,2.397087,-
 2.471734\C,0,-0.113408,6.018754,-1.52338\C,0,-2.27845,3.980044,2.93609
 6\H,0,-1.643542,1.996163,2.401071\C,0,-1.725866,5.774251,1.416455\C,0,
 0.580793,5.770702,-2.69252\H,0,1.514728,4.303272,-3.949499\H,0,-0.4248
 7,7.02348,-1.268365\C,0,-2.309913,5.331728,2.58844\H,0,-2.738839,3.657
 366,3.860645\H,0,-1.745863,6.82343,1.151245\H,0,0.819391,6.588103,-3.3
 59882\H,0,-2.795037,6.039108,3.247758\Cl,0,0.469008,-3.067067,0.063577
 \\Version=ES64L-G09RevE.01\State=1-A\HF=-2424.9371877\RMSD=4.306e-09\P
 G=C01 [X(C44H24Cl1N5)]\\@


 IMAGINATION WILL OFTEN CARRY US TO WORLDS THAT NEVER WERE.
 BUT WITHOUT IT, WE GO NOWHERE. -- CARL SAGAN (COSMOS)
 Job cpu time:      12 days  8 hours  7 minutes 10.0 seconds.
 File lengths (MBytes):  RWF=  19686 Int=      0 D2E=      0 Chk=   4019 Scr=      1
 Normal termination of Gaussian 09 at Sat Jul  2 15:19:27 2022.
