 Entering Gaussian System, Link 0=g09
 Input=/home/png4rjv/fotokatalizis/benchmark/OPCs/CA_50_states/CA_3_wB97XD_def2TZVP.gjf
 Output=/home/png4rjv/fotokatalizis/benchmark/OPCs/CA_50_states/CA_3_wB97XD_def2TZVP.log
 Initial command:
 /opt/nce/packages/global/g09/l1.exe "/home/png4rjv/fotokatalizis/benchmark/OPCs/CA_50_states/CA_3_wB97XD_def2TZVP/Gau-32869.inp" -scrdir="/home/png4rjv/fotokatalizis/benchmark/OPCs/CA_50_states/CA_3_wB97XD_def2TZVP/"
 Default is to use a total of  12 processors:
                               12 via shared-memory
                                1 via Linda
 Entering Link 1 = /opt/nce/packages/global/g09/l1.exe PID=     32870.
  
 Copyright (c) 1988,1990,1992,1993,1995,1998,2003,2009,2015,
            Gaussian, Inc.  All Rights Reserved.
  
 This is part of the Gaussian(R) 09 program.  It is based on
 the Gaussian(R) 03 system (copyright 2003, Gaussian, Inc.),
 the Gaussian(R) 98 system (copyright 1998, Gaussian, Inc.),
 the Gaussian(R) 94 system (copyright 1995, Gaussian, Inc.),
 the Gaussian 92(TM) system (copyright 1992, Gaussian, Inc.),
 the Gaussian 90(TM) system (copyright 1990, Gaussian, Inc.),
 the Gaussian 88(TM) system (copyright 1988, Gaussian, Inc.),
 the Gaussian 86(TM) system (copyright 1986, Carnegie Mellon
 University), and the Gaussian 82(TM) system (copyright 1983,
 Carnegie Mellon University). Gaussian is a federally registered
 trademark of Gaussian, Inc.
  
 This software contains proprietary and confidential information,
 including trade secrets, belonging to Gaussian, Inc.
  
 This software is provided under written license and may be
 used, copied, transmitted, or stored only in accord with that
 written license.
  
 The following legend is applicable only to US Government
 contracts under FAR:
  
                    RESTRICTED RIGHTS LEGEND
  
 Use, reproduction and disclosure by the US Government is
 subject to restrictions as set forth in subparagraphs (a)
 and (c) of the Commercial Computer Software - Restricted
 Rights clause in FAR 52.227-19.
  
 Gaussian, Inc.
 340 Quinnipiac St., Bldg. 40, Wallingford CT 06492
  
  
 ---------------------------------------------------------------
 Warning -- This program may not be used in any manner that
 competes with the business of Gaussian, Inc. or will provide
 assistance to any competitor of Gaussian, Inc.  The licensee
 of this program is prohibited from giving any competitor of
 Gaussian, Inc. access to this program.  By using this program,
 the user acknowledges that Gaussian, Inc. is engaged in the
 business of creating and licensing software in the field of
 computational chemistry and represents and warrants to the
 licensee that it is not a competitor of Gaussian, Inc. and that
 it will not use this program in any manner prohibited above.
 ---------------------------------------------------------------
  

 Cite this work as:
 Gaussian 09, Revision E.01,
 M. J. Frisch, G. W. Trucks, H. B. Schlegel, G. E. Scuseria, 
 M. A. Robb, J. R. Cheeseman, G. Scalmani, V. Barone, B. Mennucci, 
 G. A. Petersson, H. Nakatsuji, M. Caricato, X. Li, H. P. Hratchian, 
 A. F. Izmaylov, J. Bloino, G. Zheng, J. L. Sonnenberg, M. Hada, 
 M. Ehara, K. Toyota, R. Fukuda, J. Hasegawa, M. Ishida, T. Nakajima, 
 Y. Honda, O. Kitao, H. Nakai, T. Vreven, J. A. Montgomery, Jr., 
 J. E. Peralta, F. Ogliaro, M. Bearpark, J. J. Heyd, E. Brothers, 
 K. N. Kudin, V. N. Staroverov, T. Keith, R. Kobayashi, J. Normand, 
 K. Raghavachari, A. Rendell, J. C. Burant, S. S. Iyengar, J. Tomasi, 
 M. Cossi, N. Rega, J. M. Millam, M. Klene, J. E. Knox, J. B. Cross, 
 V. Bakken, C. Adamo, J. Jaramillo, R. Gomperts, R. E. Stratmann, 
 O. Yazyev, A. J. Austin, R. Cammi, C. Pomelli, J. W. Ochterski, 
 R. L. Martin, K. Morokuma, V. G. Zakrzewski, G. A. Voth, 
 P. Salvador, J. J. Dannenberg, S. Dapprich, A. D. Daniels, 
 O. Farkas, J. B. Foresman, J. V. Ortiz, J. Cioslowski, 
 and D. J. Fox, Gaussian, Inc., Wallingford CT, 2013.
 
 ******************************************
 Gaussian 09:  ES64L-G09RevE.01 30-Nov-2015
                 2-Jul-2022 
 ******************************************
 %chk=cp.chk
 Default route:  MaxDisk=500GB
 ----------------------------------------------------------------------
 #p wB97XD/def2TZVP td=(NStates=50) int=ultrafine scrf=(SMD,solvent=Ace
 tonitrile)
 ----------------------------------------------------------------------
 1/38=1/1;
 2/12=2,17=6,18=5,40=1/2;
 3/5=44,7=101,11=9,16=1,25=1,30=1,70=32201,72=2,74=-58,75=-5/1,2,8,3;
 4//1;
 5/5=2,38=5,53=2/2;
 8/6=1,10=1,108=50/1;
 9/41=50,42=1,70=2/14;
 6/7=2,8=2,9=2,10=2/1;
 99/5=1,9=1/99;
 Leave Link    1 at Sat Jul  2 00:24:53 2022, MaxMem=           0 cpu:         1.9
 (Enter /opt/nce/packages/global/g09/l101.exe)
 -----
 Title
 -----
 Symbolic Z-matrix:
 Charge =  0 Multiplicity = 1
 C                     1.28748  -0.55194   0.15647 
 C                     0.18762  -1.39545   0.02544 
 C                    -1.09015  -0.86558  -0.14254 
 C                    -1.25248   0.52083  -0.18899 
 C                    -0.17068   1.38395  -0.0302 
 C                     1.09515   0.83081   0.14697 
 C                    -2.55234   1.05948  -0.44615 
 C                     2.21917   1.68758   0.36521 
 N                    -3.59256   1.49226  -0.66174 
 N                     3.11881   2.37552   0.54739 
 N                     2.57976  -1.06408   0.32964 
 C                     3.10288  -1.56318   1.51751 
 C                     3.55381  -1.14512  -0.66021 
 C                     2.49696  -1.66864   2.76149 
 C                     4.42762  -1.96806   1.29038 
 C                     3.47454  -0.77442  -1.99515 
 C                     4.71582  -1.7017   -0.10287 
 C                     3.25411  -2.20152   3.79061 
 H                     1.47515  -1.34733   2.92157 
 C                     5.16881  -2.49894   2.34153 
 C                     4.60279  -0.96812  -2.77369 
 H                     2.56872  -0.35164  -2.4114 
 C                     5.83636  -1.88791  -0.90645 
 C                     4.57483  -2.61327   3.5863 
 H                     2.81236  -2.29991   4.77444 
 H                     6.19291  -2.81546   2.18564 
 C                     5.77197  -1.51744  -2.23844 
 H                     4.57648  -0.68833  -3.81951 
 H                     6.74199  -2.31583  -0.49421 
 H                     5.13739  -3.02478   4.41473 
 H                     6.63544  -1.65487  -2.87695 
 N                    -2.20799  -1.69442  -0.28857 
 C                    -3.19236  -1.89887   0.67446 
 C                    -2.53295  -2.42762  -1.42568 
 C                    -3.28066  -1.37727   1.95729 
 C                    -4.15586  -2.77591   0.15284 
 C                    -1.85601  -2.5095   -2.63424 
 C                    -3.73504  -3.1126   -1.19074 
 C                    -4.37483  -1.75131   2.71866 
 H                    -2.52765  -0.70395   2.34734 
 C                    -5.24491  -3.13951   0.93858 
 C                    -2.41033  -3.31183  -3.61681 
 H                    -0.93416  -1.9674   -2.80486 
 C                    -4.27339  -3.91162  -2.19464 
 C                    -5.34749  -2.62204   2.21813 
 H                    -4.47627  -1.36074   3.72358 
 H                    -5.9977   -3.81611   0.55298 
 C                    -3.60427  -4.00744  -3.40225 
 H                    -1.90763  -3.39948  -4.57198 
 H                    -5.20136  -4.44604  -2.03188 
 H                    -6.1895   -2.8941    2.84192 
 H                    -4.00973  -4.6246   -4.19398 
 N                    -0.35367   2.76989  -0.04609 
 C                     0.10013   3.6438   -1.03366 
 C                    -1.03395   3.50549   0.92366 
 C                     0.80275   3.36278  -2.19693 
 C                    -0.29142   4.94751  -0.6935 
 C                    -1.63738   3.0638    2.09257 
 C                    -1.01485   4.85919   0.55686 
 C                     1.12222   4.43038  -3.01837 
 H                     1.09157   2.35243  -2.45716 
 C                     0.03909   6.00411  -1.53595 
 C                    -2.24155   4.01781   2.8934 
 H                    -1.6374    2.01797   2.37236 
 C                    -1.62658   5.80016   1.37895 
 C                     0.74787   5.73755  -2.6941 
 H                     1.67276   4.24524  -3.9323 
 H                    -0.25684   7.016    -1.28767 
 C                    -2.23965   5.37112   2.54294 
 H                    -2.72418   3.70595   3.81122 
 H                    -1.6199    6.84944   1.11042 
 H                     1.0143    6.54816  -3.36046 
 H                    -2.7215    6.08982   3.19362 
 Cl                    0.40807  -3.09565   0.08094 
 
 NAtoms=     74 NQM=       74 NQMF=       0 NMMI=      0 NMMIF=      0
                NMic=       0 NMicF=      0.
                    Isotopes and Nuclear Properties:
 (Nuclear quadrupole moments (NQMom) in fm**2, nuclear magnetic moments (NMagM)
  in nuclear magnetons)

  Atom         1           2           3           4           5           6           7           8           9          10
 IAtWgt=          12          12          12          12          12          12          12          12          14          14
 AtmWgt=  12.0000000  12.0000000  12.0000000  12.0000000  12.0000000  12.0000000  12.0000000  12.0000000  14.0030740  14.0030740
 NucSpn=           0           0           0           0           0           0           0           0           2           2
 AtZEff=   0.0000000   0.0000000   0.0000000   0.0000000   0.0000000   0.0000000   0.0000000   0.0000000   0.0000000   0.0000000
 NQMom=    0.0000000   0.0000000   0.0000000   0.0000000   0.0000000   0.0000000   0.0000000   0.0000000   2.0440000   2.0440000
 NMagM=    0.0000000   0.0000000   0.0000000   0.0000000   0.0000000   0.0000000   0.0000000   0.0000000   0.4037610   0.4037610
 AtZNuc=   6.0000000   6.0000000   6.0000000   6.0000000   6.0000000   6.0000000   6.0000000   6.0000000   7.0000000   7.0000000

  Atom        11          12          13          14          15          16          17          18          19          20
 IAtWgt=          14          12          12          12          12          12          12          12           1          12
 AtmWgt=  14.0030740  12.0000000  12.0000000  12.0000000  12.0000000  12.0000000  12.0000000  12.0000000   1.0078250  12.0000000
 NucSpn=           2           0           0           0           0           0           0           0           1           0
 AtZEff=   0.0000000   0.0000000   0.0000000   0.0000000   0.0000000   0.0000000   0.0000000   0.0000000   0.0000000   0.0000000
 NQMom=    2.0440000   0.0000000   0.0000000   0.0000000   0.0000000   0.0000000   0.0000000   0.0000000   0.0000000   0.0000000
 NMagM=    0.4037610   0.0000000   0.0000000   0.0000000   0.0000000   0.0000000   0.0000000   0.0000000   2.7928460   0.0000000
 AtZNuc=   7.0000000   6.0000000   6.0000000   6.0000000   6.0000000   6.0000000   6.0000000   6.0000000   1.0000000   6.0000000

  Atom        21          22          23          24          25          26          27          28          29          30
 IAtWgt=          12           1          12          12           1           1          12           1           1           1
 AtmWgt=  12.0000000   1.0078250  12.0000000  12.0000000   1.0078250   1.0078250  12.0000000   1.0078250   1.0078250   1.0078250
 NucSpn=           0           1           0           0           1           1           0           1           1           1
 AtZEff=   0.0000000   0.0000000   0.0000000   0.0000000   0.0000000   0.0000000   0.0000000   0.0000000   0.0000000   0.0000000
 NQMom=    0.0000000   0.0000000   0.0000000   0.0000000   0.0000000   0.0000000   0.0000000   0.0000000   0.0000000   0.0000000
 NMagM=    0.0000000   2.7928460   0.0000000   0.0000000   2.7928460   2.7928460   0.0000000   2.7928460   2.7928460   2.7928460
 AtZNuc=   6.0000000   1.0000000   6.0000000   6.0000000   1.0000000   1.0000000   6.0000000   1.0000000   1.0000000   1.0000000

  Atom        31          32          33          34          35          36          37          38          39          40
 IAtWgt=           1          14          12          12          12          12          12          12          12           1
 AtmWgt=   1.0078250  14.0030740  12.0000000  12.0000000  12.0000000  12.0000000  12.0000000  12.0000000  12.0000000   1.0078250
 NucSpn=           1           2           0           0           0           0           0           0           0           1
 AtZEff=   0.0000000   0.0000000   0.0000000   0.0000000   0.0000000   0.0000000   0.0000000   0.0000000   0.0000000   0.0000000
 NQMom=    0.0000000   2.0440000   0.0000000   0.0000000   0.0000000   0.0000000   0.0000000   0.0000000   0.0000000   0.0000000
 NMagM=    2.7928460   0.4037610   0.0000000   0.0000000   0.0000000   0.0000000   0.0000000   0.0000000   0.0000000   2.7928460
 AtZNuc=   1.0000000   7.0000000   6.0000000   6.0000000   6.0000000   6.0000000   6.0000000   6.0000000   6.0000000   1.0000000

  Atom        41          42          43          44          45          46          47          48          49          50
 IAtWgt=          12          12           1          12          12           1           1          12           1           1
 AtmWgt=  12.0000000  12.0000000   1.0078250  12.0000000  12.0000000   1.0078250   1.0078250  12.0000000   1.0078250   1.0078250
 NucSpn=           0           0           1           0           0           1           1           0           1           1
 AtZEff=   0.0000000   0.0000000   0.0000000   0.0000000   0.0000000   0.0000000   0.0000000   0.0000000   0.0000000   0.0000000
 NQMom=    0.0000000   0.0000000   0.0000000   0.0000000   0.0000000   0.0000000   0.0000000   0.0000000   0.0000000   0.0000000
 NMagM=    0.0000000   0.0000000   2.7928460   0.0000000   0.0000000   2.7928460   2.7928460   0.0000000   2.7928460   2.7928460
 AtZNuc=   6.0000000   6.0000000   1.0000000   6.0000000   6.0000000   1.0000000   1.0000000   6.0000000   1.0000000   1.0000000

  Atom        51          52          53          54          55          56          57          58          59          60
 IAtWgt=           1           1          14          12          12          12          12          12          12          12
 AtmWgt=   1.0078250   1.0078250  14.0030740  12.0000000  12.0000000  12.0000000  12.0000000  12.0000000  12.0000000  12.0000000
 NucSpn=           1           1           2           0           0           0           0           0           0           0
 AtZEff=   0.0000000   0.0000000   0.0000000   0.0000000   0.0000000   0.0000000   0.0000000   0.0000000   0.0000000   0.0000000
 NQMom=    0.0000000   0.0000000   2.0440000   0.0000000   0.0000000   0.0000000   0.0000000   0.0000000   0.0000000   0.0000000
 NMagM=    2.7928460   2.7928460   0.4037610   0.0000000   0.0000000   0.0000000   0.0000000   0.0000000   0.0000000   0.0000000
 AtZNuc=   1.0000000   1.0000000   7.0000000   6.0000000   6.0000000   6.0000000   6.0000000   6.0000000   6.0000000   6.0000000

  Atom        61          62          63          64          65          66          67          68          69          70
 IAtWgt=           1          12          12           1          12          12           1           1          12           1
 AtmWgt=   1.0078250  12.0000000  12.0000000   1.0078250  12.0000000  12.0000000   1.0078250   1.0078250  12.0000000   1.0078250
 NucSpn=           1           0           0           1           0           0           1           1           0           1
 AtZEff=   0.0000000   0.0000000   0.0000000   0.0000000   0.0000000   0.0000000   0.0000000   0.0000000   0.0000000   0.0000000
 NQMom=    0.0000000   0.0000000   0.0000000   0.0000000   0.0000000   0.0000000   0.0000000   0.0000000   0.0000000   0.0000000
 NMagM=    2.7928460   0.0000000   0.0000000   2.7928460   0.0000000   0.0000000   2.7928460   2.7928460   0.0000000   2.7928460
 AtZNuc=   1.0000000   6.0000000   6.0000000   1.0000000   6.0000000   6.0000000   1.0000000   1.0000000   6.0000000   1.0000000

  Atom        71          72          73          74
 IAtWgt=           1           1           1          35
 AtmWgt=   1.0078250   1.0078250   1.0078250  34.9688527
 NucSpn=           1           1           1           3
 AtZEff=   0.0000000   0.0000000   0.0000000   0.0000000
 NQMom=    0.0000000   0.0000000   0.0000000  -8.1650000
 NMagM=    2.7928460   2.7928460   2.7928460   0.8218740
 AtZNuc=   1.0000000   1.0000000   1.0000000  17.0000000
 Leave Link  101 at Sat Jul  2 00:24:53 2022, MaxMem=  5242880000 cpu:         1.1
 (Enter /opt/nce/packages/global/g09/l202.exe)
 Stoichiometry    C44H24ClN5
 Framework group  C1[X(C44H24ClN5)]
 Deg. of freedom   216
 Full point group                 C1      NOp   1
 Largest Abelian subgroup         C1      NOp   1
 Largest concise Abelian subgroup C1      NOp   1
                         Standard orientation:                         
 ---------------------------------------------------------------------
 Center     Atomic      Atomic             Coordinates (Angstroms)
 Number     Number       Type             X           Y           Z
 ---------------------------------------------------------------------
      1          6           0        1.287476   -0.551935    0.156473
      2          6           0        0.187623   -1.395445    0.025439
      3          6           0       -1.090149   -0.865575   -0.142537
      4          6           0       -1.252484    0.520827   -0.188990
      5          6           0       -0.170677    1.383952   -0.030201
      6          6           0        1.095150    0.830814    0.146967
      7          6           0       -2.552339    1.059476   -0.446152
      8          6           0        2.219165    1.687583    0.365214
      9          7           0       -3.592557    1.492262   -0.661744
     10          7           0        3.118813    2.375525    0.547389
     11          7           0        2.579760   -1.064079    0.329642
     12          6           0        3.102876   -1.563176    1.517511
     13          6           0        3.553811   -1.145123   -0.660213
     14          6           0        2.496961   -1.668639    2.761493
     15          6           0        4.427619   -1.968055    1.290382
     16          6           0        3.474535   -0.774422   -1.995154
     17          6           0        4.715825   -1.701694   -0.102865
     18          6           0        3.254113   -2.201522    3.790607
     19          1           0        1.475147   -1.347329    2.921568
     20          6           0        5.168813   -2.498942    2.341533
     21          6           0        4.602791   -0.968121   -2.773693
     22          1           0        2.568717   -0.351643   -2.411401
     23          6           0        5.836360   -1.887907   -0.906451
     24          6           0        4.574826   -2.613263    3.586300
     25          1           0        2.812361   -2.299906    4.774444
     26          1           0        6.192907   -2.815454    2.185640
     27          6           0        5.771970   -1.517438   -2.238441
     28          1           0        4.576482   -0.688332   -3.819513
     29          1           0        6.741992   -2.315831   -0.494207
     30          1           0        5.137388   -3.024780    4.414725
     31          1           0        6.635441   -1.654863   -2.876953
     32          7           0       -2.207989   -1.694418   -0.288570
     33          6           0       -3.192358   -1.898866    0.674463
     34          6           0       -2.532944   -2.427616   -1.425683
     35          6           0       -3.280662   -1.377271    1.957287
     36          6           0       -4.155863   -2.775914    0.152837
     37          6           0       -1.856004   -2.509500   -2.634237
     38          6           0       -3.735039   -3.112605   -1.190743
     39          6           0       -4.374825   -1.751315    2.718661
     40          1           0       -2.527648   -0.703948    2.347336
     41          6           0       -5.244907   -3.139510    0.938582
     42          6           0       -2.410330   -3.311828   -3.616808
     43          1           0       -0.934157   -1.967397   -2.804855
     44          6           0       -4.273386   -3.911621   -2.194640
     45          6           0       -5.347493   -2.622039    2.218133
     46          1           0       -4.476267   -1.360744    3.723577
     47          1           0       -5.997695   -3.816108    0.552980
     48          6           0       -3.604263   -4.007440   -3.402246
     49          1           0       -1.907626   -3.399484   -4.571977
     50          1           0       -5.201355   -4.446038   -2.031880
     51          1           0       -6.189502   -2.894102    2.841917
     52          1           0       -4.009725   -4.624600   -4.193983
     53          7           0       -0.353669    2.769885   -0.046086
     54          6           0        0.100123    3.643799   -1.033663
     55          6           0       -1.033955    3.505491    0.923661
     56          6           0        0.802746    3.362783   -2.196934
     57          6           0       -0.291423    4.947512   -0.693495
     58          6           0       -1.637382    3.063796    2.092573
     59          6           0       -1.014856    4.859192    0.556860
     60          6           0        1.122219    4.430380   -3.018375
     61          1           0        1.091571    2.352433   -2.457162
     62          6           0        0.039090    6.004105   -1.535954
     63          6           0       -2.241555    4.017813    2.893399
     64          1           0       -1.637405    2.017967    2.372357
     65          6           0       -1.626586    5.800159    1.378954
     66          6           0        0.747869    5.737546   -2.694095
     67          1           0        1.672762    4.245240   -3.932304
     68          1           0       -0.256847    7.015997   -1.287667
     69          6           0       -2.239648    5.371117    2.542941
     70          1           0       -2.724183    3.705945    3.811218
     71          1           0       -1.619898    6.849434    1.110417
     72          1           0        1.014300    6.548158   -3.360460
     73          1           0       -2.721499    6.089820    3.193623
     74         17           0        0.408073   -3.095651    0.080938
 ---------------------------------------------------------------------
 Rotational constants (GHZ):      0.0625173      0.0601944      0.0422072
 Leave Link  202 at Sat Jul  2 00:24:53 2022, MaxMem=  5242880000 cpu:         0.1
 (Enter /opt/nce/packages/global/g09/l301.exe)
 Standard basis: def2TZVP (5D, 7F)
 Ernie: Thresh=  0.10000D-02 Tol=  0.10000D-05 Strict=F.
 There are  1950 symmetry adapted cartesian basis functions of A   symmetry.
 There are  1700 symmetry adapted basis functions of A   symmetry.
  1700 basis functions,  2760 primitive gaussians,  1950 cartesian basis functions
   170 alpha electrons      170 beta electrons
       nuclear repulsion energy      6269.8445647107 Hartrees.
 IExCor= 4639 DFT=T Ex+Corr=wB97XD ExCW=0 ScaHFX=  1.000000
 ScaDFX=  1.000000  1.000000  1.000000  1.000000 ScalE2=  1.000000  1.000000
 IRadAn=      5 IRanWt=     -1 IRanGd=            0 ICorTp=0 IEmpDi=121
  HFx wShort=  0.000000 wLong=  0.200000 cFull=  0.222036 cShort=  0.000000 cLong=  0.777964
  DFx wShort=  0.000000 wLong=  0.200000 cFull=  0.000000 cShort=  0.000000 cLong=  1.000000
 NAtoms=   74 NActive=   74 NUniq=   74 SFac= 1.00D+00 NAtFMM=   60 NAOKFM=T Big=T
 Integral buffers will be    131072 words long.
 Raffenetti 1 integral format.
 Two-electron integral symmetry is turned on.
 R6Disp:  Grimme-D2 Dispersion energy=       -0.0740540387 Hartrees.
 Nuclear repulsion after empirical dispersion term =     6269.7705106720 Hartrees.
 ------------------------------------------------------------------------------
 Polarizable Continuum Model (PCM)
 =================================
 Model                : PCM (using non-symmetric T matrix).
 Atomic radii         : SMD-Coulomb.
 Polarization charges : Total charges.
 Charge compensation  : None.
 Solution method      : On-the-fly selection.
 Cavity type          : VdW (van der Waals Surface) (Alpha=1.000).
 Cavity algorithm     : GePol (No added spheres)
                        Default sphere list used, NSphG=   74.
                        Lebedev-Laikov grids with approx.  5.0 points / Ang**2.
                        Smoothing algorithm: York/Karplus (Gamma=1.0000).
                        Polarization charges: spherical gaussians, with
                                              point-specific exponents (IZeta= 3).
                        Self-potential: point-specific (ISelfS= 7).
                        Self-field    : sphere-specific E.n sum rule (ISelfD= 2).
 Solvent              : Acetonitrile, Eps=  35.688000 Eps(inf)=   1.806874
 ------------------------------------------------------------------------------
 GePol: Number of generator spheres                  =      74
 GePol: Total number of spheres                      =      74
 GePol: Number of exposed spheres                    =      74 (100.00%)
 GePol: Number of points                             =    5964
 GePol: Average weight of points                     =       0.11
 GePol: Minimum weight of points                     =   0.63D-11
 GePol: Maximum weight of points                     =    0.18138
 GePol: Number of points with low weight             =     341
 GePol: Fraction of low-weight points (<1% of avg)   =       5.72%
 GePol: Cavity surface area                          =    645.986 Ang**2
 GePol: Cavity volume                                =    659.121 Ang**3
 ------------------------------------------------------------------------------
 Atomic radii for non-electrostatic terms: SMD-CDS.
 ------------------------------------------------------------------------------
 PCM non-electrostatic energy =        -0.0137263212 Hartrees.
 Nuclear repulsion after PCM non-electrostatic terms =     6269.7567843508 Hartrees.
 Leave Link  301 at Sat Jul  2 00:24:53 2022, MaxMem=  5242880000 cpu:         2.1
 (Enter /opt/nce/packages/global/g09/l302.exe)
 NPDir=0 NMtPBC=     1 NCelOv=     1 NCel=       1 NClECP=     1 NCelD=      1
         NCelK=      1 NCelE2=     1 NClLst=     1 CellRange=     0.0.
 One-electron integrals computed using PRISM.
   1 Symmetry operations used in ECPInt.
 ECPInt:  NShTT=  210276 NPrTT=  664162 LenC2=  155597 LenP2D=  318205.
 LDataN:  DoStor=T MaxTD1= 6 Len=  172
 NBasis=  1700 RedAO= T EigKep=  1.49D-06  NBF=  1700
 NBsUse=  1700 1.00D-06 EigRej= -1.00D+00 NBFU=  1700
 Precomputing XC quadrature grid using
 IXCGrd= 4 IRadAn=           5 IRanWt=          -1 IRanGd=           0 AccXCQ= 0.00D+00.
 Generated NRdTot=       0 NPtTot=           0 NUsed=           0 NTot=          32
 NSgBfM=  1845  1847  1852  1853  1853 MxSgAt=    74 MxSgA2=    74.
 Leave Link  302 at Sat Jul  2 00:25:00 2022, MaxMem=  5242880000 cpu:        82.0
 (Enter /opt/nce/packages/global/g09/l308.exe)
 Leave Link  308 at Sat Jul  2 00:25:01 2022, MaxMem=  5242880000 cpu:        12.0
 (Enter /opt/nce/packages/global/g09/l303.exe)
 DipDrv:  MaxL=1.
 Leave Link  303 at Sat Jul  2 00:25:02 2022, MaxMem=  5242880000 cpu:         7.6
 (Enter /opt/nce/packages/global/g09/l401.exe)
 ExpMin= 9.52D-02 ExpMax= 6.95D+04 ExpMxC= 2.37D+03 IAcc=3 IRadAn=         5 AccDes= 0.00D+00
 Harris functional with IExCor= 4639 and IRadAn=       5 diagonalized for initial guess.
 HarFok:  IExCor= 4639 AccDes= 0.00D+00 IRadAn=         5 IDoV= 1 UseB2=F ITyADJ=14
 ICtDFT=  3500011 ScaDFX=  1.000000  1.000000  1.000000  1.000000
 FoFCou: FMM=F IPFlag=           0 FMFlag=      100000 FMFlg1=        2001
         NFxFlg=           0 DoJE=T BraDBF=F KetDBF=T FulRan=T
         wScrn=  0.000000 ICntrl=     500 IOpCl=  0 I1Cent=   200000004 NGrid=           0
         NMat0=    1 NMatS0=      1 NMatT0=    0 NMatD0=    1 NMtDS0=    0 NMtDT0=    0
 Petite list used in FoFCou.
 Harris En= -2331.20525398726    
 JPrj=0 DoOrth=F DoCkMO=F.
 Leave Link  401 at Sat Jul  2 00:25:26 2022, MaxMem=  5242880000 cpu:       280.1
 (Enter /opt/nce/packages/global/g09/l502.exe)
 Closed shell SCF:
 Using DIIS extrapolation, IDIIS=  1040.
 Integral symmetry usage will be decided dynamically.
 IVT=    11463646 IEndB=    11463646 NGot=  5242880000 MDV=  5235237445
 LenX=  5235237445 LenY=  5231432995
 Requested convergence on RMS density matrix=1.00D-08 within 128 cycles.
 Requested convergence on MAX density matrix=1.00D-06.
 Requested convergence on             energy=1.00D-06.
 No special actions if energy rises.
 Fock matrices will be formed incrementally for  20 cycles.

 Cycle   1  Pass 1  IDiag  1:
 FoFJK:  IHMeth= 1 ICntrl=       0 DoSepK=T KAlg= 0 I1Cent=   0 FoldK=F
 IRaf=         1 NMat=   1 IRICut=       1 DoRegI=T DoRafI=F ISym2E= 0.
 FoFCou: FMM=T IPFlag=           0 FMFlag=      100000 FMFlg1=        2001
         NFxFlg=           0 DoJE=T BraDBF=F KetDBF=F FulRan=T
         wScrn=  0.000000 ICntrl=     500 IOpCl=  0 I1Cent=           0 NGrid=           0
         NMat0=    1 NMatS0=      1 NMatT0=    0 NMatD0=    1 NMtDS0=    0 NMtDT0=    0
 Symmetry not used in FoFCou.
 FMM levels:  10  Number of levels for PrismC:   9
 Inv3:  Mode=1 IEnd=   106707888.
 Iteration    1 A*A^-1 deviation from unit magnitude is 6.88D-15 for   5955.
 Iteration    1 A*A^-1 deviation from orthogonality  is 3.33D-15 for   5958   5957.
 Iteration    1 A^-1*A deviation from unit magnitude is 6.88D-15 for   5955.
 Iteration    1 A^-1*A deviation from orthogonality  is 2.71D-11 for   4775   4711.
 E= -2424.34838963465    
 DIIS: error= 4.22D-02 at cycle   1 NSaved=   1.
 NSaved= 1 IEnMin= 1 EnMin= -2424.34838963465     IErMin= 1 ErrMin= 4.22D-02
 ErrMax= 4.22D-02  0.00D+00 EMaxC= 1.00D-01 BMatC= 5.05D+00 BMatP= 5.05D+00
 IDIUse=3 WtCom= 5.78D-01 WtEn= 4.22D-01
 Coeff-Com:  0.100D+01
 Coeff-En:   0.100D+01
 Coeff:      0.100D+01
 Gap=     0.512 Goal=   None    Shift=    0.000
 GapD=    0.512 DampG=2.000 DampE=0.500 DampFc=1.0000 IDamp=-1.
 RMSDP=4.37D-03 MaxDP=9.27D-01              OVMax= 1.93D-01

 Cycle   2  Pass 1  IDiag  1:
 RMSU=  2.72D-03    CP:  5.65D-01
 E= -2424.76165291180     Delta-E=       -0.413263277147 Rises=F Damp=F
 DIIS: error= 1.48D-02 at cycle   2 NSaved=   2.
 NSaved= 2 IEnMin= 2 EnMin= -2424.76165291180     IErMin= 2 ErrMin= 1.48D-02
 ErrMax= 1.48D-02  0.00D+00 EMaxC= 1.00D-01 BMatC= 6.13D-01 BMatP= 5.05D+00
 IDIUse=3 WtCom= 8.52D-01 WtEn= 1.48D-01
 Coeff-Com:  0.196D+00 0.804D+00
 Coeff-En:   0.254D+00 0.746D+00
 Coeff:      0.205D+00 0.795D+00
 Gap=     0.302 Goal=   None    Shift=    0.000
 RMSDP=1.27D-03 MaxDP=3.10D-01 DE=-4.13D-01 OVMax= 1.98D-01

 Cycle   3  Pass 1  IDiag  1:
 RMSU=  1.13D-03    CP:  5.41D-01  8.02D-01
 E= -2424.95100262377     Delta-E=       -0.189349711975 Rises=F Damp=F
 DIIS: error= 1.05D-02 at cycle   3 NSaved=   3.
 NSaved= 3 IEnMin= 3 EnMin= -2424.95100262377     IErMin= 3 ErrMin= 1.05D-02
 ErrMax= 1.05D-02  0.00D+00 EMaxC= 1.00D-01 BMatC= 2.85D-01 BMatP= 6.13D-01
 IDIUse=3 WtCom= 8.95D-01 WtEn= 1.05D-01
 Coeff-Com:  0.394D-01 0.411D+00 0.550D+00
 Coeff-En:   0.000D+00 0.364D+00 0.636D+00
 Coeff:      0.352D-01 0.406D+00 0.559D+00
 Gap=     0.274 Goal=   None    Shift=    0.000
 RMSDP=4.24D-04 MaxDP=9.67D-02 DE=-1.89D-01 OVMax= 9.54D-02

 Cycle   4  Pass 1  IDiag  1:
 RMSU=  2.78D-04    CP:  5.22D-01  8.81D-01  8.38D-01
 E= -2425.18889234864     Delta-E=       -0.237889724864 Rises=F Damp=F
 DIIS: error= 1.58D-03 at cycle   4 NSaved=   4.
 NSaved= 4 IEnMin= 4 EnMin= -2425.18889234864     IErMin= 4 ErrMin= 1.58D-03
 ErrMax= 1.58D-03  0.00D+00 EMaxC= 1.00D-01 BMatC= 7.69D-03 BMatP= 2.85D-01
 IDIUse=3 WtCom= 9.84D-01 WtEn= 1.58D-02
 Coeff-Com:  0.709D-02 0.122D+00 0.228D+00 0.642D+00
 Coeff-En:   0.000D+00 0.000D+00 0.000D+00 0.100D+01
 Coeff:      0.698D-02 0.120D+00 0.225D+00 0.648D+00
 Gap=     0.251 Goal=   None    Shift=    0.000
 RMSDP=1.28D-04 MaxDP=3.09D-02 DE=-2.38D-01 OVMax= 1.25D-02

 Cycle   5  Pass 1  IDiag  1:
 RMSU=  1.02D-04    CP:  5.18D-01  8.94D-01  8.29D-01  7.81D-01
 E= -2425.19421376176     Delta-E=       -0.005321413120 Rises=F Damp=F
 DIIS: error= 5.16D-04 at cycle   5 NSaved=   5.
 NSaved= 5 IEnMin= 5 EnMin= -2425.19421376176     IErMin= 5 ErrMin= 5.16D-04
 ErrMax= 5.16D-04  0.00D+00 EMaxC= 1.00D-01 BMatC= 4.13D-04 BMatP= 7.69D-03
 IDIUse=3 WtCom= 9.95D-01 WtEn= 5.16D-03
 Coeff-Com: -0.727D-04 0.107D-01 0.415D-01 0.211D+00 0.736D+00
 Coeff-En:   0.000D+00 0.000D+00 0.000D+00 0.000D+00 0.100D+01
 Coeff:     -0.723D-04 0.106D-01 0.413D-01 0.210D+00 0.738D+00
 Gap=     0.251 Goal=   None    Shift=    0.000
 RMSDP=3.52D-05 MaxDP=4.32D-03 DE=-5.32D-03 OVMax= 4.56D-03

 Cycle   6  Pass 1  IDiag  1:
 RMSU=  3.06D-05    CP:  5.18D-01  8.93D-01  8.34D-01  7.95D-01  1.15D+00
 E= -2425.19447488481     Delta-E=       -0.000261123050 Rises=F Damp=F
 DIIS: error= 3.84D-04 at cycle   6 NSaved=   6.
 NSaved= 6 IEnMin= 6 EnMin= -2425.19447488481     IErMin= 6 ErrMin= 3.84D-04
 ErrMax= 3.84D-04  0.00D+00 EMaxC= 1.00D-01 BMatC= 1.86D-04 BMatP= 4.13D-04
 IDIUse=3 WtCom= 9.96D-01 WtEn= 3.84D-03
 Coeff-Com: -0.123D-02-0.154D-01-0.143D-01 0.659D-02 0.441D+00 0.583D+00
 Coeff-En:   0.000D+00 0.000D+00 0.000D+00 0.000D+00 0.213D+00 0.787D+00
 Coeff:     -0.122D-02-0.153D-01-0.142D-01 0.656D-02 0.440D+00 0.584D+00
 Gap=     0.252 Goal=   None    Shift=    0.000
 RMSDP=2.14D-05 MaxDP=2.31D-03 DE=-2.61D-04 OVMax= 2.52D-03

 Cycle   7  Pass 1  IDiag  1:
 RMSU=  1.24D-05    CP:  5.18D-01  8.92D-01  8.41D-01  7.98D-01  1.29D+00
                    CP:  1.04D+00
 E= -2425.19464402056     Delta-E=       -0.000169135748 Rises=F Damp=F
 DIIS: error= 4.75D-05 at cycle   7 NSaved=   7.
 NSaved= 7 IEnMin= 7 EnMin= -2425.19464402056     IErMin= 7 ErrMin= 4.75D-05
 ErrMax= 4.75D-05  0.00D+00 EMaxC= 1.00D-01 BMatC= 3.63D-06 BMatP= 1.86D-04
 IDIUse=1 WtCom= 1.00D+00 WtEn= 0.00D+00
 Coeff-Com: -0.166D-03-0.358D-02-0.564D-02-0.211D-01-0.204D-02 0.863D-01
 Coeff-Com:  0.946D+00
 Coeff:     -0.166D-03-0.358D-02-0.564D-02-0.211D-01-0.204D-02 0.863D-01
 Coeff:      0.946D+00
 Gap=     0.252 Goal=   None    Shift=    0.000
 RMSDP=9.49D-06 MaxDP=1.83D-03 DE=-1.69D-04 OVMax= 1.05D-03

 Cycle   8  Pass 1  IDiag  1:
 RMSU=  3.72D-06    CP:  5.18D-01  8.91D-01  8.41D-01  7.90D-01  1.35D+00
                    CP:  1.20D+00  1.24D+00
 E= -2425.19465250443     Delta-E=       -0.000008483878 Rises=F Damp=F
 DIIS: error= 2.23D-05 at cycle   8 NSaved=   8.
 NSaved= 8 IEnMin= 8 EnMin= -2425.19465250443     IErMin= 8 ErrMin= 2.23D-05
 ErrMax= 2.23D-05  0.00D+00 EMaxC= 1.00D-01 BMatC= 7.26D-07 BMatP= 3.63D-06
 IDIUse=1 WtCom= 1.00D+00 WtEn= 0.00D+00
 Coeff-Com:  0.860D-04 0.742D-03 0.183D-03-0.813D-02-0.635D-01-0.480D-01
 Coeff-Com:  0.326D+00 0.793D+00
 Coeff:      0.860D-04 0.742D-03 0.183D-03-0.813D-02-0.635D-01-0.480D-01
 Coeff:      0.326D+00 0.793D+00
 Gap=     0.252 Goal=   None    Shift=    0.000
 RMSDP=4.45D-06 MaxDP=1.08D-03 DE=-8.48D-06 OVMax= 4.46D-04

 Cycle   9  Pass 1  IDiag  1:
 RMSU=  1.23D-06    CP:  5.19D-01  8.91D-01  8.41D-01  7.85D-01  1.36D+00
                    CP:  1.27D+00  1.37D+00  1.28D+00
 E= -2425.19465387227     Delta-E=       -0.000001367833 Rises=F Damp=F
 DIIS: error= 9.84D-06 at cycle   9 NSaved=   9.
 NSaved= 9 IEnMin= 9 EnMin= -2425.19465387227     IErMin= 9 ErrMin= 9.84D-06
 ErrMax= 9.84D-06  0.00D+00 EMaxC= 1.00D-01 BMatC= 1.15D-07 BMatP= 7.26D-07
 IDIUse=1 WtCom= 1.00D+00 WtEn= 0.00D+00
 Coeff-Com:  0.553D-04 0.804D-03 0.100D-02-0.146D-03-0.262D-01-0.306D-01
 Coeff-Com:  0.869D-02 0.313D+00 0.733D+00
 Coeff:      0.553D-04 0.804D-03 0.100D-02-0.146D-03-0.262D-01-0.306D-01
 Coeff:      0.869D-02 0.313D+00 0.733D+00
 Gap=     0.252 Goal=   None    Shift=    0.000
 RMSDP=1.90D-06 MaxDP=5.26D-04 DE=-1.37D-06 OVMax= 1.91D-04

 Cycle  10  Pass 1  IDiag  1:
 RMSU=  5.08D-07    CP:  5.19D-01  8.91D-01  8.40D-01  7.83D-01  1.37D+00
                    CP:  1.29D+00  1.41D+00  1.41D+00  1.26D+00
 E= -2425.19465408303     Delta-E=       -0.000000210766 Rises=F Damp=F
 DIIS: error= 3.33D-06 at cycle  10 NSaved=  10.
 NSaved=10 IEnMin=10 EnMin= -2425.19465408303     IErMin=10 ErrMin= 3.33D-06
 ErrMax= 3.33D-06  0.00D+00 EMaxC= 1.00D-01 BMatC= 1.52D-08 BMatP= 1.15D-07
 IDIUse=1 WtCom= 1.00D+00 WtEn= 0.00D+00
 Coeff-Com:  0.527D-05 0.124D-03 0.296D-03 0.119D-02 0.212D-02-0.958D-03
 Coeff-Com: -0.451D-01-0.412D-01 0.233D+00 0.851D+00
 Coeff:      0.527D-05 0.124D-03 0.296D-03 0.119D-02 0.212D-02-0.958D-03
 Coeff:     -0.451D-01-0.412D-01 0.233D+00 0.851D+00
 Gap=     0.252 Goal=   None    Shift=    0.000
 RMSDP=8.08D-07 MaxDP=2.27D-04 DE=-2.11D-07 OVMax= 8.54D-05

 Cycle  11  Pass 1  IDiag  1:
 RMSU=  1.95D-07    CP:  5.19D-01  8.91D-01  8.40D-01  7.82D-01  1.37D+00
                    CP:  1.29D+00  1.42D+00  1.47D+00  1.46D+00  1.23D+00
 E= -2425.19465412208     Delta-E=       -0.000000039046 Rises=F Damp=F
 DIIS: error= 1.68D-06 at cycle  11 NSaved=  11.
 NSaved=11 IEnMin=11 EnMin= -2425.19465412208     IErMin=11 ErrMin= 1.68D-06
 ErrMax= 1.68D-06  0.00D+00 EMaxC= 1.00D-01 BMatC= 3.64D-09 BMatP= 1.52D-08
 IDIUse=1 WtCom= 1.00D+00 WtEn= 0.00D+00
 Coeff-Com: -0.539D-05-0.669D-04-0.316D-04 0.544D-03 0.517D-02 0.465D-02
 Coeff-Com: -0.213D-01-0.771D-01-0.171D-01 0.371D+00 0.734D+00
 Coeff:     -0.539D-05-0.669D-04-0.316D-04 0.544D-03 0.517D-02 0.465D-02
 Coeff:     -0.213D-01-0.771D-01-0.171D-01 0.371D+00 0.734D+00
 Gap=     0.252 Goal=   None    Shift=    0.000
 RMSDP=3.05D-07 MaxDP=7.89D-05 DE=-3.90D-08 OVMax= 3.67D-05

 Cycle  12  Pass 1  IDiag  1:
 RMSU=  7.17D-08    CP:  5.19D-01  8.90D-01  8.40D-01  7.82D-01  1.37D+00
                    CP:  1.30D+00  1.42D+00  1.49D+00  1.53D+00  1.38D+00
                    CP:  1.32D+00
 E= -2425.19465413056     Delta-E=       -0.000000008482 Rises=F Damp=F
 DIIS: error= 8.64D-07 at cycle  12 NSaved=  12.
 NSaved=12 IEnMin=12 EnMin= -2425.19465413056     IErMin=12 ErrMin= 8.64D-07
 ErrMax= 8.64D-07  0.00D+00 EMaxC= 1.00D-01 BMatC= 3.68D-10 BMatP= 3.64D-09
 IDIUse=1 WtCom= 1.00D+00 WtEn= 0.00D+00
 Coeff-Com: -0.182D-05-0.304D-04-0.604D-04-0.856D-04 0.399D-03 0.952D-03
 Coeff-Com:  0.557D-02-0.642D-02-0.406D-01-0.874D-01 0.790D-01 0.105D+01
 Coeff:     -0.182D-05-0.304D-04-0.604D-04-0.856D-04 0.399D-03 0.952D-03
 Coeff:      0.557D-02-0.642D-02-0.406D-01-0.874D-01 0.790D-01 0.105D+01
 Gap=     0.252 Goal=   None    Shift=    0.000
 RMSDP=1.22D-07 MaxDP=1.33D-05 DE=-8.48D-09 OVMax= 2.24D-05

 Cycle  13  Pass 1  IDiag  1:
 RMSU=  7.95D-08    CP:  5.19D-01  8.90D-01  8.40D-01  7.82D-01  1.37D+00
                    CP:  1.30D+00  1.42D+00  1.50D+00  1.55D+00  1.42D+00
                    CP:  1.55D+00  1.67D+00
 E= -2425.19465413219     Delta-E=       -0.000000001630 Rises=F Damp=F
 DIIS: error= 3.02D-07 at cycle  13 NSaved=  13.
 NSaved=13 IEnMin=13 EnMin= -2425.19465413219     IErMin=13 ErrMin= 3.02D-07
 ErrMax= 3.02D-07  0.00D+00 EMaxC= 1.00D-01 BMatC= 1.53D-10 BMatP= 3.68D-10
 IDIUse=1 WtCom= 1.00D+00 WtEn= 0.00D+00
 Coeff-Com: -0.185D-06-0.568D-05-0.266D-04-0.119D-03-0.623D-03-0.286D-03
 Coeff-Com:  0.611D-02 0.872D-02-0.156D-01-0.973D-01-0.843D-01 0.526D+00
 Coeff-Com:  0.657D+00
 Coeff:     -0.185D-06-0.568D-05-0.266D-04-0.119D-03-0.623D-03-0.286D-03
 Coeff:      0.611D-02 0.872D-02-0.156D-01-0.973D-01-0.843D-01 0.526D+00
 Coeff:      0.657D+00
 Gap=     0.252 Goal=   None    Shift=    0.000
 RMSDP=9.76D-08 MaxDP=1.37D-05 DE=-1.63D-09 OVMax= 6.51D-06

 Cycle  14  Pass 1  IDiag  1:
 RMSU=  5.38D-08    CP:  5.19D-01  8.90D-01  8.40D-01  7.82D-01  1.37D+00
                    CP:  1.30D+00  1.42D+00  1.50D+00  1.55D+00  1.40D+00
                    CP:  1.61D+00  2.22D+00  1.61D+00
 E= -2425.19465413242     Delta-E=       -0.000000000233 Rises=F Damp=F
 DIIS: error= 1.66D-07 at cycle  14 NSaved=  14.
 NSaved=14 IEnMin=14 EnMin= -2425.19465413242     IErMin=14 ErrMin= 1.66D-07
 ErrMax= 1.66D-07  0.00D+00 EMaxC= 1.00D-01 BMatC= 2.58D-11 BMatP= 1.53D-10
 IDIUse=1 WtCom= 1.00D+00 WtEn= 0.00D+00
 Coeff-Com:  0.215D-06 0.283D-05-0.183D-07-0.314D-04-0.348D-03-0.346D-03
 Coeff-Com:  0.134D-02 0.490D-02 0.224D-02-0.229D-01-0.570D-01-0.916D-02
 Coeff-Com:  0.291D+00 0.790D+00
 Coeff:      0.215D-06 0.283D-05-0.183D-07-0.314D-04-0.348D-03-0.346D-03
 Coeff:      0.134D-02 0.490D-02 0.224D-02-0.229D-01-0.570D-01-0.916D-02
 Coeff:      0.291D+00 0.790D+00
 Gap=     0.252 Goal=   None    Shift=    0.000
 RMSDP=1.45D-07 MaxDP=1.77D-05 DE=-2.33D-10 OVMax= 3.59D-06

 Cycle  15  Pass 1  IDiag  1:
 RMSU=  4.63D-08    CP:  5.19D-01  8.90D-01  8.40D-01  7.82D-01  1.37D+00
                    CP:  1.30D+00  1.41D+00  1.50D+00  1.54D+00  1.37D+00
                    CP:  1.65D+00  2.85D+00  2.58D+00  2.40D+00
 E= -2425.19465413214     Delta-E=        0.000000000287 Rises=F Damp=F
 DIIS: error= 6.72D-08 at cycle  15 NSaved=  15.
 NSaved=15 IEnMin=14 EnMin= -2425.19465413242     IErMin=15 ErrMin= 6.72D-08
 ErrMax= 6.72D-08  0.00D+00 EMaxC= 1.00D-01 BMatC= 5.88D-12 BMatP= 2.58D-11
 IDIUse=1 WtCom= 1.00D+00 WtEn= 0.00D+00
 Coeff-Com:  0.997D-07 0.168D-05 0.236D-05-0.299D-05-0.905D-04-0.127D-03
 Coeff-Com: -0.947D-05 0.135D-02 0.236D-02-0.151D-02-0.172D-01-0.586D-01
 Coeff-Com:  0.567D-01 0.357D+00 0.660D+00
 Coeff:      0.997D-07 0.168D-05 0.236D-05-0.299D-05-0.905D-04-0.127D-03
 Coeff:     -0.947D-05 0.135D-02 0.236D-02-0.151D-02-0.172D-01-0.586D-01
 Coeff:      0.567D-01 0.357D+00 0.660D+00
 Gap=     0.252 Goal=   None    Shift=    0.000
 RMSDP=1.64D-07 MaxDP=1.29D-05 DE= 2.87D-10 OVMax= 1.12D-06

 Cycle  16  Pass 1  IDiag  1:
 RMSU=  9.09D-08    CP:  5.19D-01  8.90D-01  8.40D-01  7.82D-01  1.37D+00
                    CP:  1.30D+00  1.41D+00  1.50D+00  1.53D+00  1.33D+00
                    CP:  1.68D+00  3.00D+00  3.00D+00  3.00D+00  2.59D+00
 E= -2425.19465413195     Delta-E=        0.000000000189 Rises=F Damp=F
 DIIS: error= 7.38D-08 at cycle  16 NSaved=  16.
 NSaved=16 IEnMin=14 EnMin= -2425.19465413242     IErMin=15 ErrMin= 6.72D-08
 ErrMax= 7.38D-08  0.00D+00 EMaxC= 1.00D-01 BMatC= 4.76D-12 BMatP= 5.88D-12
 IDIUse=1 WtCom= 1.00D+00 WtEn= 0.00D+00
 Coeff-Com:  0.823D-07 0.138D-05 0.186D-05-0.283D-05-0.755D-04-0.104D-03
 Coeff-Com:  0.989D-05 0.114D-02 0.188D-02-0.155D-02-0.141D-01-0.461D-01
 Coeff-Com:  0.476D-01 0.292D+00 0.519D+00 0.201D+00
 Coeff:      0.823D-07 0.138D-05 0.186D-05-0.283D-05-0.755D-04-0.104D-03
 Coeff:      0.989D-05 0.114D-02 0.188D-02-0.155D-02-0.141D-01-0.461D-01
 Coeff:      0.476D-01 0.292D+00 0.519D+00 0.201D+00
 Gap=     0.252 Goal=   None    Shift=    0.000
 RMSDP=5.32D-08 MaxDP=3.81D-06 DE= 1.89D-10 OVMax= 6.98D-08

 Cycle  17  Pass 1  IDiag  1:
 RMSU=  1.58D-08    CP:  5.19D-01  8.90D-01  8.40D-01  7.82D-01  1.37D+00
                    CP:  1.30D+00  1.41D+00  1.50D+00  1.53D+00  1.32D+00
                    CP:  1.68D+00  3.00D+00  3.00D+00  3.00D+00  3.00D+00
                    CP:  1.47D+00
 E= -2425.19465413180     Delta-E=        0.000000000142 Rises=F Damp=F
 DIIS: error= 7.79D-08 at cycle  17 NSaved=  17.
 NSaved=17 IEnMin=14 EnMin= -2425.19465413242     IErMin=15 ErrMin= 6.72D-08
 ErrMax= 7.79D-08  0.00D+00 EMaxC= 1.00D-01 BMatC= 4.93D-12 BMatP= 4.76D-12
 IDIUse=1 WtCom= 1.00D+00 WtEn= 0.00D+00
 Coeff-Com:  0.852D-07 0.141D-05 0.186D-05-0.324D-05-0.807D-04-0.109D-03
 Coeff-Com:  0.288D-04 0.121D-02 0.192D-02-0.187D-02-0.149D-01-0.464D-01
 Coeff-Com:  0.518D-01 0.302D+00 0.509D+00-0.177D+00 0.373D+00
 Coeff:      0.852D-07 0.141D-05 0.186D-05-0.324D-05-0.807D-04-0.109D-03
 Coeff:      0.288D-04 0.121D-02 0.192D-02-0.187D-02-0.149D-01-0.464D-01
 Coeff:      0.518D-01 0.302D+00 0.509D+00-0.177D+00 0.373D+00
 Gap=     0.252 Goal=   None    Shift=    0.000
 RMSDP=2.80D-08 MaxDP=2.89D-06 DE= 1.42D-10 OVMax= 1.71D-08

 Cycle  18  Pass 1  IDiag  1:
 RMSU=  2.29D-08    CP:  5.19D-01  8.90D-01  8.40D-01  7.82D-01  1.37D+00
                    CP:  1.30D+00  1.41D+00  1.50D+00  1.53D+00  1.31D+00
                    CP:  1.68D+00  3.00D+00  3.00D+00  3.00D+00  3.00D+00
                    CP:  1.48D+00  1.93D+00
 E= -2425.19465413176     Delta-E=        0.000000000040 Rises=F Damp=F
 DIIS: error= 8.04D-08 at cycle  18 NSaved=  18.
 NSaved=18 IEnMin=14 EnMin= -2425.19465413242     IErMin=15 ErrMin= 6.72D-08
 ErrMax= 8.04D-08  0.00D+00 EMaxC= 1.00D-01 BMatC= 5.75D-12 BMatP= 4.76D-12
 IDIUse=1 WtCom= 1.00D+00 WtEn= 0.00D+00
 Coeff-Com:  0.856D-07 0.141D-05 0.185D-05-0.332D-05-0.815D-04-0.110D-03
 Coeff-Com:  0.328D-04 0.122D-02 0.192D-02-0.193D-02-0.150D-01-0.463D-01
 Coeff-Com:  0.525D-01 0.303D+00 0.505D+00-0.232D+00 0.535D+00-0.104D+00
 Coeff:      0.856D-07 0.141D-05 0.185D-05-0.332D-05-0.815D-04-0.110D-03
 Coeff:      0.328D-04 0.122D-02 0.192D-02-0.193D-02-0.150D-01-0.463D-01
 Coeff:      0.525D-01 0.303D+00 0.505D+00-0.232D+00 0.535D+00-0.104D+00
 Gap=     0.252 Goal=   None    Shift=    0.000
 RMSDP=7.41D-09 MaxDP=6.67D-07 DE= 4.00D-11 OVMax= 5.25D-09

 Error on total polarization charges =  0.07735
 SCF Done:  E(RwB97XD) =  -2425.19465413     A.U. after   18 cycles
            NFock= 18  Conv=0.74D-08     -V/T= 2.0041
 KE= 2.415180448096D+03 PE=-1.819367491025D+04 EE= 7.083543023673D+03
 SMD-CDS (non-electrostatic) energy       (kcal/mol) =      -8.61
 (included in total energy above)
 Leave Link  502 at Sat Jul  2 02:07:44 2022, MaxMem=  5242880000 cpu:     72710.2
 (Enter /opt/nce/packages/global/g09/l801.exe)
 DoSCS=F DFT=T ScalE2(SS,OS)=  1.000000  1.000000
 ExpMin= 9.52D-02 ExpMax= 6.95D+04 ExpMxC= 2.37D+03 IAcc=3 IRadAn=         5 AccDes= 0.00D+00
 HarFok:  IExCor=  205 AccDes= 0.00D+00 IRadAn=         5 IDoV=-2 UseB2=F ITyADJ=14
 ICtDFT= 12500011 ScaDFX=  1.000000  1.000000  1.000000  1.000000
 Largest valence mixing into a core orbital is  7.40D-05
 Largest core mixing into a valence orbital is  2.30D-05
 Range of M.O.s used for correlation:    55  1700
 NBasis=  1700 NAE=   170 NBE=   170 NFC=    54 NFV=     0
 NROrb=   1646 NOA=   116 NOB=   116 NVA=  1530 NVB=  1530

 **** Warning!!: The largest alpha MO coefficient is  0.90687273D+02

 Leave Link  801 at Sat Jul  2 02:07:45 2022, MaxMem=  5242880000 cpu:         6.4
 (Enter /opt/nce/packages/global/g09/l914.exe)
 RHF ground state
 MDV=  5242880000 DFT=T DoStab=F Mixed=T DoRPA=T DoScal=F NonHer=T
 Would need an additional       6305823300000 words for in-memory AO integral storage.
 NEqPCM:  Using non-equilibrium solvation (IEInf=1, Eps=  35.6880, EpsInf=   1.8069)
 Inv3:  Mode=1 IEnd=   106707888.
 Iteration    1 A*A^-1 deviation from unit magnitude is 8.99D-15 for   5946.
 Iteration    1 A*A^-1 deviation from orthogonality  is 2.89D-15 for   5392   4841.
 Iteration    1 A^-1*A deviation from unit magnitude is 8.99D-15 for   5946.
 Iteration    1 A^-1*A deviation from orthogonality  is 5.51D-15 for   4726   4685.
 Making orbital integer symmetry assigments:
 Orbital symmetries:
       Occupied  (A) (A) (A) (A) (A) (A) (A) (A) (A) (A) (A) (A)
                 (A) (A) (A) (A) (A) (A) (A) (A) (A) (A) (A) (A)
                 (A) (A) (A) (A) (A) (A) (A) (A) (A) (A) (A) (A)
                 (A) (A) (A) (A) (A) (A) (A) (A) (A) (A) (A) (A)
                 (A) (A) (A) (A) (A) (A) (A) (A) (A) (A) (A) (A)
                 (A) (A) (A) (A) (A) (A) (A) (A) (A) (A) (A) (A)
                 (A) (A) (A) (A) (A) (A) (A) (A) (A) (A) (A) (A)
                 (A) (A) (A) (A) (A) (A) (A) (A) (A) (A) (A) (A)
                 (A) (A) (A) (A) (A) (A) (A) (A) (A) (A) (A) (A)
                 (A) (A) (A) (A) (A) (A) (A) (A) (A) (A) (A) (A)
                 (A) (A) (A) (A) (A) (A) (A) (A) (A) (A) (A) (A)
                 (A) (A) (A) (A) (A) (A) (A) (A) (A) (A) (A) (A)
                 (A) (A) (A) (A) (A) (A) (A) (A) (A) (A) (A) (A)
                 (A) (A) (A) (A) (A) (A) (A) (A) (A) (A) (A) (A)
                 (A) (A)
       Virtual   (A) (A) (A) (A) (A) (A) (A) (A) (A) (A) (A) (A)
                 (A) (A) (A) (A) (A) (A) (A) (A) (A) (A) (A) (A)
                 (A) (A) (A) (A) (A) (A) (A) (A) (A) (A) (A) (A)
                 (A) (A) (A) (A) (A) (A) (A) (A) (A) (A) (A) (A)
                 (A) (A) (A) (A) (A) (A) (A) (A) (A) (A) (A) (A)
                 (A) (A) (A) (A) (A) (A) (A) (A) (A) (A) (A) (A)
                 (A) (A) (A) (A) (A) (A) (A) (A) (A) (A) (A) (A)
                 (A) (A) (A) (A) (A) (A) (A) (A) (A) (A) (A) (A)
                 (A) (A) (A) (A) (A) (A) (A) (A) (A) (A) (A) (A)
                 (A) (A) (A) (A) (A) (A) (A) (A) (A) (A) (A) (A)
                 (A) (A) (A) (A) (A) (A) (A) (A) (A) (A) (A) (A)
                 (A) (A) (A) (A) (A) (A) (A) (A) (A) (A) (A) (A)
                 (A) (A) (A) (A) (A) (A) (A) (A) (A) (A) (A) (A)
                 (A) (A) (A) (A) (A) (A) (A) (A) (A) (A) (A) (A)
                 (A) (A) (A) (A) (A) (A) (A) (A) (A) (A) (A) (A)
                 (A) (A) (A) (A) (A) (A) (A) (A) (A) (A) (A) (A)
                 (A) (A) (A) (A) (A) (A) (A) (A) (A) (A) (A) (A)
                 (A) (A) (A) (A) (A) (A) (A) (A) (A) (A) (A) (A)
                 (A) (A) (A) (A) (A) (A) (A) (A) (A) (A) (A) (A)
                 (A) (A) (A) (A) (A) (A) (A) (A) (A) (A) (A) (A)
                 (A) (A) (A) (A) (A) (A) (A) (A) (A) (A) (A) (A)
                 (A) (A) (A) (A) (A) (A) (A) (A) (A) (A) (A) (A)
                 (A) (A) (A) (A) (A) (A) (A) (A) (A) (A) (A) (A)
                 (A) (A) (A) (A) (A) (A) (A) (A) (A) (A) (A) (A)
                 (A) (A) (A) (A) (A) (A) (A) (A) (A) (A) (A) (A)
                 (A) (A) (A) (A) (A) (A) (A) (A) (A) (A) (A) (A)
                 (A) (A) (A) (A) (A) (A) (A) (A) (A) (A) (A) (A)
                 (A) (A) (A) (A) (A) (A) (A) (A) (A) (A) (A) (A)
                 (A) (A) (A) (A) (A) (A) (A) (A) (A) (A) (A) (A)
                 (A) (A) (A) (A) (A) (A) (A) (A) (A) (A) (A) (A)
                 (A) (A) (A) (A) (A) (A) (A) (A) (A) (A) (A) (A)
                 (A) (A) (A) (A) (A) (A) (A) (A) (A) (A) (A) (A)
                 (A) (A) (A) (A) (A) (A) (A) (A) (A) (A) (A) (A)
                 (A) (A) (A) (A) (A) (A) (A) (A) (A) (A) (A) (A)
                 (A) (A) (A) (A) (A) (A) (A) (A) (A) (A) (A) (A)
                 (A) (A) (A) (A) (A) (A) (A) (A) (A) (A) (A) (A)
                 (A) (A) (A) (A) (A) (A) (A) (A) (A) (A) (A) (A)
                 (A) (A) (A) (A) (A) (A) (A) (A) (A) (A) (A) (A)
                 (A) (A) (A) (A) (A) (A) (A) (A) (A) (A) (A) (A)
                 (A) (A) (A) (A) (A) (A) (A) (A) (A) (A) (A) (A)
                 (A) (A) (A) (A) (A) (A) (A) (A) (A) (A) (A) (A)
                 (A) (A) (A) (A) (A) (A) (A) (A) (A) (A) (A) (A)
                 (A) (A) (A) (A) (A) (A) (A) (A) (A) (A) (A) (A)
                 (A) (A) (A) (A) (A) (A) (A) (A) (A) (A) (A) (A)
                 (A) (A) (A) (A) (A) (A) (A) (A) (A) (A) (A) (A)
                 (A) (A) (A) (A) (A) (A) (A) (A) (A) (A) (A) (A)
                 (A) (A) (A) (A) (A) (A) (A) (A) (A) (A) (A) (A)
                 (A) (A) (A) (A) (A) (A) (A) (A) (A) (A) (A) (A)
                 (A) (A) (A) (A) (A) (A) (A) (A) (A) (A) (A) (A)
                 (A) (A) (A) (A) (A) (A) (A) (A) (A) (A) (A) (A)
                 (A) (A) (A) (A) (A) (A) (A) (A) (A) (A) (A) (A)
                 (A) (A) (A) (A) (A) (A) (A) (A) (A) (A) (A) (A)
                 (A) (A) (A) (A) (A) (A) (A) (A) (A) (A) (A) (A)
                 (A) (A) (A) (A) (A) (A) (A) (A) (A) (A) (A) (A)
                 (A) (A) (A) (A) (A) (A) (A) (A) (A) (A) (A) (A)
                 (A) (A) (A) (A) (A) (A) (A) (A) (A) (A) (A) (A)
                 (A) (A) (A) (A) (A) (A) (A) (A) (A) (A) (A) (A)
                 (A) (A) (A) (A) (A) (A) (A) (A) (A) (A) (A) (A)
                 (A) (A) (A) (A) (A) (A) (A) (A) (A) (A) (A) (A)
                 (A) (A) (A) (A) (A) (A) (A) (A) (A) (A) (A) (A)
                 (A) (A) (A) (A) (A) (A) (A) (A) (A) (A) (A) (A)
                 (A) (A) (A) (A) (A) (A) (A) (A) (A) (A) (A) (A)
                 (A) (A) (A) (A) (A) (A) (A) (A) (A) (A) (A) (A)
                 (A) (A) (A) (A) (A) (A) (A) (A) (A) (A) (A) (A)
                 (A) (A) (A) (A) (A) (A) (A) (A) (A) (A) (A) (A)
                 (A) (A) (A) (A) (A) (A) (A) (A) (A) (A) (A) (A)
                 (A) (A) (A) (A) (A) (A) (A) (A) (A) (A) (A) (A)
                 (A) (A) (A) (A) (A) (A) (A) (A) (A) (A) (A) (A)
                 (A) (A) (A) (A) (A) (A) (A) (A) (A) (A) (A) (A)
                 (A) (A) (A) (A) (A) (A) (A) (A) (A) (A) (A) (A)
                 (A) (A) (A) (A) (A) (A) (A) (A) (A) (A) (A) (A)
                 (A) (A) (A) (A) (A) (A) (A) (A) (A) (A) (A) (A)
                 (A) (A) (A) (A) (A) (A) (A) (A) (A) (A) (A) (A)
                 (A) (A) (A) (A) (A) (A) (A) (A) (A) (A) (A) (A)
                 (A) (A) (A) (A) (A) (A) (A) (A) (A) (A) (A) (A)
                 (A) (A) (A) (A) (A) (A) (A) (A) (A) (A) (A) (A)
                 (A) (A) (A) (A) (A) (A) (A) (A) (A) (A) (A) (A)
                 (A) (A) (A) (A) (A) (A) (A) (A) (A) (A) (A) (A)
                 (A) (A) (A) (A) (A) (A) (A) (A) (A) (A) (A) (A)
                 (A) (A) (A) (A) (A) (A) (A) (A) (A) (A) (A) (A)
                 (A) (A) (A) (A) (A) (A) (A) (A) (A) (A) (A) (A)
                 (A) (A) (A) (A) (A) (A) (A) (A) (A) (A) (A) (A)
                 (A) (A) (A) (A) (A) (A) (A) (A) (A) (A) (A) (A)
                 (A) (A) (A) (A) (A) (A) (A) (A) (A) (A) (A) (A)
                 (A) (A) (A) (A) (A) (A) (A) (A) (A) (A) (A) (A)
                 (A) (A) (A) (A) (A) (A) (A) (A) (A) (A) (A) (A)
                 (A) (A) (A) (A) (A) (A) (A) (A) (A) (A) (A) (A)
                 (A) (A) (A) (A) (A) (A) (A) (A) (A) (A) (A) (A)
                 (A) (A) (A) (A) (A) (A) (A) (A) (A) (A) (A) (A)
                 (A) (A) (A) (A) (A) (A) (A) (A) (A) (A) (A) (A)
                 (A) (A) (A) (A) (A) (A) (A) (A) (A) (A) (A) (A)
                 (A) (A) (A) (A) (A) (A) (A) (A) (A) (A) (A) (A)
                 (A) (A) (A) (A) (A) (A) (A) (A) (A) (A) (A) (A)
                 (A) (A) (A) (A) (A) (A) (A) (A) (A) (A) (A) (A)
                 (A) (A) (A) (A) (A) (A) (A) (A) (A) (A) (A) (A)
                 (A) (A) (A) (A) (A) (A) (A) (A) (A) (A) (A) (A)
                 (A) (A) (A) (A) (A) (A) (A) (A) (A) (A) (A) (A)
                 (A) (A) (A) (A) (A) (A) (A) (A) (A) (A) (A) (A)
                 (A) (A) (A) (A) (A) (A) (A) (A) (A) (A) (A) (A)
                 (A) (A) (A) (A) (A) (A) (A) (A) (A) (A) (A) (A)
                 (A) (A) (A) (A) (A) (A) (A) (A) (A) (A) (A) (A)
                 (A) (A) (A) (A) (A) (A) (A) (A) (A) (A) (A) (A)
                 (A) (A) (A) (A) (A) (A) (A) (A) (A) (A) (A) (A)
                 (A) (A) (A) (A) (A) (A) (A) (A) (A) (A) (A) (A)
                 (A) (A) (A) (A) (A) (A) (A) (A) (A) (A) (A) (A)
                 (A) (A) (A) (A) (A) (A) (A) (A) (A) (A) (A) (A)
                 (A) (A) (A) (A) (A) (A) (A) (A) (A) (A) (A) (A)
                 (A) (A) (A) (A) (A) (A) (A) (A) (A) (A) (A) (A)
                 (A) (A) (A) (A) (A) (A) (A) (A) (A) (A) (A) (A)
                 (A) (A) (A) (A) (A) (A) (A) (A) (A) (A) (A) (A)
                 (A) (A) (A) (A) (A) (A) (A) (A) (A) (A) (A) (A)
                 (A) (A) (A) (A) (A) (A) (A) (A) (A) (A) (A) (A)
                 (A) (A) (A) (A) (A) (A) (A) (A) (A) (A) (A) (A)
                 (A) (A) (A) (A) (A) (A) (A) (A) (A) (A) (A) (A)
                 (A) (A) (A) (A) (A) (A) (A) (A) (A) (A) (A) (A)
                 (A) (A) (A) (A) (A) (A) (A) (A) (A) (A) (A) (A)
                 (A) (A) (A) (A) (A) (A) (A) (A) (A) (A) (A) (A)
                 (A) (A) (A) (A) (A) (A) (A) (A) (A) (A) (A) (A)
                 (A) (A) (A) (A) (A) (A) (A) (A) (A) (A) (A) (A)
                 (A) (A) (A) (A) (A) (A) (A) (A) (A) (A) (A) (A)
                 (A) (A) (A) (A) (A) (A) (A) (A) (A) (A) (A) (A)
                 (A) (A) (A) (A) (A) (A) (A) (A) (A) (A) (A) (A)
                 (A) (A) (A) (A) (A) (A) (A) (A) (A) (A) (A) (A)
                 (A) (A) (A) (A) (A) (A) (A) (A) (A) (A) (A) (A)
                 (A) (A) (A) (A) (A) (A) (A) (A) (A) (A) (A) (A)
                 (A) (A) (A) (A) (A) (A) (A) (A) (A) (A) (A) (A)
                 (A) (A) (A) (A) (A) (A) (A) (A) (A) (A) (A) (A)
                 (A) (A) (A) (A) (A) (A)
   200 initial guesses have been made.
 Convergence on wavefunction:    0.001000000000000
 Davidson Disk Diagonalization:  ConvIn= 1.00D-03 SkipCon=T Conv= 1.00D-03.
 Max sub-space:   800 roots to seek:   200 dimension of matrix:       354960
 Iteration     1 Dimension   200 NMult     0 NNew    200
 CISAX will form    72 AO SS matrices at one time.
 NMat=    72 NSing=    72 JSym2X= 0.
 FoFJK:  IHMeth= 1 ICntrl=       0 DoSepK=T KAlg= 0 I1Cent=   0 FoldK=F
 IRaf=         1 NMat= 144 IRICut=       1 DoRegI=T DoRafI=F ISym2E= 0.
 NMat=    72 NSing=    72 JSym2X= 0.
 NMat=    56 NSing=    56 JSym2X= 0.
 New state      4 was old state      7
 New state      6 was old state      4
 New state      7 was old state      9
 New state      9 was old state      6
 New state     10 was old state     12
 New state     11 was old state     14
 New state     12 was old state     13
 New state     13 was old state     21
 New state     14 was old state     10
 New state     15 was old state     11
 New state     16 was old state     34
 New state     17 was old state     27
 New state     18 was old state     26
 New state     19 was old state     29
 New state     20 was old state     16
 New state     21 was old state     18
 New state     22 was old state     17
 New state     23 was old state     36
 New state     24 was old state     44
 New state     25 was old state     93
 New state     26 was old state     99
 New state     27 was old state     38
 New state     28 was old state     35
 New state     29 was old state     37
 New state     30 was old state     52
 New state     31 was old state     78
 New state     32 was old state     39
 New state     33 was old state     43
 New state     34 was old state     40
 New state     35 was old state     47
 New state     36 was old state     55
 New state     37 was old state     41
 New state     38 was old state     71
 New state     39 was old state     56
 New state     40 was old state     64
 New state     41 was old state     63
 New state     42 was old state     15
 New state     43 was old state     19
 New state     44 was old state     66
 New state     45 was old state     58
 New state     47 was old state     23
 New state     48 was old state     20
 New state     49 was old state     24
 New state     50 was old state     65
 Excitation Energies [eV] at current iteration:
 Root      1 :     3.570768108113386
 Root      2 :     3.772627232471177
 Root      3 :     3.894384989186098
 Root      4 :     4.016091374146329
 Root      5 :     4.345097617293014
 Root      6 :     4.354865153127746
 Root      7 :     4.385568014012724
 Root      8 :     4.458856229852413
 Root      9 :     4.473882506291355
 Root     10 :     4.673892614432956
 Root     11 :     4.832927382980165
 Root     12 :     4.844497453692427
 Root     13 :     4.862046120215791
 Root     14 :     5.034706000003988
 Root     15 :     5.040915164397884
 Root     16 :     5.063509592712527
 Root     17 :     5.272397340060011
 Root     18 :     5.276217092859786
 Root     19 :     5.297354745748946
 Root     20 :     5.582904881042634
 Root     21 :     5.638751407258604
 Root     22 :     5.677541922731980
 Root     23 :     5.915650660399325
 Root     24 :     5.995427123159838
 Root     25 :     6.009353759671020
 Root     26 :     6.053567561660760
 Root     27 :     6.060966923130603
 Root     28 :     6.236522897690688
 Root     29 :     6.277667895110142
 Root     30 :     6.298625570982162
 Root     31 :     6.323005360768635
 Root     32 :     6.333378344230162
 Root     33 :     6.358143851297240
 Root     34 :     6.365414259530517
 Root     35 :     6.401394803825596
 Root     36 :     6.415380687434253
 Root     37 :     6.425710193158007
 Root     38 :     6.438808733867750
 Root     39 :     6.471798741373441
 Root     40 :     6.496545473228458
 Root     41 :     6.503749663455943
 Root     42 :     6.551975711514210
 Root     43 :     6.566169842839036
 Root     44 :     6.573236629855987
 Root     45 :     6.592461040109122
 Root     46 :     6.617008119038696
 Root     47 :     6.652373743756092
 Root     48 :     6.702262056543247
 Root     49 :     6.714011875158248
 Root     50 :     6.757361305662764
 Root     51 :     6.821477490354478
 Root     52 :     6.904246530825612
 Root     53 :     6.906076130931292
 Root     54 :     6.913262939943722
 Root     55 :     6.970612486208552
 Root     56 :     6.976370601301881
 Root     57 :     6.984067896904413
 Root     58 :     7.015720167125351
 Root     59 :     7.016513302565202
 Root     60 :     7.022880084373455
 Root     61 :     7.028609598949353
 Root     62 :     7.054223183215161
 Root     63 :     7.079798067851782
 Root     64 :     7.094547226008389
 Root     65 :     7.122916260146914
 Root     66 :     7.152236047311465
 Root     67 :     7.172769074922591
 Root     68 :     7.181431595709626
 Root     69 :     7.191624358825034
 Root     70 :     7.211748260200607
 Root     71 :     7.217175998314001
 Root     72 :     7.257526135242425
 Root     73 :     7.333860002059203
 Root     74 :     7.346999161711825
 Root     75 :     7.405609829137005
 Root     76 :     7.410021186772998
 Root     77 :     7.411286136845649
 Root     78 :     7.418490277047850
 Root     79 :     7.437448029949692
 Root     80 :     7.454839866842911
 Root     81 :     7.460625607733748
 Root     82 :     7.524244690676758
 Root     83 :     7.533905253261278
 Root     84 :     7.551469478512375
 Root     85 :     7.565939816324199
 Root     86 :     7.603148402326010
 Root     87 :     7.619241202379579
 Root     88 :     7.626507711751557
 Root     89 :     7.643385270631679
 Root     90 :     7.644567461596526
 Root     91 :     7.661955535502753
 Root     92 :     7.663925100532358
 Root     93 :     7.672004127687037
 Root     94 :     7.692808438804104
 Root     95 :     7.704753202785160
 Root     96 :     7.707965007141030
 Root     97 :     7.716452503517791
 Root     98 :     7.733441497020660
 Root     99 :     7.745346704884103
 Root    100 :     7.745648288023764
 Root    101 :     7.752662659635066
 Root    102 :     7.769249160255025
 Root    103 :     7.773800269412195
 Root    104 :     7.781693178131621
 Root    105 :     7.792126924712591
 Root    106 :     7.800334098171039
 Root    107 :     7.860304190607885
 Root    108 :     7.897676311707423
 Root    109 :     7.915254117525391
 Root    110 :     7.924998645434631
 Root    111 :     7.935444185023572
 Root    112 :     7.938836520294920
 Root    113 :     7.957688819751235
 Root    114 :     7.966011989659972
 Root    115 :     7.976463073058479
 Root    116 :     7.980407166945968
 Root    117 :     7.983411256882678
 Root    118 :     7.992368348723903
 Root    119 :     8.005258618453514
 Root    120 :     8.015015312591601
 Root    121 :     8.016582480278419
 Root    122 :     8.021703895796573
 Root    123 :     8.026059020936550
 Root    124 :     8.053381094009199
 Root    125 :     8.062531403325064
 Root    126 :     8.075036043142839
 Root    127 :     8.094514877458497
 Root    128 :     8.119807562975325
 Root    129 :     8.132708202264533
 Root    130 :     8.135928953583136
 Root    131 :     8.152883372943917
 Root    132 :     8.155112052600542
 Root    133 :     8.157228337516718
 Root    134 :     8.162543525650266
 Root    135 :     8.168051366220746
 Root    136 :     8.187471139214642
 Root    137 :     8.190901754685138
 Root    138 :     8.200525758064678
 Root    139 :     8.202265179408723
 Root    140 :     8.207029974253093
 Root    141 :     8.208994885074139
 Root    142 :     8.301560108751916
 Root    143 :     8.318573192759606
 Root    144 :     8.346390080637258
 Root    145 :     8.391739322298173
 Root    146 :     8.396896622530830
 Root    147 :     8.410743821302969
 Root    148 :     8.415721871204793
 Root    149 :     8.417463733796945
 Root    150 :     8.434314834389120
 Root    151 :     8.450864317274469
 Root    152 :     8.456757022484002
 Root    153 :     8.464555109474487
 Root    154 :     8.476475154686277
 Root    155 :     8.504179971716432
 Root    156 :     8.506668103267751
 Root    157 :     8.515663224658017
 Root    158 :     8.520416080446047
 Root    159 :     8.548037943358302
 Root    160 :     8.567483438314468
 Root    161 :     8.585757233946936
 Root    162 :     8.609979569754611
 Root    163 :     8.614164615030294
 Root    164 :     8.624934862646686
 Root    165 :     8.641242246292340
 Root    166 :     8.652322922864846
 Root    167 :     8.674093650180961
 Root    168 :     8.691779464205569
 Root    169 :     8.697703583559059
 Root    170 :     8.713368271265503
 Root    171 :     8.721066131523143
 Root    172 :     8.747963073597290
 Root    173 :     8.776043105771832
 Root    174 :     8.787033051776367
 Root    175 :     8.807640664743968
 Root    176 :     8.814425534193269
 Root    177 :     8.825527132615450
 Root    178 :     8.828913279679933
 Root    179 :     8.837996171048468
 Root    180 :     8.888400443699128
 Root    181 :     8.904956974484067
 Root    182 :     8.906206870000762
 Root    183 :     8.913637310563674
 Root    184 :     8.931028770839930
 Root    185 :     8.941650742583503
 Root    186 :     8.953597672053748
 Root    187 :     8.957509489745105
 Root    188 :     9.064139225643091
 Root    189 :     9.076498923156468
 Root    190 :     9.098241798265468
 Root    191 :     9.103941246072351
 Root    192 :     9.109604470372810
 Root    193 :     9.112028024531808
 Root    194 :     9.153400296633347
 Root    195 :     9.187066356817120
 Root    196 :     9.199775612112584
 Root    197 :     9.205945991370696
 Root    198 :     9.216385571051484
 Root    199 :     9.220454328112579
 Root    200 :     9.255961332862119
 Iteration     2 Dimension   300 NMult   200 NNew    100
 CISAX will form   100 AO SS matrices at one time.
 NMat=   100 NSing=   100 JSym2X= 0.
 Root      1 not converged, maximum delta is    0.030340776016126
 Root      2 not converged, maximum delta is    0.056078246723286
 Root      3 not converged, maximum delta is    0.057228542093239
 Root      4 not converged, maximum delta is    0.080838857644846
 Root      5 not converged, maximum delta is    0.049564216738861
 New state      6 was old state      7
 Root      6 not converged, maximum delta is    0.113510533612124
 New state      7 was old state      6
 Root      7 not converged, maximum delta is    0.108907122284766
 Root      8 not converged, maximum delta is    0.061003908177550
 Root      9 not converged, maximum delta is    0.060972121201918
 New state     10 was old state     11
 Root     10 not converged, maximum delta is    0.090185099400691
 New state     11 was old state     12
 Root     11 not converged, maximum delta is    0.104174580715858
 New state     12 was old state     13
 Root     12 not converged, maximum delta is    0.088397154707067
 New state     13 was old state     10
 Root     13 not converged, maximum delta is    0.033483373804055
 New state     14 was old state     16
 Root     14 not converged, maximum delta is    0.174552019671996
 New state     15 was old state     17
 Root     15 not converged, maximum delta is    0.216920663294935
 New state     16 was old state     18
 Root     16 not converged, maximum delta is    0.291002327301078
 New state     17 was old state     19
 Root     17 not converged, maximum delta is    0.115295976163200
 New state     18 was old state     14
 Root     18 not converged, maximum delta is    0.073063360232786
 New state     19 was old state     15
 Root     19 not converged, maximum delta is    0.079705556375656
 New state     20 was old state     27
 Root     20 not converged, maximum delta is    0.110216912644243
 New state     21 was old state     20
 Root     21 not converged, maximum delta is    0.065563733962342
 New state     22 was old state     24
 Root     22 not converged, maximum delta is    0.426818301345790
 New state     23 was old state     25
 Root     23 not converged, maximum delta is    0.249684268460657
 New state     24 was old state     21
 Root     24 not converged, maximum delta is    0.207361840521881
 New state     25 was old state     26
 Root     25 not converged, maximum delta is    0.356723140733736
 New state     26 was old state     22
 Root     26 not converged, maximum delta is    0.096947220195680
 New state     27 was old state     23
 Root     27 not converged, maximum delta is    0.307330493346626
 New state     28 was old state     44
 Root     28 not converged, maximum delta is    0.264008265386909
 New state     29 was old state     45
 Root     29 not converged, maximum delta is    0.213169911348018
 New state     30 was old state     35
 Root     30 not converged, maximum delta is    0.228720745469778
 Root     31 not converged, maximum delta is    0.258335473172448
 New state     32 was old state     33
 Root     32 not converged, maximum delta is    0.286954991347300
 New state     33 was old state     32
 Root     33 not converged, maximum delta is    0.221618694810473
 New state     34 was old state     36
 Root     34 not converged, maximum delta is    0.135453590532267
 New state     35 was old state     30
 Root     35 not converged, maximum delta is    0.375114393808348
 New state     36 was old state     28
 Root     36 not converged, maximum delta is    0.202618307679189
 New state     37 was old state     29
 Root     37 not converged, maximum delta is    0.228667116131983
 Root     38 not converged, maximum delta is    0.173145460249175
 New state     39 was old state     34
 Root     39 not converged, maximum delta is    0.232433390857424
 New state     40 was old state     37
 Root     40 not converged, maximum delta is    0.291701271574962
 New state     41 was old state     40
 Root     41 not converged, maximum delta is    0.181404481954681
 New state     42 was old state     41
 Root     42 not converged, maximum delta is    0.413238756387650
 New state     43 was old state     39
 Root     43 not converged, maximum delta is    0.251610999065241
 New state     44 was old state     46
 Root     44 not converged, maximum delta is    0.227338954793584
 New state     45 was old state     43
 Root     45 not converged, maximum delta is    0.418966488821307
 New state     46 was old state     42
 Root     46 not converged, maximum delta is    0.237822026456109
 New state     47 was old state     71
 Root     47 not converged, maximum delta is    0.309495730050645
 New state     48 was old state     70
 Root     48 not converged, maximum delta is    0.236040974139873
 New state     49 was old state     50
 Root     49 not converged, maximum delta is    0.399620708887280
 New state     50 was old state     47
 Root     50 not converged, maximum delta is    0.101630845538906
 Excitation Energies [eV] at current iteration:
 Root      1 :     3.492554202556404   Change is   -0.078213905556982
 Root      2 :     3.687110731562885   Change is   -0.085516500908292
 Root      3 :     3.831003980398551   Change is   -0.063381008787548
 Root      4 :     3.873065330638671   Change is   -0.143026043507659
 Root      5 :     4.307077598082341   Change is   -0.038020019210673
 Root      6 :     4.313699225049914   Change is   -0.071868788962810
 Root      7 :     4.317153932423397   Change is   -0.037711220704350
 Root      8 :     4.381950257276315   Change is   -0.076905972576099
 Root      9 :     4.449731632565484   Change is   -0.024150873725871
 Root     10 :     4.516514443455563   Change is   -0.316412939524602
 Root     11 :     4.526964244455481   Change is   -0.317533209236946
 Root     12 :     4.539762501148092   Change is   -0.322283619067700
 Root     13 :     4.610664810459748   Change is   -0.063227803973207
 Root     14 :     4.824234736538647   Change is   -0.239274856173880
 Root     15 :     4.838293889125034   Change is   -0.434103450934976
 Root     16 :     4.848016028855790   Change is   -0.428201064003997
 Root     17 :     4.867349574974483   Change is   -0.430005170774463
 Root     18 :     5.001519468834562   Change is   -0.033186531169426
 Root     19 :     5.009314034296352   Change is   -0.031601130101532
 Root     20 :     5.388931294749442   Change is   -0.672035628381160
 Root     21 :     5.458951326152084   Change is   -0.123953554890550
 Root     22 :     5.497299049429309   Change is   -0.498128073730529
 Root     23 :     5.511108361173625   Change is   -0.498245398497395
 Root     24 :     5.514191183872252   Change is   -0.124560223386353
 Root     25 :     5.543505141814425   Change is   -0.510062419846335
 Root     26 :     5.605078912148427   Change is   -0.072463010583554
 Root     27 :     5.772131465024154   Change is   -0.143519195375171
 Root     28 :     5.802914636887670   Change is   -0.770321992968317
 Root     29 :     5.854146277911647   Change is   -0.738314762197475
 Root     30 :     5.868298683569099   Change is   -0.533096120256497
 Root     31 :     5.875192138295255   Change is   -0.447813222473380
 Root     32 :     5.889213564469006   Change is   -0.468930286828233
 Root     33 :     5.901690786455216   Change is   -0.431687557774946
 Root     34 :     5.910476238792447   Change is   -0.504904448641806
 Root     35 :     5.949308066893948   Change is   -0.349317504088214
 Root     36 :     6.146449364466498   Change is   -0.090073533224190
 Root     37 :     6.188014823723164   Change is   -0.089653071386977
 Root     38 :     6.229296021412396   Change is   -0.209512712455355
 Root     39 :     6.280352103683310   Change is   -0.085062155847207
 Root     40 :     6.344472513414106   Change is   -0.081237679743901
 Root     41 :     6.382065401001978   Change is   -0.114480072226481
 Root     42 :     6.391428435427378   Change is   -0.112321228028565
 Root     43 :     6.427166007403914   Change is   -0.044632733969528
 Root     44 :     6.463264601071900   Change is   -0.153743517966795
 Root     45 :     6.481914426699563   Change is   -0.084255416139473
 Root     46 :     6.495268532785268   Change is   -0.056707178728942
 Root     47 :     6.551540189387985   Change is   -0.665635808926017
 Root     48 :     6.554946649533503   Change is   -0.656801610667104
 Root     49 :     6.590190291045885   Change is   -0.167171014616879
 Root     50 :     6.619558795630399   Change is   -0.032814948125694
 Iteration     3 Dimension   400 NMult   300 NNew    100
 CISAX will form   100 AO SS matrices at one time.
 NMat=   100 NSing=   100 JSym2X= 0.
 Root      1 not converged, maximum delta is    0.003169628916622
 Root      2 not converged, maximum delta is    0.004277655899112
 Root      3 not converged, maximum delta is    0.008250339490304
 Root      4 not converged, maximum delta is    0.011015786812312
 Root      5 not converged, maximum delta is    0.045237933748919
 Root      6 not converged, maximum delta is    0.083451804435330
 Root      7 not converged, maximum delta is    0.044911195698286
 Root      8 not converged, maximum delta is    0.012261896911026
 Root      9 not converged, maximum delta is    0.020559572809148
 Root     10 not converged, maximum delta is    0.015608076773271
 Root     11 not converged, maximum delta is    0.028511406284542
 Root     12 not converged, maximum delta is    0.034577218244768
 Root     13 not converged, maximum delta is    0.008156226192473
 Root     14 not converged, maximum delta is    0.058287667083095
 Root     15 not converged, maximum delta is    0.028356445767865
 Root     16 not converged, maximum delta is    0.059658314126975
 Root     17 not converged, maximum delta is    0.055993265509474
 Root     18 not converged, maximum delta is    0.016486459831020
 Root     19 not converged, maximum delta is    0.016900270176523
 Root     20 not converged, maximum delta is    0.014956941833220
 Root     21 not converged, maximum delta is    0.034107251964955
 Root     22 not converged, maximum delta is    0.256044093693589
 Root     23 not converged, maximum delta is    0.232120512803706
 Root     24 not converged, maximum delta is    0.184123415426621
 Root     25 not converged, maximum delta is    0.042397037647379
 Root     26 not converged, maximum delta is    0.008808109274008
 Root     27 not converged, maximum delta is    0.037173253752467
 Root     28 not converged, maximum delta is    0.021273790939457
 Root     29 not converged, maximum delta is    0.037920494573024
 Root     30 not converged, maximum delta is    0.064596719117719
 Root     31 not converged, maximum delta is    0.071852515946936
 Root     32 not converged, maximum delta is    0.061211378169157
 Root     33 not converged, maximum delta is    0.035481518730146
 Root     34 not converged, maximum delta is    0.037620693002922
 Root     35 not converged, maximum delta is    0.047264205365188
 Root     36 not converged, maximum delta is    0.012569471634491
 Root     37 not converged, maximum delta is    0.024747058357837
 Root     38 not converged, maximum delta is    0.087172268749967
 Root     39 not converged, maximum delta is    0.134642005250401
 New state     40 was old state     44
 Root     40 not converged, maximum delta is    0.320293907096601
 Root     41 not converged, maximum delta is    0.320926638906944
 Root     42 not converged, maximum delta is    0.263352031642657
 New state     43 was old state     40
 Root     43 not converged, maximum delta is    0.125072113476056
 New state     44 was old state     43
 Root     44 not converged, maximum delta is    0.371385659466993
 New state     45 was old state     46
 Root     45 not converged, maximum delta is    0.358763193650970
 New state     46 was old state     45
 Root     46 not converged, maximum delta is    0.322636593111040
 New state     47 was old state     48
 Root     47 not converged, maximum delta is    0.268411963995195
 New state     48 was old state     47
 Root     48 not converged, maximum delta is    0.315559833190119
 Root     49 not converged, maximum delta is    0.209935273248309
 Root     50 not converged, maximum delta is    0.080084602106234
 Excitation Energies [eV] at current iteration:
 Root      1 :     3.488876987282246   Change is   -0.003677215274158
 Root      2 :     3.682901836058782   Change is   -0.004208895504103
 Root      3 :     3.827669815811405   Change is   -0.003334164587146
 Root      4 :     3.865514476956954   Change is   -0.007550853681716
 Root      5 :     4.305518495624843   Change is   -0.001559102457499
 Root      6 :     4.308999335563942   Change is   -0.004699889485973
 Root      7 :     4.315736937519039   Change is   -0.001416994904357
 Root      8 :     4.377464232441286   Change is   -0.004486024835029
 Root      9 :     4.447978988093300   Change is   -0.001752644472185
 Root     10 :     4.497659071835607   Change is   -0.018855371619956
 Root     11 :     4.508496898145428   Change is   -0.018467346310053
 Root     12 :     4.521084533681901   Change is   -0.018677967466190
 Root     13 :     4.607654990476467   Change is   -0.003009819983280
 Root     14 :     4.807713742453905   Change is   -0.016520994084742
 Root     15 :     4.816681467249711   Change is   -0.021612421875323
 Root     16 :     4.830647351720295   Change is   -0.017368677135495
 Root     17 :     4.846515772553326   Change is   -0.020833802421157
 Root     18 :     4.999585609803542   Change is   -0.001933859031019
 Root     19 :     5.007170009550249   Change is   -0.002144024746104
 Root     20 :     5.361572058336750   Change is   -0.027359236412692
 Root     21 :     5.451901500459103   Change is   -0.007049825692981
 Root     22 :     5.468578438532795   Change is   -0.028720610896514
 Root     23 :     5.482460250497075   Change is   -0.028648110676551
[...]
 Alpha virt. eigenvalues --    2.41763   2.41908   2.42628   2.43152   2.43236
 Alpha virt. eigenvalues --    2.43450   2.43627   2.44340   2.44476   2.44937
 Alpha virt. eigenvalues --    2.45833   2.46244   2.46490   2.47236   2.47467
 Alpha virt. eigenvalues --    2.47610   2.48332   2.48422   2.48783   2.49725
 Alpha virt. eigenvalues --    2.51035   2.51077   2.51596   2.51801   2.52524
 Alpha virt. eigenvalues --    2.52816   2.52971   2.53111   2.54640   2.54755
 Alpha virt. eigenvalues --    2.54971   2.55820   2.56885   2.57452   2.57464
 Alpha virt. eigenvalues --    2.57739   2.58155   2.58385   2.59390   2.59591
 Alpha virt. eigenvalues --    2.59822   2.60411   2.60638   2.61174   2.61547
 Alpha virt. eigenvalues --    2.61667   2.61906   2.62925   2.64963   2.65224
 Alpha virt. eigenvalues --    2.66005   2.66200   2.66455   2.66689   2.66852
 Alpha virt. eigenvalues --    2.67134   2.67997   2.68325   2.68388   2.70566
 Alpha virt. eigenvalues --    2.70652   2.71055   2.71469   2.71827   2.71926
 Alpha virt. eigenvalues --    2.72563   2.72640   2.72774   2.73012   2.73049
 Alpha virt. eigenvalues --    2.73441   2.73831   2.74199   2.74254   2.74422
 Alpha virt. eigenvalues --    2.74572   2.74820   2.74999   2.75081   2.75450
 Alpha virt. eigenvalues --    2.75775   2.75979   2.76069   2.76150   2.76517
 Alpha virt. eigenvalues --    2.77138   2.77366   2.77851   2.78019   2.78214
 Alpha virt. eigenvalues --    2.78442   2.78649   2.78672   2.79344   2.79586
 Alpha virt. eigenvalues --    2.79820   2.80093   2.80466   2.80751   2.81055
 Alpha virt. eigenvalues --    2.81620   2.81940   2.81981   2.82186   2.82333
 Alpha virt. eigenvalues --    2.82503   2.82560   2.82678   2.82782   2.82952
 Alpha virt. eigenvalues --    2.83267   2.83498   2.83791   2.83957   2.84181
 Alpha virt. eigenvalues --    2.84504   2.84587   2.84819   2.84915   2.85252
 Alpha virt. eigenvalues --    2.85367   2.85480   2.85791   2.86486   2.86712
 Alpha virt. eigenvalues --    2.87388   2.87539   2.87633   2.87829   2.88516
 Alpha virt. eigenvalues --    2.88926   2.88999   2.89568   2.89768   2.90460
 Alpha virt. eigenvalues --    2.90476   2.90813   2.91085   2.91535   2.91687
 Alpha virt. eigenvalues --    2.91936   2.92056   2.92199   2.92750   2.92782
 Alpha virt. eigenvalues --    2.93318   2.93733   2.93895   2.94120   2.94761
 Alpha virt. eigenvalues --    2.94902   2.95061   2.95196   2.95556   2.95743
 Alpha virt. eigenvalues --    2.95885   2.96155   2.96697   2.96788   2.97162
 Alpha virt. eigenvalues --    2.97332   2.97931   2.98555   2.98704   2.99138
 Alpha virt. eigenvalues --    3.00205   3.00545   3.01576   3.01670   3.01754
 Alpha virt. eigenvalues --    3.02079   3.02435   3.02946   3.03261   3.03397
 Alpha virt. eigenvalues --    3.03462   3.03739   3.03920   3.04227   3.04581
 Alpha virt. eigenvalues --    3.05011   3.05202   3.05371   3.05736   3.06061
 Alpha virt. eigenvalues --    3.06380   3.06699   3.06814   3.07121   3.07412
 Alpha virt. eigenvalues --    3.07569   3.08073   3.08202   3.08693   3.09361
 Alpha virt. eigenvalues --    3.09521   3.10245   3.10972   3.11169   3.12027
 Alpha virt. eigenvalues --    3.12126   3.12212   3.12489   3.13080   3.13145
 Alpha virt. eigenvalues --    3.13312   3.13953   3.14323   3.14615   3.14998
 Alpha virt. eigenvalues --    3.15059   3.15393   3.15755   3.15813   3.15914
 Alpha virt. eigenvalues --    3.16058   3.16357   3.16432   3.17328   3.17694
 Alpha virt. eigenvalues --    3.17870   3.17957   3.18253   3.19436   3.19524
 Alpha virt. eigenvalues --    3.19921   3.20346   3.21267   3.21867   3.22417
 Alpha virt. eigenvalues --    3.22549   3.22648   3.23113   3.23369   3.23393
 Alpha virt. eigenvalues --    3.23610   3.24066   3.24320   3.24476   3.24798
 Alpha virt. eigenvalues --    3.25144   3.25351   3.25541   3.25727   3.26032
 Alpha virt. eigenvalues --    3.26067   3.26182   3.26370   3.26826   3.26920
 Alpha virt. eigenvalues --    3.27493   3.27512   3.27728   3.28035   3.28128
 Alpha virt. eigenvalues --    3.28180   3.28678   3.28908   3.29020   3.29193
 Alpha virt. eigenvalues --    3.29366   3.29675   3.30174   3.30371   3.30584
 Alpha virt. eigenvalues --    3.30972   3.31084   3.31954   3.32458   3.32653
 Alpha virt. eigenvalues --    3.32782   3.33450   3.33514   3.34098   3.34470
 Alpha virt. eigenvalues --    3.34589   3.34782   3.35283   3.35682   3.35857
 Alpha virt. eigenvalues --    3.35995   3.36285   3.36547   3.36820   3.37095
 Alpha virt. eigenvalues --    3.37565   3.37758   3.38471   3.38554   3.38963
 Alpha virt. eigenvalues --    3.39199   3.39890   3.39962   3.40295   3.40405
 Alpha virt. eigenvalues --    3.40636   3.40979   3.41040   3.41547   3.42107
 Alpha virt. eigenvalues --    3.42415   3.42476   3.42715   3.43292   3.43493
 Alpha virt. eigenvalues --    3.43517   3.43755   3.43991   3.44037   3.44412
 Alpha virt. eigenvalues --    3.44758   3.45045   3.45229   3.45455   3.45740
 Alpha virt. eigenvalues --    3.46449   3.46582   3.46812   3.47099   3.47541
 Alpha virt. eigenvalues --    3.47604   3.48214   3.48376   3.48769   3.48892
 Alpha virt. eigenvalues --    3.49440   3.49535   3.49602   3.49917   3.50004
 Alpha virt. eigenvalues --    3.50383   3.50600   3.50631   3.50983   3.51250
 Alpha virt. eigenvalues --    3.51658   3.52000   3.52398   3.52746   3.53248
 Alpha virt. eigenvalues --    3.53319   3.53649   3.54738   3.55191   3.55520
 Alpha virt. eigenvalues --    3.56032   3.56432   3.56587   3.57613   3.57904
 Alpha virt. eigenvalues --    3.58039   3.58348   3.58576   3.58914   3.58960
 Alpha virt. eigenvalues --    3.59209   3.59572   3.59885   3.59911   3.60090
 Alpha virt. eigenvalues --    3.60236   3.60402   3.60834   3.61209   3.61457
 Alpha virt. eigenvalues --    3.61485   3.61714   3.62064   3.62169   3.62425
 Alpha virt. eigenvalues --    3.62676   3.62878   3.63089   3.63332   3.63413
 Alpha virt. eigenvalues --    3.64714   3.64790   3.65468   3.65994   3.66199
 Alpha virt. eigenvalues --    3.66423   3.66506   3.67054   3.67298   3.67403
 Alpha virt. eigenvalues --    3.67415   3.67525   3.67741   3.68267   3.68698
 Alpha virt. eigenvalues --    3.68729   3.69513   3.69840   3.70025   3.70751
 Alpha virt. eigenvalues --    3.70887   3.71419   3.71589   3.71783   3.71893
 Alpha virt. eigenvalues --    3.72054   3.72246   3.72805   3.73343   3.73600
 Alpha virt. eigenvalues --    3.73906   3.74200   3.74638   3.75122   3.75629
 Alpha virt. eigenvalues --    3.75927   3.76592   3.76913   3.77461   3.78360
 Alpha virt. eigenvalues --    3.79062   3.79434   3.79762   3.83104   3.84777
 Alpha virt. eigenvalues --    3.85716   3.86109   3.87123   3.88164   3.88478
 Alpha virt. eigenvalues --    3.89037   3.89160   3.89646   3.90462   3.90628
 Alpha virt. eigenvalues --    3.91080   3.91484   3.91538   3.91796   3.91942
 Alpha virt. eigenvalues --    3.93014   3.94167   3.95473   3.95810   3.96890
 Alpha virt. eigenvalues --    3.97199   3.97302   3.98167   3.98494   3.99778
 Alpha virt. eigenvalues --    3.99959   4.01228   4.01755   4.01992   4.03345
 Alpha virt. eigenvalues --    4.03405   4.03789   4.03909   4.04091   4.04249
 Alpha virt. eigenvalues --    4.04705   4.04763   4.05042   4.05094   4.05887
 Alpha virt. eigenvalues --    4.06079   4.06319   4.06634   4.07103   4.07564
 Alpha virt. eigenvalues --    4.07780   4.07987   4.08336   4.09169   4.10281
 Alpha virt. eigenvalues --    4.10480   4.10962   4.11779   4.12453   4.12547
 Alpha virt. eigenvalues --    4.13125   4.13683   4.14952   4.15653   4.16943
 Alpha virt. eigenvalues --    4.18252   4.18324   4.18732   4.19679   4.19767
 Alpha virt. eigenvalues --    4.20016   4.20264   4.20762   4.20863   4.21051
 Alpha virt. eigenvalues --    4.21333   4.21771   4.22176   4.22326   4.22424
 Alpha virt. eigenvalues --    4.22911   4.24005   4.25164   4.25373   4.25645
 Alpha virt. eigenvalues --    4.25956   4.26182   4.26445   4.27008   4.27160
 Alpha virt. eigenvalues --    4.28086   4.28415   4.28631   4.29339   4.29470
 Alpha virt. eigenvalues --    4.29521   4.29708   4.29969   4.30069   4.30099
 Alpha virt. eigenvalues --    4.30344   4.31163   4.31244   4.31578   4.31611
 Alpha virt. eigenvalues --    4.31750   4.32062   4.33249   4.33375   4.33854
 Alpha virt. eigenvalues --    4.34065   4.35792   4.35959   4.36286   4.36657
 Alpha virt. eigenvalues --    4.36925   4.37693   4.38129   4.38735   4.39261
 Alpha virt. eigenvalues --    4.39603   4.40061   4.40306   4.40854   4.41029
 Alpha virt. eigenvalues --    4.41770   4.41970   4.42208   4.42670   4.42755
 Alpha virt. eigenvalues --    4.43423   4.43611   4.44290   4.44871   4.45577
 Alpha virt. eigenvalues --    4.45900   4.46623   4.47618   4.48531   4.48925
 Alpha virt. eigenvalues --    4.50751   4.50869   4.51074   4.52632   4.52878
 Alpha virt. eigenvalues --    4.52952   4.53158   4.54664   4.55058   4.58214
 Alpha virt. eigenvalues --    4.58811   4.59165   4.60869   4.61315   4.62431
 Alpha virt. eigenvalues --    4.64340   4.64722   4.65140   4.65209   4.65650
 Alpha virt. eigenvalues --    4.66185   4.66531   4.67062   4.68306   4.68523
 Alpha virt. eigenvalues --    4.68898   4.69030   4.69502   4.70728   4.70918
 Alpha virt. eigenvalues --    4.72217   4.73176   4.73401   4.74881   4.75685
 Alpha virt. eigenvalues --    4.77009   4.77530   4.78408   4.80294   4.81068
 Alpha virt. eigenvalues --    4.81779   4.81916   4.82066   4.82224   4.82585
 Alpha virt. eigenvalues --    4.83462   4.84284   4.84551   4.84651   4.85101
 Alpha virt. eigenvalues --    4.85440   4.88550   4.88649   4.89079   4.89671
 Alpha virt. eigenvalues --    4.89777   4.90917   4.92196   4.92399   4.92485
 Alpha virt. eigenvalues --    4.92605   4.93385   4.94103   4.94236   4.95029
 Alpha virt. eigenvalues --    4.95939   4.96183   4.98776   4.99964   5.00308
 Alpha virt. eigenvalues --    5.01822   5.02468   5.03976   5.06129   5.06465
 Alpha virt. eigenvalues --    5.06853   5.06969   5.07994   5.08255   5.08792
 Alpha virt. eigenvalues --    5.10029   5.10623   5.10729   5.11255   5.13398
 Alpha virt. eigenvalues --    5.14337   5.15369   5.16052   5.16623   5.16783
 Alpha virt. eigenvalues --    5.17703   5.18614   5.18737   5.21423   5.22388
 Alpha virt. eigenvalues --    5.24336   5.24896   5.25064   5.26547   5.26953
 Alpha virt. eigenvalues --    5.27411   5.27985   5.28351   5.29201   5.30079
 Alpha virt. eigenvalues --    5.31504   5.32813   5.33466   5.35168   5.35354
 Alpha virt. eigenvalues --    5.38246   5.40704   5.41906   5.43242   5.43721
 Alpha virt. eigenvalues --    5.44462   5.44913   5.45739   5.46120   5.46529
 Alpha virt. eigenvalues --    5.46708   5.47007   5.47126   5.47923   5.48068
 Alpha virt. eigenvalues --    5.51267   5.53956   5.55634   5.56182   5.56726
 Alpha virt. eigenvalues --    5.60279   5.62924   5.63822   5.65757   5.67860
 Alpha virt. eigenvalues --    5.68426   5.69522   5.69985   5.70562   5.71071
 Alpha virt. eigenvalues --    5.71668   5.71993   5.73124   5.74025   5.74703
 Alpha virt. eigenvalues --    5.77354   5.79134   5.81719   5.82959   5.83433
 Alpha virt. eigenvalues --    5.87071   5.87560   5.88191   5.88315   5.88728
 Alpha virt. eigenvalues --    5.89782   5.90830   5.92028   5.92562   5.94302
 Alpha virt. eigenvalues --    5.97427   6.03309   6.03473   6.05112   6.07152
 Alpha virt. eigenvalues --    6.18193   6.25619   6.29068   6.31434   6.31902
 Alpha virt. eigenvalues --    6.41968   6.43924   6.46322   6.55282   6.57779
 Alpha virt. eigenvalues --    6.60471   6.61714  10.88272  11.09763  11.54888
 Alpha virt. eigenvalues --   22.35564  22.36818  22.40369  22.58951  22.59530
 Alpha virt. eigenvalues --   22.60157  22.70631  22.72858  22.73190  22.73198
 Alpha virt. eigenvalues --   22.77173  22.77900  22.78702  22.79041  22.79554
 Alpha virt. eigenvalues --   22.80578  22.86259  22.86474  22.87356  22.89467
 Alpha virt. eigenvalues --   22.90016  22.90926  23.05885  23.06595  23.06916
 Alpha virt. eigenvalues --   23.08137  23.13995  23.14716  23.14963  23.25950
 Alpha virt. eigenvalues --   23.33319  23.34362  23.35682  23.35893  23.37114
 Alpha virt. eigenvalues --   23.66925  23.68191  23.68399  23.68911  23.92503
 Alpha virt. eigenvalues --   23.93323  23.93486  23.95585  24.06371  26.61537
 Alpha virt. eigenvalues --   32.37797  32.38901  33.51543  33.53801  33.57360
          Condensed to atoms (all electrons):
 Mulliken charges:
               1
     1  C   -0.164028
     2  C    0.068226
     3  C   -0.096951
     4  C    0.341249
     5  C   -0.125202
     6  C    0.387598
     7  C   -0.234582
     8  C   -0.243215
     9  N   -0.027990
    10  N   -0.029464
    11  N    0.159538
    12  C    0.075740
    13  C    0.069234
    14  C   -0.286626
    15  C    0.002736
    16  C   -0.279320
    17  C   -0.000300
    18  C   -0.128767
    19  H    0.171521
    20  C   -0.215767
    21  C   -0.133950
    22  H    0.185255
    23  C   -0.217880
    24  C   -0.158548
    25  H    0.164253
    26  H    0.160384
    27  C   -0.158322
    28  H    0.163074
    29  H    0.160529
    30  H    0.160734
    31  H    0.160464
    32  N    0.143724
    33  C    0.068164
    34  C    0.078072
    35  C   -0.280284
    36  C   -0.002207
    37  C   -0.284425
    38  C   -0.007194
    39  C   -0.136495
    40  H    0.191480
    41  C   -0.214803
    42  C   -0.128784
    43  H    0.178011
    44  C   -0.213236
    45  C   -0.159584
    46  H    0.163083
    47  H    0.160526
    48  C   -0.160653
    49  H    0.164310
    50  H    0.160536
    51  H    0.160382
    52  H    0.160732
    53  N    0.126953
    54  C    0.079753
    55  C    0.079280
    56  C   -0.297199
    57  C   -0.013535
    58  C   -0.294867
    59  C   -0.013469
    60  C   -0.122111
    61  H    0.187093
    62  C   -0.207468
    63  C   -0.126478
    64  H    0.190037
    65  C   -0.206492
    66  C   -0.165500
    67  H    0.163871
    68  H    0.160712
    69  C   -0.165021
    70  H    0.163450
    71  H    0.160585
    72  H    0.160407
    73  H    0.160304
    74  Cl   0.008717
 Sum of Mulliken charges =  -0.00000
 Mulliken charges with hydrogens summed into heavy atoms:
               1
     1  C   -0.164028
     2  C    0.068226
     3  C   -0.096951
     4  C    0.341249
     5  C   -0.125202
     6  C    0.387598
     7  C   -0.234582
     8  C   -0.243215
     9  N   -0.027990
    10  N   -0.029464
    11  N    0.159538
    12  C    0.075740
    13  C    0.069234
    14  C   -0.115105
    15  C    0.002736
    16  C   -0.094065
    17  C   -0.000300
    18  C    0.035485
    20  C   -0.055383
    21  C    0.029125
    23  C   -0.057351
    24  C    0.002186
    27  C    0.002142
    32  N    0.143724
    33  C    0.068164
    34  C    0.078072
    35  C   -0.088804
    36  C   -0.002207
    37  C   -0.106414
    38  C   -0.007194
    39  C    0.026588
    41  C   -0.054277
    42  C    0.035526
    44  C   -0.052700
    45  C    0.000798
    48  C    0.000079
    53  N    0.126953
    54  C    0.079753
    55  C    0.079280
    56  C   -0.110106
    57  C   -0.013535
    58  C   -0.104830
    59  C   -0.013469
    60  C    0.041760
    62  C   -0.046757
    63  C    0.036972
    65  C   -0.045907
    66  C   -0.005092
    69  C   -0.004717
    74  Cl   0.008717
 Electronic spatial extent (au):  <R**2>=          27659.9072
 Charge=             -0.0000 electrons
 Dipole moment (field-independent basis, Debye):
    X=              0.3086    Y=             -3.5171    Z=              0.0694  Tot=              3.5313
 Quadrupole moment (field-independent basis, Debye-Ang):
   XX=           -304.3316   YY=           -288.3224   ZZ=           -259.5068
   XY=             -2.8860   XZ=            -19.1208   YZ=             -0.5669
 Traceless Quadrupole moment (field-independent basis, Debye-Ang):
   XX=            -20.2780   YY=             -4.2688   ZZ=             24.5468
   XY=             -2.8860   XZ=            -19.1208   YZ=             -0.5669
 Octapole moment (field-independent basis, Debye-Ang**2):
  XXX=             79.5793  YYY=            128.4486  ZZZ=              2.1887  XYY=            -81.2773
  XXY=           -219.1960  XXZ=             29.8024  XZZ=              9.5625  YZZ=            -25.6414
  YYZ=            -29.7846  XYZ=            -78.8012
 Hexadecapole moment (field-independent basis, Debye-Ang**3):
 XXXX=         -15844.9989 YYYY=         -14514.7122 ZZZZ=          -5832.6293 XXXY=              1.7104
 XXXZ=           -284.1294 YYYX=            -80.0992 YYYZ=             -1.9479 ZZZX=           -207.8614
 ZZZY=             -7.8572 XXYY=          -5185.1411 XXZZ=          -3493.2072 YYZZ=          -3427.7212
 XXYZ=             -7.2714 YYXZ=            -34.0185 ZZXY=             -9.0787
 N-N= 6.269756784351D+03 E-N=-1.819367491016D+04  KE= 2.415180448096D+03
 Leave Link  601 at Sun Jul  3 03:23:28 2022, MaxMem=  5242880000 cpu:        13.8
 (Enter /opt/nce/packages/global/g09/l9999.exe)
 1\1\GINC-CN081\SP\RwB97XD TD-FC\def2TZVP\C44H24Cl1N5\PNG4RJV\03-Jul-20
 22\0\\#p wB97XD/def2TZVP td=(NStates=50) int=ultrafine scrf=(SMD,solve
 nt=Acetonitrile)\\Title\\0,1\C,0,1.287476,-0.551936,0.156473\C,0,0.187
 622,-1.395445,0.025439\C,0,-1.090149,-0.865575,-0.142537\C,0,-1.252484
 ,0.520828,-0.18899\C,0,-0.170676,1.383952,-0.030201\C,0,1.09515,0.8308
 14,0.146967\C,0,-2.552339,1.059477,-0.446152\C,0,2.219166,1.687582,0.3
 65214\N,0,-3.592556,1.492264,-0.661744\N,0,3.118814,2.375524,0.547389\
 N,0,2.57976,-1.06408,0.329642\C,0,3.102875,-1.563177,1.517511\C,0,3.55
 3811,-1.145124,-0.660213\C,0,2.49696,-1.66864,2.761493\C,0,4.427618,-1
 .968057,1.290382\C,0,3.474535,-0.774423,-1.995154\C,0,4.715824,-1.7016
 96,-0.102865\C,0,3.254112,-2.201523,3.790607\H,0,1.475146,-1.34733,2.9
 21568\C,0,5.168812,-2.498944,2.341533\C,0,4.602791,-0.968123,-2.773693
 \H,0,2.568717,-0.351644,-2.411401\C,0,5.836359,-1.887909,-0.906451\C,0
 ,4.574825,-2.613265,3.5863\H,0,2.81236,-2.299907,4.774444\H,0,6.192906
 ,-2.815457,2.18564\C,0,5.771969,-1.51744,-2.238441\H,0,4.576482,-0.688
 334,-3.819513\H,0,6.741991,-2.315834,-0.494207\H,0,5.137387,-3.024782,
 4.414725\H,0,6.63544,-1.654866,-2.876953\N,0,-2.20799,-1.694417,-0.288
 57\C,0,-3.192359,-1.898865,0.674463\C,0,-2.532945,-2.427615,-1.425683\
 C,0,-3.280663,-1.37727,1.957287\C,0,-4.155864,-2.775912,0.152837\C,0,-
 1.856005,-2.509499,-2.634237\C,0,-3.73504,-3.112603,-1.190743\C,0,-4.3
 74826,-1.751313,2.718661\H,0,-2.527648,-0.703947,2.347336\C,0,-5.24490
 8,-3.139508,0.938582\C,0,-2.410331,-3.311827,-3.616808\H,0,-0.934158,-
 1.967397,-2.804855\C,0,-4.273388,-3.911619,-2.19464\C,0,-5.347494,-2.6
 22037,2.218133\H,0,-4.476268,-1.360742,3.723577\H,0,-5.997697,-3.81610
 5,0.55298\C,0,-3.604265,-4.007438,-3.402246\H,0,-1.907627,-3.399483,-4
 .571977\H,0,-5.201357,-4.446036,-2.03188\H,0,-6.189503,-2.894099,2.841
 917\H,0,-4.009727,-4.624598,-4.193983\N,0,-0.353668,2.769885,-0.046086
 \C,0,0.100125,3.643799,-1.033663\C,0,-1.033954,3.505491,0.923661\C,0,0
 .802747,3.362783,-2.196934\C,0,-0.291421,4.947512,-0.693495\C,0,-1.637
 381,3.063797,2.092573\C,0,-1.014854,4.859192,0.55686\C,0,1.122221,4.43
 038,-3.018375\H,0,1.091572,2.352433,-2.457162\C,0,0.039092,6.004105,-1
 .535954\C,0,-2.241553,4.017814,2.893399\H,0,-1.637404,2.017968,2.37235
 7\C,0,-1.626584,5.80016,1.378954\C,0,0.747871,5.737546,-2.694095\H,0,1
 .672764,4.245239,-3.932304\H,0,-0.256844,7.015997,-1.287667\C,0,-2.239
 646,5.371118,2.542941\H,0,-2.724181,3.705946,3.811218\H,0,-1.619895,6.
 849435,1.110417\H,0,1.014303,6.548158,-3.36046\H,0,-2.721496,6.089821,
 3.193623\Cl,0,0.408072,-3.095651,0.080938\\Version=ES64L-G09RevE.01\St
 ate=1-A\HF=-2425.1946541\RMSD=7.406e-09\PG=C01 [X(C44H24Cl1N5)]\\@


 ON A CLEAR DISK YOU CAN SEEK FOREVER.
 Job cpu time:      13 days 11 hours  1 minutes  3.3 seconds.
 File lengths (MBytes):  RWF=  19682 Int=      0 D2E=      0 Chk=   4019 Scr=      1
 Normal termination of Gaussian 09 at Sun Jul  3 03:23:34 2022.
