 Entering Gaussian System, Link 0=g09
 Input=/home/png4rjv/fotokatalizis/benchmark/OPCs/CA_50_states/CA_3_B3LYP-D3_def2TZVP.gjf
 Output=/home/png4rjv/fotokatalizis/benchmark/OPCs/CA_50_states/CA_3_B3LYP-D3_def2TZVP.log
 Initial command:
 /opt/nce/packages/global/g09/l1.exe "/home/png4rjv/fotokatalizis/benchmark/OPCs/CA_50_states/CA_3_B3LYP-D3_def2TZVP/Gau-39543.inp" -scrdir="/home/png4rjv/fotokatalizis/benchmark/OPCs/CA_50_states/CA_3_B3LYP-D3_def2TZVP/"
 Default is to use a total of  12 processors:
                               12 via shared-memory
                                1 via Linda
 Entering Link 1 = /opt/nce/packages/global/g09/l1.exe PID=     39544.
  
 Copyright (c) 1988,1990,1992,1993,1995,1998,2003,2009,2015,
            Gaussian, Inc.  All Rights Reserved.
  
 This is part of the Gaussian(R) 09 program.  It is based on
 the Gaussian(R) 03 system (copyright 2003, Gaussian, Inc.),
 the Gaussian(R) 98 system (copyright 1998, Gaussian, Inc.),
 the Gaussian(R) 94 system (copyright 1995, Gaussian, Inc.),
 the Gaussian 92(TM) system (copyright 1992, Gaussian, Inc.),
 the Gaussian 90(TM) system (copyright 1990, Gaussian, Inc.),
 the Gaussian 88(TM) system (copyright 1988, Gaussian, Inc.),
 the Gaussian 86(TM) system (copyright 1986, Carnegie Mellon
 University), and the Gaussian 82(TM) system (copyright 1983,
 Carnegie Mellon University). Gaussian is a federally registered
 trademark of Gaussian, Inc.
  
 This software contains proprietary and confidential information,
 including trade secrets, belonging to Gaussian, Inc.
  
 This software is provided under written license and may be
 used, copied, transmitted, or stored only in accord with that
 written license.
  
 The following legend is applicable only to US Government
 contracts under FAR:
  
                    RESTRICTED RIGHTS LEGEND
  
 Use, reproduction and disclosure by the US Government is
 subject to restrictions as set forth in subparagraphs (a)
 and (c) of the Commercial Computer Software - Restricted
 Rights clause in FAR 52.227-19.
  
 Gaussian, Inc.
 340 Quinnipiac St., Bldg. 40, Wallingford CT 06492
  
  
 ---------------------------------------------------------------
 Warning -- This program may not be used in any manner that
 competes with the business of Gaussian, Inc. or will provide
 assistance to any competitor of Gaussian, Inc.  The licensee
 of this program is prohibited from giving any competitor of
 Gaussian, Inc. access to this program.  By using this program,
 the user acknowledges that Gaussian, Inc. is engaged in the
 business of creating and licensing software in the field of
 computational chemistry and represents and warrants to the
 licensee that it is not a competitor of Gaussian, Inc. and that
 it will not use this program in any manner prohibited above.
 ---------------------------------------------------------------
  

 Cite this work as:
 Gaussian 09, Revision E.01,
 M. J. Frisch, G. W. Trucks, H. B. Schlegel, G. E. Scuseria, 
 M. A. Robb, J. R. Cheeseman, G. Scalmani, V. Barone, B. Mennucci, 
 G. A. Petersson, H. Nakatsuji, M. Caricato, X. Li, H. P. Hratchian, 
 A. F. Izmaylov, J. Bloino, G. Zheng, J. L. Sonnenberg, M. Hada, 
 M. Ehara, K. Toyota, R. Fukuda, J. Hasegawa, M. Ishida, T. Nakajima, 
 Y. Honda, O. Kitao, H. Nakai, T. Vreven, J. A. Montgomery, Jr., 
 J. E. Peralta, F. Ogliaro, M. Bearpark, J. J. Heyd, E. Brothers, 
 K. N. Kudin, V. N. Staroverov, T. Keith, R. Kobayashi, J. Normand, 
 K. Raghavachari, A. Rendell, J. C. Burant, S. S. Iyengar, J. Tomasi, 
 M. Cossi, N. Rega, J. M. Millam, M. Klene, J. E. Knox, J. B. Cross, 
 V. Bakken, C. Adamo, J. Jaramillo, R. Gomperts, R. E. Stratmann, 
 O. Yazyev, A. J. Austin, R. Cammi, C. Pomelli, J. W. Ochterski, 
 R. L. Martin, K. Morokuma, V. G. Zakrzewski, G. A. Voth, 
 P. Salvador, J. J. Dannenberg, S. Dapprich, A. D. Daniels, 
 O. Farkas, J. B. Foresman, J. V. Ortiz, J. Cioslowski, 
 and D. J. Fox, Gaussian, Inc., Wallingford CT, 2013.
 
 ******************************************
 Gaussian 09:  ES64L-G09RevE.01 30-Nov-2015
                 1-Jul-2022 
 ******************************************
 %chk=cp.chk
 Default route:  MaxDisk=500GB
 ----------------------------------------------------------------------
 #p b3lyp/def2TZVP td=(NStates=50) int=ultrafine scrf=(SMD,solvent=Acet
 onitrile) EmpiricalDispersion=GD3BJ
 ----------------------------------------------------------------------
 1/38=1/1;
 2/12=2,17=6,18=5,40=1/2;
 3/5=44,7=101,11=9,16=1,25=1,30=1,70=32201,72=2,74=-5,75=-5,124=41/1,2,8,3;
 4//1;
 5/5=2,38=5,53=2/2;
 8/6=1,10=1,108=50/1;
 9/41=50,42=1,70=2/14;
 6/7=2,8=2,9=2,10=2/1;
 99/5=1,9=1/99;
 Leave Link    1 at Fri Jul  1 09:42:53 2022, MaxMem=           0 cpu:         1.8
 (Enter /opt/nce/packages/global/g09/l101.exe)
 -----
 Title
 -----
 Symbolic Z-matrix:
 Charge =  0 Multiplicity = 1
 C                     1.21553  -0.71179   0.17421 
 C                     0.02843  -1.42972   0.00961 
 C                    -1.18477  -0.75988  -0.17077 
 C                    -1.19633   0.6431   -0.20594 
 C                    -0.02517   1.38215  -0.00849 
 C                     1.17412   0.69089   0.19163 
 C                    -2.41217   1.3172   -0.5164 
 C                     2.36526   1.4137    0.48659 
 N                    -3.3907    1.86157  -0.7812 
 N                     3.32433   1.99715   0.73907 
 N                     2.44336  -1.36014   0.35188 
 C                     2.84148  -2.07299   1.48751 
 C                     3.49457  -1.35463  -0.57269 
 C                     2.14574  -2.30747   2.66569 
 C                     4.15946  -2.53872   1.28411 
 C                     3.55069  -0.77794  -1.83434 
 C                     4.5742   -2.0832   -0.02667 
 C                     2.79117  -3.04326   3.65188 
 H                     1.14233  -1.93195   2.81383 
 C                     4.78543  -3.27356   2.29027 
 C                     4.7286   -0.9344   -2.55479 
 H                     2.71409  -0.22711  -2.24292 
 C                     5.74342  -2.22895  -0.77203 
 C                     4.09383  -3.52437   3.46766 
 H                     2.27488  -3.24577   4.58143 
 H                     5.79565  -3.63828   2.15459 
 C                     5.81324  -1.64994  -2.03205 
 H                     4.80584  -0.4937   -3.54038 
 H                     6.58209  -2.78491  -0.3726 
 H                     4.56648  -4.09433   4.257 
 H                     6.71544  -1.75293  -2.62089 
 N                    -2.38533  -1.45703  -0.3455 
 C                    -3.44704  -1.46944   0.56719 
 C                    -2.74339  -2.21073  -1.46828 
 C                    -3.54007  -0.86439   1.8132 
 C                    -4.49166  -2.25158   0.02753 
 C                    -2.02706  -2.44414  -2.63432 
 C                    -4.04486  -2.72171  -1.26747 
 C                    -4.71978  -1.04794   2.52427 
 H                    -2.73023  -0.27114   2.21585 
 C                    -5.66333  -2.42378   0.76327 
 C                    -2.63368  -3.22588  -3.60978 
 H                    -1.03774  -2.03303  -2.78252 
 C                    -4.63175  -3.50223  -2.26259 
 C                    -5.77006  -1.81724   2.00768 
 H                    -4.82576  -0.58588   3.49733 
 H                    -6.47525  -3.02119   0.36854 
 C                    -3.91881  -3.75248  -3.42728 
 H                    -2.10035  -3.42867  -4.52961 
 H                    -5.62903  -3.90158  -2.12876 
 H                    -6.67485  -1.93996   2.58868 
 H                    -4.36157  -4.35694  -4.20823 
 N                    -0.05372   2.77931  -0.00903 
 C                     0.6012    3.61208  -0.92825 
 C                    -0.74615   3.57907   0.91185 
 C                     1.38038   3.27251  -2.02647 
 C                     0.32278   4.95465  -0.5914 
 C                    -1.50657   3.2004    2.0103 
 C                    -0.53112   4.93361   0.57771 
 C                     1.90042   4.31263  -2.78695 
 H                     1.58058   2.24221  -2.28663 
 C                     0.85402   5.98016  -1.37217 
 C                    -2.07429   4.21305   2.77372 
 H                    -1.65614   2.16097   2.26795 
 C                    -1.10954   5.93117   1.36115 
 C                     1.64433   5.65111  -2.46481 
 H                     2.51544   4.07911  -3.64645 
 H                     0.64936   7.01503  -1.12923 
 C                    -1.88235   5.56284   2.45381 
 H                    -2.67638   3.94894   3.63348 
 H                    -0.95426   6.97511   1.12041 
 H                     2.06561   6.43609  -3.0793 
 H                    -2.33952   6.32579   3.07037 
 Cl                    0.06103  -3.15233   0.03 
 
 NAtoms=     74 NQM=       74 NQMF=       0 NMMI=      0 NMMIF=      0
                NMic=       0 NMicF=      0.
                    Isotopes and Nuclear Properties:
 (Nuclear quadrupole moments (NQMom) in fm**2, nuclear magnetic moments (NMagM)
  in nuclear magnetons)

  Atom         1           2           3           4           5           6           7           8           9          10
 IAtWgt=          12          12          12          12          12          12          12          12          14          14
 AtmWgt=  12.0000000  12.0000000  12.0000000  12.0000000  12.0000000  12.0000000  12.0000000  12.0000000  14.0030740  14.0030740
 NucSpn=           0           0           0           0           0           0           0           0           2           2
 AtZEff=   0.0000000   0.0000000   0.0000000   0.0000000   0.0000000   0.0000000   0.0000000   0.0000000   0.0000000   0.0000000
 NQMom=    0.0000000   0.0000000   0.0000000   0.0000000   0.0000000   0.0000000   0.0000000   0.0000000   2.0440000   2.0440000
 NMagM=    0.0000000   0.0000000   0.0000000   0.0000000   0.0000000   0.0000000   0.0000000   0.0000000   0.4037610   0.4037610
 AtZNuc=   6.0000000   6.0000000   6.0000000   6.0000000   6.0000000   6.0000000   6.0000000   6.0000000   7.0000000   7.0000000

  Atom        11          12          13          14          15          16          17          18          19          20
 IAtWgt=          14          12          12          12          12          12          12          12           1          12
 AtmWgt=  14.0030740  12.0000000  12.0000000  12.0000000  12.0000000  12.0000000  12.0000000  12.0000000   1.0078250  12.0000000
 NucSpn=           2           0           0           0           0           0           0           0           1           0
 AtZEff=   0.0000000   0.0000000   0.0000000   0.0000000   0.0000000   0.0000000   0.0000000   0.0000000   0.0000000   0.0000000
 NQMom=    2.0440000   0.0000000   0.0000000   0.0000000   0.0000000   0.0000000   0.0000000   0.0000000   0.0000000   0.0000000
 NMagM=    0.4037610   0.0000000   0.0000000   0.0000000   0.0000000   0.0000000   0.0000000   0.0000000   2.7928460   0.0000000
 AtZNuc=   7.0000000   6.0000000   6.0000000   6.0000000   6.0000000   6.0000000   6.0000000   6.0000000   1.0000000   6.0000000

  Atom        21          22          23          24          25          26          27          28          29          30
 IAtWgt=          12           1          12          12           1           1          12           1           1           1
 AtmWgt=  12.0000000   1.0078250  12.0000000  12.0000000   1.0078250   1.0078250  12.0000000   1.0078250   1.0078250   1.0078250
 NucSpn=           0           1           0           0           1           1           0           1           1           1
 AtZEff=   0.0000000   0.0000000   0.0000000   0.0000000   0.0000000   0.0000000   0.0000000   0.0000000   0.0000000   0.0000000
 NQMom=    0.0000000   0.0000000   0.0000000   0.0000000   0.0000000   0.0000000   0.0000000   0.0000000   0.0000000   0.0000000
 NMagM=    0.0000000   2.7928460   0.0000000   0.0000000   2.7928460   2.7928460   0.0000000   2.7928460   2.7928460   2.7928460
 AtZNuc=   6.0000000   1.0000000   6.0000000   6.0000000   1.0000000   1.0000000   6.0000000   1.0000000   1.0000000   1.0000000

  Atom        31          32          33          34          35          36          37          38          39          40
 IAtWgt=           1          14          12          12          12          12          12          12          12           1
 AtmWgt=   1.0078250  14.0030740  12.0000000  12.0000000  12.0000000  12.0000000  12.0000000  12.0000000  12.0000000   1.0078250
 NucSpn=           1           2           0           0           0           0           0           0           0           1
 AtZEff=   0.0000000   0.0000000   0.0000000   0.0000000   0.0000000   0.0000000   0.0000000   0.0000000   0.0000000   0.0000000
 NQMom=    0.0000000   2.0440000   0.0000000   0.0000000   0.0000000   0.0000000   0.0000000   0.0000000   0.0000000   0.0000000
 NMagM=    2.7928460   0.4037610   0.0000000   0.0000000   0.0000000   0.0000000   0.0000000   0.0000000   0.0000000   2.7928460
 AtZNuc=   1.0000000   7.0000000   6.0000000   6.0000000   6.0000000   6.0000000   6.0000000   6.0000000   6.0000000   1.0000000

  Atom        41          42          43          44          45          46          47          48          49          50
 IAtWgt=          12          12           1          12          12           1           1          12           1           1
 AtmWgt=  12.0000000  12.0000000   1.0078250  12.0000000  12.0000000   1.0078250   1.0078250  12.0000000   1.0078250   1.0078250
 NucSpn=           0           0           1           0           0           1           1           0           1           1
 AtZEff=   0.0000000   0.0000000   0.0000000   0.0000000   0.0000000   0.0000000   0.0000000   0.0000000   0.0000000   0.0000000
 NQMom=    0.0000000   0.0000000   0.0000000   0.0000000   0.0000000   0.0000000   0.0000000   0.0000000   0.0000000   0.0000000
 NMagM=    0.0000000   0.0000000   2.7928460   0.0000000   0.0000000   2.7928460   2.7928460   0.0000000   2.7928460   2.7928460
 AtZNuc=   6.0000000   6.0000000   1.0000000   6.0000000   6.0000000   1.0000000   1.0000000   6.0000000   1.0000000   1.0000000

  Atom        51          52          53          54          55          56          57          58          59          60
 IAtWgt=           1           1          14          12          12          12          12          12          12          12
 AtmWgt=   1.0078250   1.0078250  14.0030740  12.0000000  12.0000000  12.0000000  12.0000000  12.0000000  12.0000000  12.0000000
 NucSpn=           1           1           2           0           0           0           0           0           0           0
 AtZEff=   0.0000000   0.0000000   0.0000000   0.0000000   0.0000000   0.0000000   0.0000000   0.0000000   0.0000000   0.0000000
 NQMom=    0.0000000   0.0000000   2.0440000   0.0000000   0.0000000   0.0000000   0.0000000   0.0000000   0.0000000   0.0000000
 NMagM=    2.7928460   2.7928460   0.4037610   0.0000000   0.0000000   0.0000000   0.0000000   0.0000000   0.0000000   0.0000000
 AtZNuc=   1.0000000   1.0000000   7.0000000   6.0000000   6.0000000   6.0000000   6.0000000   6.0000000   6.0000000   6.0000000

  Atom        61          62          63          64          65          66          67          68          69          70
 IAtWgt=           1          12          12           1          12          12           1           1          12           1
 AtmWgt=   1.0078250  12.0000000  12.0000000   1.0078250  12.0000000  12.0000000   1.0078250   1.0078250  12.0000000   1.0078250
 NucSpn=           1           0           0           1           0           0           1           1           0           1
 AtZEff=   0.0000000   0.0000000   0.0000000   0.0000000   0.0000000   0.0000000   0.0000000   0.0000000   0.0000000   0.0000000
 NQMom=    0.0000000   0.0000000   0.0000000   0.0000000   0.0000000   0.0000000   0.0000000   0.0000000   0.0000000   0.0000000
 NMagM=    2.7928460   0.0000000   0.0000000   2.7928460   0.0000000   0.0000000   2.7928460   2.7928460   0.0000000   2.7928460
 AtZNuc=   1.0000000   6.0000000   6.0000000   1.0000000   6.0000000   6.0000000   1.0000000   1.0000000   6.0000000   1.0000000

  Atom        71          72          73          74
 IAtWgt=           1           1           1          35
 AtmWgt=   1.0078250   1.0078250   1.0078250  34.9688527
 NucSpn=           1           1           1           3
 AtZEff=   0.0000000   0.0000000   0.0000000   0.0000000
 NQMom=    0.0000000   0.0000000   0.0000000  -8.1650000
 NMagM=    2.7928460   2.7928460   2.7928460   0.8218740
 AtZNuc=   1.0000000   1.0000000   1.0000000  17.0000000
 Leave Link  101 at Fri Jul  1 09:42:53 2022, MaxMem=  5242880000 cpu:         1.4
 (Enter /opt/nce/packages/global/g09/l202.exe)
 Stoichiometry    C44H24ClN5
 Framework group  C1[X(C44H24ClN5)]
 Deg. of freedom   216
 Full point group                 C1      NOp   1
 Largest Abelian subgroup         C1      NOp   1
 Largest concise Abelian subgroup C1      NOp   1
                         Standard orientation:                         
 ---------------------------------------------------------------------
 Center     Atomic      Atomic             Coordinates (Angstroms)
 Number     Number       Type             X           Y           Z
 ---------------------------------------------------------------------
      1          6           0        1.215527   -0.711789    0.174211
      2          6           0        0.028430   -1.429722    0.009608
      3          6           0       -1.184767   -0.759878   -0.170768
      4          6           0       -1.196333    0.643097   -0.205935
      5          6           0       -0.025171    1.382153   -0.008488
      6          6           0        1.174120    0.690890    0.191632
      7          6           0       -2.412168    1.317195   -0.516397
      8          6           0        2.365258    1.413703    0.486585
      9          7           0       -3.390698    1.861569   -0.781202
     10          7           0        3.324334    1.997154    0.739067
     11          7           0        2.443364   -1.360144    0.351883
     12          6           0        2.841480   -2.072992    1.487506
     13          6           0        3.494567   -1.354630   -0.572690
     14          6           0        2.145743   -2.307467    2.665687
     15          6           0        4.159456   -2.538718    1.284110
     16          6           0        3.550690   -0.777935   -1.834344
     17          6           0        4.574200   -2.083197   -0.026672
     18          6           0        2.791165   -3.043265    3.651879
     19          1           0        1.142332   -1.931948    2.813834
     20          6           0        4.785434   -3.273564    2.290267
     21          6           0        4.728599   -0.934402   -2.554788
     22          1           0        2.714091   -0.227112   -2.242923
     23          6           0        5.743415   -2.228948   -0.772027
     24          6           0        4.093831   -3.524374    3.467657
     25          1           0        2.274880   -3.245771    4.581426
     26          1           0        5.795649   -3.638281    2.154588
     27          6           0        5.813242   -1.649940   -2.032048
     28          1           0        4.805844   -0.493700   -3.540383
     29          1           0        6.582085   -2.784906   -0.372597
     30          1           0        4.566476   -4.094326    4.256998
     31          1           0        6.715444   -1.752927   -2.620894
     32          7           0       -2.385333   -1.457028   -0.345497
     33          6           0       -3.447041   -1.469443    0.567193
     34          6           0       -2.743385   -2.210733   -1.468281
     35          6           0       -3.540068   -0.864394    1.813199
     36          6           0       -4.491656   -2.251580    0.027527
     37          6           0       -2.027063   -2.444137   -2.634321
     38          6           0       -4.044861   -2.721706   -1.267471
     39          6           0       -4.719778   -1.047937    2.524267
     40          1           0       -2.730232   -0.271141    2.215855
     41          6           0       -5.663325   -2.423777    0.763270
     42          6           0       -2.633678   -3.225884   -3.609777
     43          1           0       -1.037737   -2.033031   -2.782515
     44          6           0       -4.631750   -3.502228   -2.262588
     45          6           0       -5.770063   -1.817239    2.007682
     46          1           0       -4.825763   -0.585879    3.497334
     47          1           0       -6.475253   -3.021192    0.368542
     48          6           0       -3.918806   -3.752478   -3.427280
     49          1           0       -2.100352   -3.428668   -4.529607
     50          1           0       -5.629028   -3.901580   -2.128757
     51          1           0       -6.674852   -1.939960    2.588682
     52          1           0       -4.361565   -4.356936   -4.208233
     53          7           0       -0.053719    2.779308   -0.009027
     54          6           0        0.601202    3.612082   -0.928254
     55          6           0       -0.746145    3.579072    0.911849
     56          6           0        1.380384    3.272507   -2.026466
     57          6           0        0.322783    4.954647   -0.591399
     58          6           0       -1.506570    3.200401    2.010296
     59          6           0       -0.531123    4.933611    0.577711
     60          6           0        1.900421    4.312629   -2.786949
     61          1           0        1.580577    2.242205   -2.286633
     62          6           0        0.854020    5.980159   -1.372169
     63          6           0       -2.074285    4.213053    2.773721
     64          1           0       -1.656142    2.160972    2.267953
     65          6           0       -1.109544    5.931172    1.361148
     66          6           0        1.644333    5.651110   -2.464805
     67          1           0        2.515444    4.079115   -3.646445
     68          1           0        0.649356    7.015029   -1.129233
     69          6           0       -1.882349    5.562839    2.453811
     70          1           0       -2.676382    3.948935    3.633482
     71          1           0       -0.954261    6.975106    1.120411
     72          1           0        2.065607    6.436092   -3.079296
     73          1           0       -2.339520    6.325793    3.070375
     74         17           0        0.061025   -3.152334    0.030004
 ---------------------------------------------------------------------
 Rotational constants (GHZ):      0.0632538      0.0601247      0.0413054
 Leave Link  202 at Fri Jul  1 09:42:53 2022, MaxMem=  5242880000 cpu:         0.3
 (Enter /opt/nce/packages/global/g09/l301.exe)
 Standard basis: def2TZVP (5D, 7F)
 Ernie: Thresh=  0.10000D-02 Tol=  0.10000D-05 Strict=F.
 There are  1950 symmetry adapted cartesian basis functions of A   symmetry.
 There are  1700 symmetry adapted basis functions of A   symmetry.
  1700 basis functions,  2760 primitive gaussians,  1950 cartesian basis functions
   170 alpha electrons      170 beta electrons
       nuclear repulsion energy      6261.7311367222 Hartrees.
 IExCor=  402 DFT=T Ex+Corr=B3LYP ExCW=0 ScaHFX=  0.200000
 ScaDFX=  0.800000  0.720000  1.000000  0.810000 ScalE2=  1.000000  1.000000
 IRadAn=      5 IRanWt=     -1 IRanGd=            0 ICorTp=0 IEmpDi=141
 NAtoms=   74 NActive=   74 NUniq=   74 SFac= 1.00D+00 NAtFMM=   60 NAOKFM=T Big=T
 Integral buffers will be    131072 words long.
 Regular integral format.
 Two-electron integral symmetry is turned on.
 R6Disp:  Grimme-D3(BJ) Dispersion energy=       -0.2242086565 Hartrees.
 Nuclear repulsion after empirical dispersion term =     6261.5069280657 Hartrees.
 ------------------------------------------------------------------------------
 Polarizable Continuum Model (PCM)
 =================================
 Model                : PCM (using non-symmetric T matrix).
 Atomic radii         : SMD-Coulomb.
 Polarization charges : Total charges.
 Charge compensation  : None.
 Solution method      : On-the-fly selection.
 Cavity type          : VdW (van der Waals Surface) (Alpha=1.000).
 Cavity algorithm     : GePol (No added spheres)
                        Default sphere list used, NSphG=   74.
                        Lebedev-Laikov grids with approx.  5.0 points / Ang**2.
                        Smoothing algorithm: York/Karplus (Gamma=1.0000).
                        Polarization charges: spherical gaussians, with
                                              point-specific exponents (IZeta= 3).
                        Self-potential: point-specific (ISelfS= 7).
                        Self-field    : sphere-specific E.n sum rule (ISelfD= 2).
 Solvent              : Acetonitrile, Eps=  35.688000 Eps(inf)=   1.806874
 ------------------------------------------------------------------------------
 GePol: Number of generator spheres                  =      74
 GePol: Total number of spheres                      =      74
 GePol: Number of exposed spheres                    =      74 (100.00%)
 GePol: Number of points                             =    5930
 GePol: Average weight of points                     =       0.11
 GePol: Minimum weight of points                     =   0.19D-10
 GePol: Maximum weight of points                     =    0.18138
 GePol: Number of points with low weight             =     343
 GePol: Fraction of low-weight points (<1% of avg)   =       5.78%
 GePol: Cavity surface area                          =    639.039 Ang**2
 GePol: Cavity volume                                =    658.521 Ang**3
 ------------------------------------------------------------------------------
 Atomic radii for non-electrostatic terms: SMD-CDS.
 ------------------------------------------------------------------------------
 PCM non-electrostatic energy =        -0.0135278657 Hartrees.
 Nuclear repulsion after PCM non-electrostatic terms =     6261.4934002000 Hartrees.
 Leave Link  301 at Fri Jul  1 09:42:54 2022, MaxMem=  5242880000 cpu:         3.0
 (Enter /opt/nce/packages/global/g09/l302.exe)
 NPDir=0 NMtPBC=     1 NCelOv=     1 NCel=       1 NClECP=     1 NCelD=      1
         NCelK=      1 NCelE2=     1 NClLst=     1 CellRange=     0.0.
 One-electron integrals computed using PRISM.
   1 Symmetry operations used in ECPInt.
 ECPInt:  NShTT=  210276 NPrTT=  664162 LenC2=  155446 LenP2D=  317776.
 LDataN:  DoStor=T MaxTD1= 6 Len=  172
 NBasis=  1700 RedAO= T EigKep=  1.57D-06  NBF=  1700
 NBsUse=  1700 1.00D-06 EigRej= -1.00D+00 NBFU=  1700
 Precomputing XC quadrature grid using
 IXCGrd= 4 IRadAn=           5 IRanWt=          -1 IRanGd=           0 AccXCQ= 0.00D+00.
 Generated NRdTot=       0 NPtTot=           0 NUsed=           0 NTot=          32
 NSgBfM=  1851  1851  1854  1854  1857 MxSgAt=    74 MxSgA2=    74.
 Leave Link  302 at Fri Jul  1 09:43:01 2022, MaxMem=  5242880000 cpu:        83.5
 (Enter /opt/nce/packages/global/g09/l308.exe)
 Leave Link  308 at Fri Jul  1 09:43:02 2022, MaxMem=  5242880000 cpu:        12.3
 (Enter /opt/nce/packages/global/g09/l303.exe)
 DipDrv:  MaxL=1.
 Leave Link  303 at Fri Jul  1 09:43:02 2022, MaxMem=  5242880000 cpu:         6.6
 (Enter /opt/nce/packages/global/g09/l401.exe)
 ExpMin= 9.52D-02 ExpMax= 6.95D+04 ExpMxC= 2.37D+03 IAcc=3 IRadAn=         5 AccDes= 0.00D+00
 Harris functional with IExCor=  402 and IRadAn=       5 diagonalized for initial guess.
 HarFok:  IExCor=  402 AccDes= 0.00D+00 IRadAn=         5 IDoV= 1 UseB2=F ITyADJ=14
 ICtDFT=  3500011 ScaDFX=  1.000000  1.000000  1.000000  1.000000
 FoFCou: FMM=F IPFlag=           0 FMFlag=      100000 FMFlg1=        2001
         NFxFlg=           0 DoJE=T BraDBF=F KetDBF=T FulRan=T
         wScrn=  0.000000 ICntrl=     500 IOpCl=  0 I1Cent=   200000004 NGrid=           0
         NMat0=    1 NMatS0=      1 NMatT0=    0 NMatD0=    1 NMtDS0=    0 NMtDT0=    0
 Petite list used in FoFCou.
 DSYEVD-2 returned Info=     2713094 IAlg= 4 N=  1700 NDim=  1700 NE2=     3079566 trying  DSYEV.
 Harris En= -2426.07245720212    
 JPrj=0 DoOrth=F DoCkMO=F.
 Leave Link  401 at Fri Jul  1 09:43:27 2022, MaxMem=  5242880000 cpu:       294.7
 (Enter /opt/nce/packages/global/g09/l502.exe)
 Closed shell SCF:
 Using DIIS extrapolation, IDIIS=  1040.
 Integral symmetry usage will be decided dynamically.
 IVT=    11463646 IEndB=    11463646 NGot=  5242880000 MDV=  5235237445
 LenX=  5235237445 LenY=  5231432995
 Requested convergence on RMS density matrix=1.00D-08 within 128 cycles.
 Requested convergence on MAX density matrix=1.00D-06.
 Requested convergence on             energy=1.00D-06.
 No special actions if energy rises.
 Fock matrices will be formed incrementally for  20 cycles.

 Cycle   1  Pass 1  IDiag  1:
 FoFJK:  IHMeth= 1 ICntrl=       0 DoSepK=F KAlg= 0 I1Cent=   0 FoldK=F
 IRaf= 680000000 NMat=   1 IRICut=       1 DoRegI=T DoRafI=F ISym2E= 0.
 FoFCou: FMM=T IPFlag=           0 FMFlag=      100000 FMFlg1=        2001
         NFxFlg=           0 DoJE=F BraDBF=F KetDBF=F FulRan=T
         wScrn=  0.000000 ICntrl=       0 IOpCl=  0 I1Cent=           0 NGrid=           0
         NMat0=    1 NMatS0=      1 NMatT0=    0 NMatD0=    1 NMtDS0=    0 NMtDT0=    0
 Symmetry not used in FoFCou.
 FMM levels:  10  Number of levels for PrismC:   9
 Inv3:  Mode=1 IEnd=   105494700.
 Iteration    1 A*A^-1 deviation from unit magnitude is 5.77D-15 for   5908.
 Iteration    1 A*A^-1 deviation from orthogonality  is 3.55D-15 for   5125   4561.
 Iteration    1 A^-1*A deviation from unit magnitude is 6.00D-15 for   5908.
 Iteration    1 A^-1*A deviation from orthogonality  is 1.58D-09 for   2715   2692.
 Iteration    2 A*A^-1 deviation from unit magnitude is 3.33D-15 for    903.
 Iteration    2 A*A^-1 deviation from orthogonality  is 3.91D-15 for   2931     76.
 Iteration    2 A^-1*A deviation from unit magnitude is 1.11D-15 for    634.
 Iteration    2 A^-1*A deviation from orthogonality  is 3.93D-16 for   3360    919.
 E= -2425.02695051260    
 DIIS: error= 2.02D-02 at cycle   1 NSaved=   1.
 NSaved= 1 IEnMin= 1 EnMin= -2425.02695051260     IErMin= 1 ErrMin= 2.02D-02
 ErrMax= 2.02D-02  0.00D+00 EMaxC= 1.00D-01 BMatC= 1.14D+00 BMatP= 1.14D+00
 IDIUse=3 WtCom= 7.98D-01 WtEn= 2.02D-01
 Coeff-Com:  0.100D+01
 Coeff-En:   0.100D+01
 Coeff:      0.100D+01
 Gap=     0.382 Goal=   None    Shift=    0.000
 GapD=    0.382 DampG=1.000 DampE=0.500 DampFc=0.5000 IDamp=-1.
 Damping current iteration by 5.00D-01
 RMSDP=3.05D-03 MaxDP=3.70D-01              OVMax= 2.89D-01

 Cycle   2  Pass 1  IDiag  1:
 RMSU=  1.49D-03    CP:  9.37D-01
 E= -2425.45842801682     Delta-E=       -0.431477504222 Rises=F Damp=T
 DIIS: error= 6.74D-03 at cycle   2 NSaved=   2.
 NSaved= 2 IEnMin= 2 EnMin= -2425.45842801682     IErMin= 2 ErrMin= 6.74D-03
 ErrMax= 6.74D-03  0.00D+00 EMaxC= 1.00D-01 BMatC= 1.26D-01 BMatP= 1.14D+00
 IDIUse=3 WtCom= 9.33D-01 WtEn= 6.74D-02
 Coeff-Com:  0.731D-01 0.927D+00
 Coeff-En:   0.168D+00 0.832D+00
 Coeff:      0.795D-01 0.920D+00
 Gap=     0.148 Goal=   None    Shift=    0.000
 RMSDP=1.43D-03 MaxDP=3.07D-01 DE=-4.31D-01 OVMax= 2.34D-01

 Cycle   3  Pass 1  IDiag  1:
 RMSU=  1.11D-03    CP:  8.26D-01  5.56D-01
 E= -2425.91224850174     Delta-E=       -0.453820484925 Rises=F Damp=F
 DIIS: error= 1.08D-02 at cycle   3 NSaved=   3.
 NSaved= 3 IEnMin= 3 EnMin= -2425.91224850174     IErMin= 2 ErrMin= 6.74D-03
 ErrMax= 1.08D-02  0.00D+00 EMaxC= 1.00D-01 BMatC= 2.08D-01 BMatP= 1.26D-01
 IDIUse=2 WtCom= 0.00D+00 WtEn= 1.00D+00
 Coeff-En:   0.000D+00 0.000D+00 0.100D+01
 Coeff:      0.000D+00 0.000D+00 0.100D+01
 Gap=     0.120 Goal=   None    Shift=    0.000
 RMSDP=1.91D-03 MaxDP=3.27D-01 DE=-4.54D-01 OVMax= 3.16D-01

 Cycle   4  Pass 1  IDiag  1:
 RMSU=  1.04D-03    CP:  8.76D-01  1.40D+00  1.38D-01
 E= -2425.06371062456     Delta-E=        0.848537877180 Rises=F Damp=F
 DIIS: error= 2.66D-02 at cycle   4 NSaved=   4.
 NSaved= 4 IEnMin= 3 EnMin= -2425.91224850174     IErMin= 2 ErrMin= 6.74D-03
 ErrMax= 2.66D-02  0.00D+00 EMaxC= 1.00D-01 BMatC= 1.08D+00 BMatP= 1.26D-01
 IDIUse=2 WtCom= 0.00D+00 WtEn= 1.00D+00
 Coeff-En:   0.000D+00 0.000D+00 0.784D+00 0.216D+00
 Coeff:      0.000D+00 0.000D+00 0.784D+00 0.216D+00
 Gap=     0.118 Goal=   None    Shift=    0.000
 RMSDP=1.41D-03 MaxDP=2.71D-01 DE= 8.49D-01 OVMax= 1.42D-01

 Cycle   5  Pass 1  IDiag  1:
 RMSU=  3.13D-04    CP:  8.25D-01  7.97D-01  7.97D-01  3.41D-01
 E= -2426.02887321694     Delta-E=       -0.965162592378 Rises=F Damp=F
 DIIS: error= 6.67D-03 at cycle   5 NSaved=   5.
 NSaved= 5 IEnMin= 5 EnMin= -2426.02887321694     IErMin= 5 ErrMin= 6.67D-03
 ErrMax= 6.67D-03  0.00D+00 EMaxC= 1.00D-01 BMatC= 8.54D-02 BMatP= 1.26D-01
 IDIUse=3 WtCom= 9.33D-01 WtEn= 6.67D-02
 Coeff-Com:  0.770D-02-0.900D-02 0.344D+00-0.413D-01 0.698D+00
 Coeff-En:   0.000D+00 0.000D+00 0.340D+00 0.000D+00 0.660D+00
 Coeff:      0.719D-02-0.840D-02 0.344D+00-0.385D-01 0.696D+00
 Gap=     0.119 Goal=   None    Shift=    0.000
 RMSDP=2.80D-04 MaxDP=3.52D-02 DE=-9.65D-01 OVMax= 5.05D-02

 Cycle   6  Pass 1  IDiag  1:
 RMSU=  4.57D-05    CP:  8.24D-01  6.77D-01  8.97D-01  1.99D-01  6.77D-01
 E= -2426.10882298301     Delta-E=       -0.079949766072 Rises=F Damp=F
 DIIS: error= 6.69D-04 at cycle   6 NSaved=   6.
 NSaved= 6 IEnMin= 6 EnMin= -2426.10882298301     IErMin= 6 ErrMin= 6.69D-04
 ErrMax= 6.69D-04  0.00D+00 EMaxC= 1.00D-01 BMatC= 9.90D-04 BMatP= 8.54D-02
 IDIUse=3 WtCom= 9.93D-01 WtEn= 6.69D-03
 Coeff-Com:  0.231D-02-0.203D-02 0.158D+00-0.557D-01 0.447D+00 0.450D+00
 Coeff-En:   0.000D+00 0.000D+00 0.000D+00 0.000D+00 0.000D+00 0.100D+01
 Coeff:      0.230D-02-0.202D-02 0.157D+00-0.553D-01 0.444D+00 0.454D+00
 Gap=     0.119 Goal=   None    Shift=    0.000
 RMSDP=2.45D-05 MaxDP=2.44D-03 DE=-7.99D-02 OVMax= 6.72D-03

 Cycle   7  Pass 1  IDiag  1:
 RMSU=  1.71D-05    CP:  8.24D-01  6.73D-01  8.96D-01  1.98D-01  7.12D-01
                    CP:  7.35D-01
 E= -2426.10971649423     Delta-E=       -0.000893511220 Rises=F Damp=F
 DIIS: error= 1.41D-04 at cycle   7 NSaved=   7.
 NSaved= 7 IEnMin= 7 EnMin= -2426.10971649423     IErMin= 7 ErrMin= 1.41D-04
 ErrMax= 1.41D-04  0.00D+00 EMaxC= 1.00D-01 BMatC= 2.71D-05 BMatP= 9.90D-04
 IDIUse=3 WtCom= 9.99D-01 WtEn= 1.41D-03
 Coeff-Com:  0.735D-03-0.130D-02 0.356D-01-0.157D-01 0.103D+00 0.141D+00
 Coeff-Com:  0.737D+00
 Coeff-En:   0.000D+00 0.000D+00 0.000D+00 0.000D+00 0.000D+00 0.000D+00
 Coeff-En:   0.100D+01
 Coeff:      0.734D-03-0.130D-02 0.356D-01-0.157D-01 0.103D+00 0.141D+00
 Coeff:      0.737D+00
 Gap=     0.120 Goal=   None    Shift=    0.000
 RMSDP=6.56D-06 MaxDP=1.27D-03 DE=-8.94D-04 OVMax= 1.74D-03

 Cycle   8  Pass 1  IDiag  1:
 RMSU=  5.06D-06    CP:  8.24D-01  6.72D-01  8.96D-01  1.98D-01  7.04D-01
                    CP:  7.90D-01  9.57D-01
 E= -2426.10973382153     Delta-E=       -0.000017327300 Rises=F Damp=F
 DIIS: error= 8.38D-05 at cycle   8 NSaved=   8.
 NSaved= 8 IEnMin= 8 EnMin= -2426.10973382153     IErMin= 8 ErrMin= 8.38D-05
 ErrMax= 8.38D-05  0.00D+00 EMaxC= 1.00D-01 BMatC= 9.43D-06 BMatP= 2.71D-05
 IDIUse=1 WtCom= 1.00D+00 WtEn= 0.00D+00
 Coeff-Com:  0.322D-03-0.796D-03 0.921D-02-0.508D-02 0.251D-01 0.454D-01
 Coeff-Com:  0.484D+00 0.442D+00
 Coeff:      0.322D-03-0.796D-03 0.921D-02-0.508D-02 0.251D-01 0.454D-01
 Coeff:      0.484D+00 0.442D+00
 Gap=     0.120 Goal=   None    Shift=    0.000
 RMSDP=2.30D-06 MaxDP=2.66D-04 DE=-1.73D-05 OVMax= 7.77D-04

 Cycle   9  Pass 1  IDiag  1:
 RMSU=  1.77D-06    CP:  8.24D-01  6.72D-01  8.96D-01  1.98D-01  7.03D-01
                    CP:  7.85D-01  1.02D+00  8.34D-01
 E= -2426.10974267266     Delta-E=       -0.000008851128 Rises=F Damp=F
 DIIS: error= 1.20D-05 at cycle   9 NSaved=   9.
 NSaved= 9 IEnMin= 9 EnMin= -2426.10974267266     IErMin= 9 ErrMin= 1.20D-05
 ErrMax= 1.20D-05  0.00D+00 EMaxC= 1.00D-01 BMatC= 4.56D-07 BMatP= 9.43D-06
 IDIUse=1 WtCom= 1.00D+00 WtEn= 0.00D+00
 Coeff-Com:  0.881D-04-0.186D-03 0.390D-03-0.577D-03-0.856D-03 0.379D-02
 Coeff-Com:  0.164D+00 0.219D+00 0.614D+00
 Coeff:      0.881D-04-0.186D-03 0.390D-03-0.577D-03-0.856D-03 0.379D-02
 Coeff:      0.164D+00 0.219D+00 0.614D+00
 Gap=     0.120 Goal=   None    Shift=    0.000
 RMSDP=9.65D-07 MaxDP=1.25D-04 DE=-8.85D-06 OVMax= 1.61D-04

 Cycle  10  Pass 1  IDiag  1:
 RMSU=  5.49D-07    CP:  8.24D-01  6.72D-01  8.96D-01  1.98D-01  7.02D-01
                    CP:  7.90D-01  1.03D+00  8.68D-01  7.94D-01
 E= -2426.10974304224     Delta-E=       -0.000000369584 Rises=F Damp=F
 DIIS: error= 6.97D-06 at cycle  10 NSaved=  10.
 NSaved=10 IEnMin=10 EnMin= -2426.10974304224     IErMin=10 ErrMin= 6.97D-06
 ErrMax= 6.97D-06  0.00D+00 EMaxC= 1.00D-01 BMatC= 7.08D-08 BMatP= 4.56D-07
 IDIUse=1 WtCom= 1.00D+00 WtEn= 0.00D+00
 Coeff-Com:  0.236D-04-0.530D-04-0.611D-03 0.185D-03-0.274D-02-0.204D-02
 Coeff-Com:  0.370D-01 0.686D-01 0.360D+00 0.540D+00
 Coeff:      0.236D-04-0.530D-04-0.611D-03 0.185D-03-0.274D-02-0.204D-02
 Coeff:      0.370D-01 0.686D-01 0.360D+00 0.540D+00
 Gap=     0.120 Goal=   None    Shift=    0.000
 RMSDP=3.44D-07 MaxDP=6.97D-05 DE=-3.70D-07 OVMax= 6.59D-05

 Cycle  11  Pass 1  IDiag  1:
 RMSU=  2.27D-07    CP:  8.24D-01  6.72D-01  8.96D-01  1.98D-01  7.02D-01
                    CP:  7.92D-01  1.04D+00  8.79D-01  8.61D-01  8.89D-01
 E= -2426.10974310891     Delta-E=       -0.000000066668 Rises=F Damp=F
 DIIS: error= 1.35D-06 at cycle  11 NSaved=  11.
 NSaved=11 IEnMin=11 EnMin= -2426.10974310891     IErMin=11 ErrMin= 1.35D-06
 ErrMax= 1.35D-06  0.00D+00 EMaxC= 1.00D-01 BMatC= 4.37D-09 BMatP= 7.08D-08
 IDIUse=1 WtCom= 1.00D+00 WtEn= 0.00D+00
 Coeff-Com:  0.536D-05-0.218D-04-0.315D-03 0.134D-03-0.118D-02-0.713D-03
 Coeff-Com:  0.601D-02 0.144D-01 0.121D+00 0.254D+00 0.607D+00
 Coeff:      0.536D-05-0.218D-04-0.315D-03 0.134D-03-0.118D-02-0.713D-03
 Coeff:      0.601D-02 0.144D-01 0.121D+00 0.254D+00 0.607D+00
 Gap=     0.120 Goal=   None    Shift=    0.000
 RMSDP=8.54D-08 MaxDP=9.62D-06 DE=-6.67D-08 OVMax= 1.29D-05

 Cycle  12  Pass 1  IDiag  1:
 RMSU=  5.69D-08    CP:  8.24D-01  6.72D-01  8.96D-01  1.98D-01  7.02D-01
                    CP:  7.92D-01  1.04D+00  8.83D-01  8.75D-01  9.14D-01
                    CP:  8.83D-01
 E= -2426.10974311244     Delta-E=       -0.000000003527 Rises=F Damp=F
 DIIS: error= 7.09D-07 at cycle  12 NSaved=  12.
 NSaved=12 IEnMin=12 EnMin= -2426.10974311244     IErMin=12 ErrMin= 7.09D-07
 ErrMax= 7.09D-07  0.00D+00 EMaxC= 1.00D-01 BMatC= 7.53D-10 BMatP= 4.37D-09
 IDIUse=1 WtCom= 1.00D+00 WtEn= 0.00D+00
 Coeff-Com: -0.274D-06-0.767D-05-0.107D-03 0.545D-04-0.296D-03 0.319D-04
 Coeff-Com: -0.164D-02-0.211D-02 0.176D-01 0.704D-01 0.324D+00 0.592D+00
 Coeff:     -0.274D-06-0.767D-05-0.107D-03 0.545D-04-0.296D-03 0.319D-04
 Coeff:     -0.164D-02-0.211D-02 0.176D-01 0.704D-01 0.324D+00 0.592D+00
 Gap=     0.120 Goal=   None    Shift=    0.000
 RMSDP=4.67D-08 MaxDP=1.09D-05 DE=-3.53D-09 OVMax= 4.21D-06

 Cycle  13  Pass 1  IDiag  1:
 RMSU=  2.18D-08    CP:  8.24D-01  6.72D-01  8.96D-01  1.98D-01  7.02D-01
                    CP:  7.92D-01  1.04D+00  8.85D-01  8.83D-01  9.21D-01
                    CP:  9.36D-01  8.93D-01
 E= -2426.10974311289     Delta-E=       -0.000000000455 Rises=F Damp=F
 DIIS: error= 2.54D-07 at cycle  13 NSaved=  13.
 NSaved=13 IEnMin=13 EnMin= -2426.10974311289     IErMin=13 ErrMin= 2.54D-07
 ErrMax= 2.54D-07  0.00D+00 EMaxC= 1.00D-01 BMatC= 1.15D-10 BMatP= 7.53D-10
 IDIUse=1 WtCom= 1.00D+00 WtEn= 0.00D+00
 Coeff-Com: -0.128D-05-0.983D-07-0.289D-04 0.158D-04-0.264D-04 0.126D-03
 Coeff-Com: -0.181D-02-0.339D-02-0.703D-02 0.561D-02 0.935D-01 0.333D+00
 Coeff-Com:  0.580D+00
 Coeff:     -0.128D-05-0.983D-07-0.289D-04 0.158D-04-0.264D-04 0.126D-03
 Coeff:     -0.181D-02-0.339D-02-0.703D-02 0.561D-02 0.935D-01 0.333D+00
 Coeff:      0.580D+00
 Gap=     0.120 Goal=   None    Shift=    0.000
 RMSDP=2.17D-08 MaxDP=3.47D-06 DE=-4.55D-10 OVMax= 2.65D-06

 Cycle  14  Pass 1  IDiag  1:
 RMSU=  1.66D-08    CP:  8.24D-01  6.72D-01  8.96D-01  1.98D-01  7.02D-01
                    CP:  7.92D-01  1.04D+00  8.86D-01  8.83D-01  9.32D-01
                    CP:  9.46D-01  9.53D-01  8.18D-01
 E= -2426.10974311312     Delta-E=       -0.000000000224 Rises=F Damp=F
 DIIS: error= 1.55D-07 at cycle  14 NSaved=  14.
 NSaved=14 IEnMin=14 EnMin= -2426.10974311312     IErMin=14 ErrMin= 1.55D-07
 ErrMax= 1.55D-07  0.00D+00 EMaxC= 1.00D-01 BMatC= 3.43D-11 BMatP= 1.15D-10
 IDIUse=1 WtCom= 1.00D+00 WtEn= 0.00D+00
 Coeff-Com: -0.862D-06 0.138D-05-0.718D-05 0.299D-05 0.165D-04 0.744D-04
 Coeff-Com: -0.854D-03-0.179D-02-0.624D-02-0.450D-02 0.155D-01 0.128D+00
 Coeff-Com:  0.406D+00 0.464D+00
 Coeff:     -0.862D-06 0.138D-05-0.718D-05 0.299D-05 0.165D-04 0.744D-04
 Coeff:     -0.854D-03-0.179D-02-0.624D-02-0.450D-02 0.155D-01 0.128D+00
 Coeff:      0.406D+00 0.464D+00
 Gap=     0.120 Goal=   None    Shift=    0.000
 RMSDP=1.27D-08 MaxDP=1.09D-06 DE=-2.24D-10 OVMax= 1.20D-06

 Cycle  15  Pass 1  IDiag  1:
 RMSU=  1.06D-08    CP:  8.24D-01  6.72D-01  8.96D-01  1.98D-01  7.02D-01
                    CP:  7.92D-01  1.04D+00  8.86D-01  8.84D-01  9.33D-01
                    CP:  9.50D-01  9.60D-01  1.08D+00  1.14D+00
 E= -2426.10974311305     Delta-E=        0.000000000069 Rises=F Damp=F
 DIIS: error= 3.25D-08 at cycle  15 NSaved=  15.
 NSaved=15 IEnMin=14 EnMin= -2426.10974311312     IErMin=15 ErrMin= 3.25D-08
 ErrMax= 3.25D-08  0.00D+00 EMaxC= 1.00D-01 BMatC= 2.83D-12 BMatP= 3.43D-11
 IDIUse=1 WtCom= 1.00D+00 WtEn= 0.00D+00
 Coeff-Com: -0.399D-06 0.957D-06 0.865D-07-0.803D-06 0.173D-04 0.323D-04
 Coeff-Com: -0.294D-03-0.704D-03-0.311D-02-0.352D-02-0.258D-02 0.348D-01
 Coeff-Com:  0.180D+00 0.286D+00 0.510D+00
 Coeff:     -0.399D-06 0.957D-06 0.865D-07-0.803D-06 0.173D-04 0.323D-04
 Coeff:     -0.294D-03-0.704D-03-0.311D-02-0.352D-02-0.258D-02 0.348D-01
 Coeff:      0.180D+00 0.286D+00 0.510D+00
 Gap=     0.120 Goal=   None    Shift=    0.000
 RMSDP=1.67D-08 MaxDP=1.14D-06 DE= 6.91D-11 OVMax= 3.76D-07

 Cycle  16  Pass 1  IDiag  1:
 RMSU=  8.64D-09    CP:  8.24D-01  6.72D-01  8.96D-01  1.98D-01  7.02D-01
                    CP:  7.92D-01  1.04D+00  8.87D-01  8.84D-01  9.32D-01
                    CP:  9.51D-01  9.95D-01  1.24D+00  1.66D+00  1.97D+00
 E= -2426.10974311311     Delta-E=       -0.000000000056 Rises=F Damp=F
 DIIS: error= 2.32D-08 at cycle  16 NSaved=  16.
 NSaved=16 IEnMin=14 EnMin= -2426.10974311312     IErMin=16 ErrMin= 2.32D-08
 ErrMax= 2.32D-08  0.00D+00 EMaxC= 1.00D-01 BMatC= 4.07D-13 BMatP= 2.83D-12
 IDIUse=1 WtCom= 1.00D+00 WtEn= 0.00D+00
 Coeff-Com: -0.197D-06 0.545D-06 0.480D-06-0.589D-06 0.876D-05 0.115D-04
 Coeff-Com: -0.128D-03-0.310D-03-0.148D-02-0.176D-02-0.274D-02 0.114D-01
 Coeff-Com:  0.791D-01 0.139D+00 0.301D+00 0.476D+00
 Coeff:     -0.197D-06 0.545D-06 0.480D-06-0.589D-06 0.876D-05 0.115D-04
 Coeff:     -0.128D-03-0.310D-03-0.148D-02-0.176D-02-0.274D-02 0.114D-01
 Coeff:      0.791D-01 0.139D+00 0.301D+00 0.476D+00
 Gap=     0.120 Goal=   None    Shift=    0.000
 RMSDP=2.31D-08 MaxDP=1.62D-06 DE=-5.64D-11 OVMax= 7.99D-08

 Cycle  17  Pass 1  IDiag  1:
 RMSU=  7.89D-09    CP:  8.24D-01  6.72D-01  8.96D-01  1.98D-01  7.02D-01
                    CP:  7.92D-01  1.04D+00  8.87D-01  8.84D-01  9.32D-01
                    CP:  9.50D-01  1.02D+00  1.46D+00  2.27D+00  3.00D+00
                    CP:  2.37D+00
 E= -2426.10974311313     Delta-E=       -0.000000000020 Rises=F Damp=F
 DIIS: error= 3.95D-08 at cycle  17 NSaved=  17.
 NSaved=17 IEnMin=17 EnMin= -2426.10974311313     IErMin=16 ErrMin= 2.32D-08
 ErrMax= 3.95D-08  0.00D+00 EMaxC= 1.00D-01 BMatC= 7.02D-13 BMatP= 4.07D-13
 IDIUse=1 WtCom= 1.00D+00 WtEn= 0.00D+00
 Coeff-Com: -0.192D-06 0.603D-06 0.954D-06-0.845D-06 0.922D-05 0.825D-05
 Coeff-Com: -0.106D-03-0.267D-03-0.141D-02-0.185D-02-0.435D-02 0.546D-02
 Coeff-Com:  0.686D-01 0.135D+00 0.354D+00 0.962D+00-0.517D+00
 Coeff:     -0.192D-06 0.603D-06 0.954D-06-0.845D-06 0.922D-05 0.825D-05
 Coeff:     -0.106D-03-0.267D-03-0.141D-02-0.185D-02-0.435D-02 0.546D-02
 Coeff:      0.686D-01 0.135D+00 0.354D+00 0.962D+00-0.517D+00
 Gap=     0.120 Goal=   None    Shift=    0.000
 RMSDP=2.67D-08 MaxDP=1.78D-06 DE=-2.00D-11 OVMax= 3.59D-08

 Cycle  18  Pass 1  IDiag  1:
 RMSU=  8.68D-09    CP:  8.24D-01  6.72D-01  8.96D-01  1.98D-01  7.02D-01
                    CP:  7.92D-01  1.04D+00  8.87D-01  8.84D-01  9.33D-01
                    CP:  9.51D-01  1.00D+00  1.26D+00  1.67D+00  1.96D+00
                    CP:  8.41D-01 -4.75D-01
 E= -2426.10974311304     Delta-E=        0.000000000085 Rises=F Damp=F
 DIIS: error= 1.92D-08 at cycle  18 NSaved=  18.
 NSaved=18 IEnMin=17 EnMin= -2426.10974311313     IErMin=18 ErrMin= 1.92D-08
 ErrMax= 1.92D-08  0.00D+00 EMaxC= 1.00D-01 BMatC= 2.90D-13 BMatP= 4.07D-13
 IDIUse=1 WtCom= 1.00D+00 WtEn= 0.00D+00
 Coeff-Com: -0.989D-07 0.347D-06 0.671D-06-0.477D-06 0.467D-05 0.152D-05
 Coeff-Com: -0.476D-04-0.122D-03-0.702D-03-0.898D-03-0.277D-02 0.587D-03
 Coeff-Com:  0.330D-01 0.727D-01 0.218D+00 0.810D+00-0.754D+00 0.625D+00
 Coeff:     -0.989D-07 0.347D-06 0.671D-06-0.477D-06 0.467D-05 0.152D-05
 Coeff:     -0.476D-04-0.122D-03-0.702D-03-0.898D-03-0.277D-02 0.587D-03
 Coeff:      0.330D-01 0.727D-01 0.218D+00 0.810D+00-0.754D+00 0.625D+00
 Gap=     0.120 Goal=   None    Shift=    0.000
 RMSDP=1.57D-08 MaxDP=7.72D-07 DE= 8.55D-11 OVMax= 4.43D-08

 Cycle  19  Pass 1  IDiag  1:
 RMSU=  9.06D-09    CP:  8.24D-01  6.72D-01  8.96D-01  1.98D-01  7.02D-01
                    CP:  7.92D-01  1.04D+00  8.87D-01  8.84D-01  9.32D-01
                    CP:  9.49D-01  1.00D+00  1.26D+00  1.62D+00  1.75D+00
                    CP:  4.50D-01 -1.29D+00  2.17D+00
 E= -2426.10974311299     Delta-E=        0.000000000055 Rises=F Damp=F
 DIIS: error= 2.70D-08 at cycle  19 NSaved=  19.
 NSaved=19 IEnMin=17 EnMin= -2426.10974311313     IErMin=18 ErrMin= 1.92D-08
 ErrMax= 2.70D-08  0.00D+00 EMaxC= 1.00D-01 BMatC= 2.57D-13 BMatP= 2.90D-13
 IDIUse=1 WtCom= 1.00D+00 WtEn= 0.00D+00
 Coeff-Com: -0.952D-07 0.363D-06 0.754D-06-0.499D-06 0.437D-05-0.275D-06
 Coeff-Com: -0.392D-04-0.103D-03-0.644D-03-0.836D-03-0.312D-02-0.131D-02
 Coeff-Com:  0.290D-01 0.707D-01 0.236D+00 0.100D+01-0.968D+00 0.981D+00
 Coeff-Com: -0.343D+00
 Coeff:     -0.952D-07 0.363D-06 0.754D-06-0.499D-06 0.437D-05-0.275D-06
 Coeff:     -0.392D-04-0.103D-03-0.644D-03-0.836D-03-0.312D-02-0.131D-02
 Coeff:      0.290D-01 0.707D-01 0.236D+00 0.100D+01-0.968D+00 0.981D+00
 Coeff:     -0.343D+00
 Gap=     0.120 Goal=   None    Shift=    0.000
 RMSDP=9.96D-09 MaxDP=7.59D-07 DE= 5.46D-11 OVMax= 1.22D-08

 Error on total polarization charges =  0.08402
 SCF Done:  E(RB3LYP) =  -2426.10974311     A.U. after   19 cycles
            NFock= 19  Conv=0.10D-07     -V/T= 2.0045
 KE= 2.415346663087D+03 PE=-1.817764476979D+04 EE= 7.074694963389D+03
 SMD-CDS (non-electrostatic) energy       (kcal/mol) =      -8.49
 (included in total energy above)
 Leave Link  502 at Fri Jul  1 11:25:31 2022, MaxMem=  5242880000 cpu:     73376.1
 (Enter /opt/nce/packages/global/g09/l801.exe)
 DoSCS=F DFT=T ScalE2(SS,OS)=  1.000000  1.000000
 ExpMin= 9.52D-02 ExpMax= 6.95D+04 ExpMxC= 2.37D+03 IAcc=3 IRadAn=         5 AccDes= 0.00D+00
 HarFok:  IExCor=  205 AccDes= 0.00D+00 IRadAn=         5 IDoV=-2 UseB2=F ITyADJ=14
 ICtDFT= 12500011 ScaDFX=  1.000000  1.000000  1.000000  1.000000
 Largest valence mixing into a core orbital is  6.27D-05
 Largest core mixing into a valence orbital is  2.05D-05
 Range of M.O.s used for correlation:    55  1700
 NBasis=  1700 NAE=   170 NBE=   170 NFC=    54 NFV=     0
 NROrb=   1646 NOA=   116 NOB=   116 NVA=  1530 NVB=  1530

 **** Warning!!: The largest alpha MO coefficient is  0.88193757D+02

 Leave Link  801 at Fri Jul  1 11:25:32 2022, MaxMem=  5242880000 cpu:         6.7
 (Enter /opt/nce/packages/global/g09/l914.exe)
 RHF ground state
 MDV=  5242880000 DFT=T DoStab=F Mixed=T DoRPA=T DoScal=F NonHer=T
 Would need an additional       3170097800000 words for in-memory AO integral storage.
 NEqPCM:  Using non-equilibrium solvation (IEInf=1, Eps=  35.6880, EpsInf=   1.8069)
 Inv3:  Mode=1 IEnd=   105494700.
 Iteration    1 A*A^-1 deviation from unit magnitude is 1.20D-14 for   5923.
 Iteration    1 A*A^-1 deviation from orthogonality  is 3.11D-15 for   5587   1251.
 Iteration    1 A^-1*A deviation from unit magnitude is 1.22D-14 for   5923.
 Iteration    1 A^-1*A deviation from orthogonality  is 5.55D-15 for   4433   4409.
 Making orbital integer symmetry assigments:
 Orbital symmetries:
       Occupied  (A) (A) (A) (A) (A) (A) (A) (A) (A) (A) (A) (A)
                 (A) (A) (A) (A) (A) (A) (A) (A) (A) (A) (A) (A)
                 (A) (A) (A) (A) (A) (A) (A) (A) (A) (A) (A) (A)
                 (A) (A) (A) (A) (A) (A) (A) (A) (A) (A) (A) (A)
                 (A) (A) (A) (A) (A) (A) (A) (A) (A) (A) (A) (A)
                 (A) (A) (A) (A) (A) (A) (A) (A) (A) (A) (A) (A)
                 (A) (A) (A) (A) (A) (A) (A) (A) (A) (A) (A) (A)
                 (A) (A) (A) (A) (A) (A) (A) (A) (A) (A) (A) (A)
                 (A) (A) (A) (A) (A) (A) (A) (A) (A) (A) (A) (A)
                 (A) (A) (A) (A) (A) (A) (A) (A) (A) (A) (A) (A)
                 (A) (A) (A) (A) (A) (A) (A) (A) (A) (A) (A) (A)
                 (A) (A) (A) (A) (A) (A) (A) (A) (A) (A) (A) (A)
                 (A) (A) (A) (A) (A) (A) (A) (A) (A) (A) (A) (A)
                 (A) (A) (A) (A) (A) (A) (A) (A) (A) (A) (A) (A)
                 (A) (A)
       Virtual   (A) (A) (A) (A) (A) (A) (A) (A) (A) (A) (A) (A)
                 (A) (A) (A) (A) (A) (A) (A) (A) (A) (A) (A) (A)
                 (A) (A) (A) (A) (A) (A) (A) (A) (A) (A) (A) (A)
                 (A) (A) (A) (A) (A) (A) (A) (A) (A) (A) (A) (A)
                 (A) (A) (A) (A) (A) (A) (A) (A) (A) (A) (A) (A)
                 (A) (A) (A) (A) (A) (A) (A) (A) (A) (A) (A) (A)
                 (A) (A) (A) (A) (A) (A) (A) (A) (A) (A) (A) (A)
                 (A) (A) (A) (A) (A) (A) (A) (A) (A) (A) (A) (A)
                 (A) (A) (A) (A) (A) (A) (A) (A) (A) (A) (A) (A)
                 (A) (A) (A) (A) (A) (A) (A) (A) (A) (A) (A) (A)
                 (A) (A) (A) (A) (A) (A) (A) (A) (A) (A) (A) (A)
                 (A) (A) (A) (A) (A) (A) (A) (A) (A) (A) (A) (A)
                 (A) (A) (A) (A) (A) (A) (A) (A) (A) (A) (A) (A)
                 (A) (A) (A) (A) (A) (A) (A) (A) (A) (A) (A) (A)
                 (A) (A) (A) (A) (A) (A) (A) (A) (A) (A) (A) (A)
                 (A) (A) (A) (A) (A) (A) (A) (A) (A) (A) (A) (A)
                 (A) (A) (A) (A) (A) (A) (A) (A) (A) (A) (A) (A)
                 (A) (A) (A) (A) (A) (A) (A) (A) (A) (A) (A) (A)
                 (A) (A) (A) (A) (A) (A) (A) (A) (A) (A) (A) (A)
                 (A) (A) (A) (A) (A) (A) (A) (A) (A) (A) (A) (A)
                 (A) (A) (A) (A) (A) (A) (A) (A) (A) (A) (A) (A)
                 (A) (A) (A) (A) (A) (A) (A) (A) (A) (A) (A) (A)
                 (A) (A) (A) (A) (A) (A) (A) (A) (A) (A) (A) (A)
                 (A) (A) (A) (A) (A) (A) (A) (A) (A) (A) (A) (A)
                 (A) (A) (A) (A) (A) (A) (A) (A) (A) (A) (A) (A)
                 (A) (A) (A) (A) (A) (A) (A) (A) (A) (A) (A) (A)
                 (A) (A) (A) (A) (A) (A) (A) (A) (A) (A) (A) (A)
                 (A) (A) (A) (A) (A) (A) (A) (A) (A) (A) (A) (A)
                 (A) (A) (A) (A) (A) (A) (A) (A) (A) (A) (A) (A)
                 (A) (A) (A) (A) (A) (A) (A) (A) (A) (A) (A) (A)
                 (A) (A) (A) (A) (A) (A) (A) (A) (A) (A) (A) (A)
                 (A) (A) (A) (A) (A) (A) (A) (A) (A) (A) (A) (A)
                 (A) (A) (A) (A) (A) (A) (A) (A) (A) (A) (A) (A)
                 (A) (A) (A) (A) (A) (A) (A) (A) (A) (A) (A) (A)
                 (A) (A) (A) (A) (A) (A) (A) (A) (A) (A) (A) (A)
                 (A) (A) (A) (A) (A) (A) (A) (A) (A) (A) (A) (A)
                 (A) (A) (A) (A) (A) (A) (A) (A) (A) (A) (A) (A)
                 (A) (A) (A) (A) (A) (A) (A) (A) (A) (A) (A) (A)
                 (A) (A) (A) (A) (A) (A) (A) (A) (A) (A) (A) (A)
                 (A) (A) (A) (A) (A) (A) (A) (A) (A) (A) (A) (A)
                 (A) (A) (A) (A) (A) (A) (A) (A) (A) (A) (A) (A)
                 (A) (A) (A) (A) (A) (A) (A) (A) (A) (A) (A) (A)
                 (A) (A) (A) (A) (A) (A) (A) (A) (A) (A) (A) (A)
                 (A) (A) (A) (A) (A) (A) (A) (A) (A) (A) (A) (A)
                 (A) (A) (A) (A) (A) (A) (A) (A) (A) (A) (A) (A)
                 (A) (A) (A) (A) (A) (A) (A) (A) (A) (A) (A) (A)
                 (A) (A) (A) (A) (A) (A) (A) (A) (A) (A) (A) (A)
                 (A) (A) (A) (A) (A) (A) (A) (A) (A) (A) (A) (A)
                 (A) (A) (A) (A) (A) (A) (A) (A) (A) (A) (A) (A)
                 (A) (A) (A) (A) (A) (A) (A) (A) (A) (A) (A) (A)
                 (A) (A) (A) (A) (A) (A) (A) (A) (A) (A) (A) (A)
                 (A) (A) (A) (A) (A) (A) (A) (A) (A) (A) (A) (A)
                 (A) (A) (A) (A) (A) (A) (A) (A) (A) (A) (A) (A)
                 (A) (A) (A) (A) (A) (A) (A) (A) (A) (A) (A) (A)
                 (A) (A) (A) (A) (A) (A) (A) (A) (A) (A) (A) (A)
                 (A) (A) (A) (A) (A) (A) (A) (A) (A) (A) (A) (A)
                 (A) (A) (A) (A) (A) (A) (A) (A) (A) (A) (A) (A)
                 (A) (A) (A) (A) (A) (A) (A) (A) (A) (A) (A) (A)
                 (A) (A) (A) (A) (A) (A) (A) (A) (A) (A) (A) (A)
                 (A) (A) (A) (A) (A) (A) (A) (A) (A) (A) (A) (A)
                 (A) (A) (A) (A) (A) (A) (A) (A) (A) (A) (A) (A)
                 (A) (A) (A) (A) (A) (A) (A) (A) (A) (A) (A) (A)
                 (A) (A) (A) (A) (A) (A) (A) (A) (A) (A) (A) (A)
                 (A) (A) (A) (A) (A) (A) (A) (A) (A) (A) (A) (A)
                 (A) (A) (A) (A) (A) (A) (A) (A) (A) (A) (A) (A)
                 (A) (A) (A) (A) (A) (A) (A) (A) (A) (A) (A) (A)
                 (A) (A) (A) (A) (A) (A) (A) (A) (A) (A) (A) (A)
                 (A) (A) (A) (A) (A) (A) (A) (A) (A) (A) (A) (A)
                 (A) (A) (A) (A) (A) (A) (A) (A) (A) (A) (A) (A)
                 (A) (A) (A) (A) (A) (A) (A) (A) (A) (A) (A) (A)
                 (A) (A) (A) (A) (A) (A) (A) (A) (A) (A) (A) (A)
                 (A) (A) (A) (A) (A) (A) (A) (A) (A) (A) (A) (A)
                 (A) (A) (A) (A) (A) (A) (A) (A) (A) (A) (A) (A)
                 (A) (A) (A) (A) (A) (A) (A) (A) (A) (A) (A) (A)
                 (A) (A) (A) (A) (A) (A) (A) (A) (A) (A) (A) (A)
                 (A) (A) (A) (A) (A) (A) (A) (A) (A) (A) (A) (A)
                 (A) (A) (A) (A) (A) (A) (A) (A) (A) (A) (A) (A)
                 (A) (A) (A) (A) (A) (A) (A) (A) (A) (A) (A) (A)
                 (A) (A) (A) (A) (A) (A) (A) (A) (A) (A) (A) (A)
                 (A) (A) (A) (A) (A) (A) (A) (A) (A) (A) (A) (A)
                 (A) (A) (A) (A) (A) (A) (A) (A) (A) (A) (A) (A)
                 (A) (A) (A) (A) (A) (A) (A) (A) (A) (A) (A) (A)
                 (A) (A) (A) (A) (A) (A) (A) (A) (A) (A) (A) (A)
                 (A) (A) (A) (A) (A) (A) (A) (A) (A) (A) (A) (A)
                 (A) (A) (A) (A) (A) (A) (A) (A) (A) (A) (A) (A)
                 (A) (A) (A) (A) (A) (A) (A) (A) (A) (A) (A) (A)
                 (A) (A) (A) (A) (A) (A) (A) (A) (A) (A) (A) (A)
                 (A) (A) (A) (A) (A) (A) (A) (A) (A) (A) (A) (A)
                 (A) (A) (A) (A) (A) (A) (A) (A) (A) (A) (A) (A)
                 (A) (A) (A) (A) (A) (A) (A) (A) (A) (A) (A) (A)
                 (A) (A) (A) (A) (A) (A) (A) (A) (A) (A) (A) (A)
                 (A) (A) (A) (A) (A) (A) (A) (A) (A) (A) (A) (A)
                 (A) (A) (A) (A) (A) (A) (A) (A) (A) (A) (A) (A)
                 (A) (A) (A) (A) (A) (A) (A) (A) (A) (A) (A) (A)
                 (A) (A) (A) (A) (A) (A) (A) (A) (A) (A) (A) (A)
                 (A) (A) (A) (A) (A) (A) (A) (A) (A) (A) (A) (A)
                 (A) (A) (A) (A) (A) (A) (A) (A) (A) (A) (A) (A)
                 (A) (A) (A) (A) (A) (A) (A) (A) (A) (A) (A) (A)
                 (A) (A) (A) (A) (A) (A) (A) (A) (A) (A) (A) (A)
                 (A) (A) (A) (A) (A) (A) (A) (A) (A) (A) (A) (A)
                 (A) (A) (A) (A) (A) (A) (A) (A) (A) (A) (A) (A)
                 (A) (A) (A) (A) (A) (A) (A) (A) (A) (A) (A) (A)
                 (A) (A) (A) (A) (A) (A) (A) (A) (A) (A) (A) (A)
                 (A) (A) (A) (A) (A) (A) (A) (A) (A) (A) (A) (A)
                 (A) (A) (A) (A) (A) (A) (A) (A) (A) (A) (A) (A)
                 (A) (A) (A) (A) (A) (A) (A) (A) (A) (A) (A) (A)
                 (A) (A) (A) (A) (A) (A) (A) (A) (A) (A) (A) (A)
                 (A) (A) (A) (A) (A) (A) (A) (A) (A) (A) (A) (A)
                 (A) (A) (A) (A) (A) (A) (A) (A) (A) (A) (A) (A)
                 (A) (A) (A) (A) (A) (A) (A) (A) (A) (A) (A) (A)
                 (A) (A) (A) (A) (A) (A) (A) (A) (A) (A) (A) (A)
                 (A) (A) (A) (A) (A) (A) (A) (A) (A) (A) (A) (A)
                 (A) (A) (A) (A) (A) (A) (A) (A) (A) (A) (A) (A)
                 (A) (A) (A) (A) (A) (A) (A) (A) (A) (A) (A) (A)
                 (A) (A) (A) (A) (A) (A) (A) (A) (A) (A) (A) (A)
                 (A) (A) (A) (A) (A) (A) (A) (A) (A) (A) (A) (A)
                 (A) (A) (A) (A) (A) (A) (A) (A) (A) (A) (A) (A)
                 (A) (A) (A) (A) (A) (A) (A) (A) (A) (A) (A) (A)
                 (A) (A) (A) (A) (A) (A) (A) (A) (A) (A) (A) (A)
                 (A) (A) (A) (A) (A) (A) (A) (A) (A) (A) (A) (A)
                 (A) (A) (A) (A) (A) (A) (A) (A) (A) (A) (A) (A)
                 (A) (A) (A) (A) (A) (A) (A) (A) (A) (A) (A) (A)
                 (A) (A) (A) (A) (A) (A) (A) (A) (A) (A) (A) (A)
                 (A) (A) (A) (A) (A) (A) (A) (A) (A) (A) (A) (A)
                 (A) (A) (A) (A) (A) (A) (A) (A) (A) (A) (A) (A)
                 (A) (A) (A) (A) (A) (A) (A) (A) (A) (A) (A) (A)
                 (A) (A) (A) (A) (A) (A) (A) (A) (A) (A) (A) (A)
                 (A) (A) (A) (A) (A) (A)
   200 initial guesses have been made.
 Convergence on wavefunction:    0.001000000000000
 Davidson Disk Diagonalization:  ConvIn= 1.00D-03 SkipCon=T Conv= 1.00D-03.
 Max sub-space:   800 roots to seek:   200 dimension of matrix:       354960
 Iteration     1 Dimension   200 NMult     0 NNew    200
 CISAX will form    72 AO SS matrices at one time.
 NMat=    72 NSing=    72 JSym2X= 0.
 FoFJK:  IHMeth= 1 ICntrl=       0 DoSepK=F KAlg= 0 I1Cent=   0 FoldK=F
 IRaf=         0 NMat= 144 IRICut=       1 DoRegI=T DoRafI=F ISym2E= 0.
 NMat=    72 NSing=    72 JSym2X= 0.
 NMat=    56 NSing=    56 JSym2X= 0.
 New state      2 was old state      3
 New state      3 was old state      2
 New state      8 was old state      9
 New state      9 was old state      8
 New state     10 was old state     12
 New state     11 was old state     10
 New state     12 was old state     11
 New state     19 was old state     22
 New state     22 was old state     36
 New state     23 was old state     19
 New state     24 was old state     35
 New state     25 was old state     33
 New state     26 was old state     23
 New state     27 was old state     24
 New state     28 was old state     37
 New state     29 was old state     25
 New state     30 was old state     26
 New state     31 was old state     30
 New state     32 was old state     27
 New state     33 was old state     28
 New state     35 was old state     39
 New state     36 was old state     38
 New state     37 was old state     29
 New state     38 was old state     31
 New state     39 was old state     32
 New state     41 was old state     43
 New state     42 was old state     46
 New state     43 was old state     47
 New state     44 was old state     60
 New state     45 was old state     54
 New state     46 was old state     44
 New state     47 was old state     45
 New state     48 was old state     50
 New state     49 was old state     55
 New state     50 was old state     56
 Excitation Energies [eV] at current iteration:
 Root      1 :     2.602594067325021
 Root      2 :     2.784532762251176
 Root      3 :     2.788820277395752
 Root      4 :     2.972715267156235
 Root      5 :     2.977323724747629
 Root      6 :     3.014517264611881
 Root      7 :     3.162185141858058
 Root      8 :     3.241705895679361
 Root      9 :     3.288355412362191
 Root     10 :     3.426067781842785
 Root     11 :     3.503343653805831
 Root     12 :     3.507558447024411
 Root     13 :     3.953076289646424
 Root     14 :     4.004300704427898
 Root     15 :     4.029120735951847
 Root     16 :     4.246869965111529
 Root     17 :     4.249729302896558
 Root     18 :     4.283530488065566
 Root     19 :     4.410510314004860
 Root     20 :     4.411967560667740
 Root     21 :     4.413010587859809
 Root     22 :     4.436549179341947
 Root     23 :     4.456480459505537
 Root     24 :     4.477232934490871
 Root     25 :     4.480658421958470
 Root     26 :     4.490131935364603
 Root     27 :     4.504279702478195
 Root     28 :     4.532378154104151
 Root     29 :     4.633069893996531
 Root     30 :     4.637172836615528
 Root     31 :     4.648694869117375
 Root     32 :     4.662340174396221
 Root     33 :     4.665510643976827
 Root     34 :     4.677318815688688
 Root     35 :     4.745526353791774
 Root     36 :     4.750409634775571
 Root     37 :     4.762979901082385
 Root     38 :     4.766756771206479
 Root     39 :     4.773868225775874
 Root     40 :     4.804152276163004
 Root     41 :     4.934777546470776
 Root     42 :     5.062817251766066
 Root     43 :     5.089678850568770
 Root     44 :     5.161641456741651
 Root     45 :     5.226138304078813
 Root     46 :     5.261321728549418
 Root     47 :     5.266838492111100
 Root     48 :     5.272527406914434
 Root     49 :     5.299411583724917
 Root     50 :     5.307076670053203
 Root     51 :     5.308442594531319
 Root     52 :     5.324144468710926
 Root     53 :     5.352266452071053
 Root     54 :     5.382842307712171
 Root     55 :     5.405806494595685
 Root     56 :     5.411489526687268
 Root     57 :     5.458092241556909
 Root     58 :     5.482874722576375
 Root     59 :     5.488652489453106
 Root     60 :     5.516021702576679
 Root     61 :     5.533397439667085
 Root     62 :     5.535910117971624
 Root     63 :     5.548412894908125
 Root     64 :     5.552408404903411
 Root     65 :     5.555947790693473
 Root     66 :     5.562456496926385
 Root     67 :     5.566839782666893
 Root     68 :     5.573959174613022
 Root     69 :     5.586043671552176
 Root     70 :     5.591957569798083
 Root     71 :     5.596648407427398
 Root     72 :     5.598484663436594
 Root     73 :     5.614510143686738
 Root     74 :     5.623325907441188
 Root     75 :     5.632370793979570
 Root     76 :     5.656716817596807
 Root     77 :     5.666846593541851
 Root     78 :     5.668770725466649
 Root     79 :     5.672256691297418
 Root     80 :     5.674610643183862
 Root     81 :     5.686096399759553
 Root     82 :     5.697539075944179
 Root     83 :     5.700713944005090
 Root     84 :     5.721046450601248
 Root     85 :     5.742786323183374
 Root     86 :     5.770285281052851
 Root     87 :     5.775609191662136
 Root     88 :     5.790924801653746
 Root     89 :     5.796656051006090
 Root     90 :     5.798483729476716
 Root     91 :     5.832507534575120
 Root     92 :     5.845661143237387
 Root     93 :     5.868974117600663
 Root     94 :     5.889944932101525
 Root     95 :     5.920008590659882
 Root     96 :     5.933049495430643
 Root     97 :     5.956331908969380
 Root     98 :     5.957340841345640
 Root     99 :     5.964373320914652
 Root    100 :     5.966124989944022
 Root    101 :     5.992479130609223
 Root    102 :     5.997318970799575
 Root    103 :     5.999593910531176
 Root    104 :     6.014492778301142
 Root    105 :     6.017373642587745
 Root    106 :     6.023720013304469
 Root    107 :     6.031730518107166
 Root    108 :     6.036708758730608
 Root    109 :     6.040593758404265
 Root    110 :     6.062729790948911
 Root    111 :     6.073603610313374
 Root    112 :     6.099948793375274
 Root    113 :     6.107876001760715
 Root    114 :     6.110490993414703
 Root    115 :     6.133072105725486
 Root    116 :     6.137767975575443
 Root    117 :     6.145944240976176
 Root    118 :     6.148382298804512
 Root    119 :     6.150102491732759
 Root    120 :     6.166788714627502
 Root    121 :     6.172415471438080
 Root    122 :     6.206302597770165
 Root    123 :     6.209041168796994
 Root    124 :     6.211065460447069
 Root    125 :     6.213582177257232
 Root    126 :     6.215102658359596
 Root    127 :     6.227483439844592
 Root    128 :     6.228605837135767
 Root    129 :     6.234443682877617
 Root    130 :     6.243873674703426
 Root    131 :     6.257090317781592
 Root    132 :     6.278975994113639
 Root    133 :     6.282751520836009
 Root    134 :     6.288179544156026
 Root    135 :     6.296988840298050
 Root    136 :     6.308053146340057
 Root    137 :     6.319098865858398
 Root    138 :     6.325908032968771
 Root    139 :     6.334228161095905
 Root    140 :     6.346051898391524
 Root    141 :     6.364764839879489
 Root    142 :     6.380776279976244
 Root    143 :     6.397218926685277
 Root    144 :     6.402145582224709
 Root    145 :     6.415450064995176
 Root    146 :     6.420910426176293
 Root    147 :     6.428114984513474
 Root    148 :     6.430997357804012
 Root    149 :     6.433507472490334
 Root    150 :     6.437060908984689
 Root    151 :     6.451238610611503
 Root    152 :     6.458836436741629
 Root    153 :     6.462419324887955
 Root    154 :     6.474656137675550
 Root    155 :     6.476679058369102
 Root    156 :     6.513933239870645
 Root    157 :     6.528532903141124
 Root    158 :     6.536299036086635
 Root    159 :     6.539870270140220
 Root    160 :     6.541349972983552
 Root    161 :     6.552262937605127
 Root    162 :     6.554754718002322
 Root    163 :     6.578089812900141
 Root    164 :     6.579401996304333
 Root    165 :     6.594496895325457
 Root    166 :     6.596463936707124
 Root    167 :     6.596955323496780
 Root    168 :     6.600564967980161
 Root    169 :     6.603675169028978
 Root    170 :     6.610106307388784
 Root    171 :     6.623181852806883
 Root    172 :     6.626195878040361
 Root    173 :     6.646758215752878
 Root    174 :     6.682151244869766
 Root    175 :     6.691515933381217
 Root    176 :     6.708992649628766
 Root    177 :     6.738573487253434
 Root    178 :     6.767759121730057
 Root    179 :     6.777785067626600
 Root    180 :     6.791820379040529
 Root    181 :     6.797941823839373
 Root    182 :     6.813556293953637
 Root    183 :     6.844266803770756
 Root    184 :     6.891217141336637
 Root    185 :     6.914469121976764
 Root    186 :     6.926223145755937
 Root    187 :     6.967048858373046
 Root    188 :     6.988607292293524
 Root    189 :     7.022139605379872
 Root    190 :     7.067982205516765
 Root    191 :     7.076369891042495
 Root    192 :     7.112637913658492
 Root    193 :     7.115717471092629
 Root    194 :     7.183906681067401
 Root    195 :     7.225974243876574
 Root    196 :     7.228532616331551
 Root    197 :     7.261829070604699
 Root    198 :     8.451767149322261
 Root    199 :     8.460775055991922
 Root    200 :     8.507405363717000
 Iteration     2 Dimension   300 NMult   200 NNew    100
 CISAX will form   100 AO SS matrices at one time.
 NMat=   100 NSing=   100 JSym2X= 0.
 Root      1 not converged, maximum delta is    0.016074974155356
 New state      2 was old state      3
 Root      2 not converged, maximum delta is    0.450854760900468
 New state      3 was old state      2
 Root      3 not converged, maximum delta is    0.444689661085962
 Root      4 not converged, maximum delta is    0.017015501450585
 Root      5 not converged, maximum delta is    0.016772125913128
 Root      6 not converged, maximum delta is    0.010175149034698
 Root      7 not converged, maximum delta is    0.118274315990319
 Root      8 not converged, maximum delta is    0.112373833477281
 Root      9 not converged, maximum delta is    0.013779286107925
 Root     10 not converged, maximum delta is    0.009916544962173
 Root     11 not converged, maximum delta is    0.026920055141708
 Root     12 not converged, maximum delta is    0.028980361235590
 Root     13 not converged, maximum delta is    0.025770826521809
 Root     14 not converged, maximum delta is    0.057806284965178
 Root     15 not converged, maximum delta is    0.058007065140702
 Root     16 not converged, maximum delta is    0.127972967171225
 Root     17 not converged, maximum delta is    0.143528013191033
 Root     18 not converged, maximum delta is    0.120688893054746
 New state     19 was old state     24
 Root     19 not converged, maximum delta is    0.176461471042724
 New state     20 was old state     19
 Root     20 not converged, maximum delta is    0.131100345908967
 New state     21 was old state     20
 Root     21 not converged, maximum delta is    0.237399065676251
 New state     22 was old state     21
 Root     22 not converged, maximum delta is    0.232664106100154
 New state     23 was old state     22
 Root     23 not converged, maximum delta is    0.160156166937020
 New state     24 was old state     23
 Root     24 not converged, maximum delta is    0.104429728331168
 Root     25 not converged, maximum delta is    0.186070850724426
 New state     26 was old state     37
 Root     26 not converged, maximum delta is    0.291035000384418
 New state     27 was old state     26
 Root     27 not converged, maximum delta is    0.104123194415275
 New state     28 was old state     27
 Root     28 not converged, maximum delta is    0.246598445961625
 New state     29 was old state     38
 Root     29 not converged, maximum delta is    0.337812538858279
 New state     30 was old state     39
 Root     30 not converged, maximum delta is    0.318405195750715
 New state     31 was old state     28
 Root     31 not converged, maximum delta is    0.266345146239830
 New state     32 was old state     29
 Root     32 not converged, maximum delta is    0.038888605086625
 New state     33 was old state     30
 Root     33 not converged, maximum delta is    0.021718057604111
 New state     34 was old state     31
 Root     34 not converged, maximum delta is    0.037271804760628
 New state     35 was old state     32
 Root     35 not converged, maximum delta is    0.171004682660288
 New state     36 was old state     33
 Root     36 not converged, maximum delta is    0.182183198331498
 New state     37 was old state     34
 Root     37 not converged, maximum delta is    0.067325868635422
 New state     38 was old state     36
 Root     38 not converged, maximum delta is    0.152628312382213
 New state     39 was old state     35
 Root     39 not converged, maximum delta is    0.128964039549550
 Root     40 not converged, maximum delta is    0.059395442086691
 Root     41 not converged, maximum delta is    0.088779864492013
 New state     42 was old state     44
 Root     42 not converged, maximum delta is    0.401442991978088
 New state     43 was old state     42
 Root     43 not converged, maximum delta is    0.042001109164688
 New state     44 was old state     43
 Root     44 not converged, maximum delta is    0.101001820165190
 New state     45 was old state     47
 Root     45 not converged, maximum delta is    0.310737673360924
 Root     46 not converged, maximum delta is    0.330745840648215
 New state     47 was old state     45
 Root     47 not converged, maximum delta is    0.364941792848319
 Root     48 not converged, maximum delta is    0.362089234246849
 New state     49 was old state     53
 Root     49 not converged, maximum delta is    0.417465792953871
 New state     50 was old state     49
 Root     50 not converged, maximum delta is    0.478204980771149
 Excitation Energies [eV] at current iteration:
 Root      1 :     2.574362081310259   Change is   -0.028231986014762
 Root      2 :     2.735883706983267   Change is   -0.052936570412485
 Root      3 :     2.764030192135773   Change is   -0.020502570115403
 Root      4 :     2.966419621440930   Change is   -0.006295645715304
 Root      5 :     2.971179346474384   Change is   -0.006144378273245
 Root      6 :     3.012246849611448   Change is   -0.002270415000433
 Root      7 :     3.081212151719407   Change is   -0.080972990138651
 Root      8 :     3.214336378036656   Change is   -0.027369517642704
 Root      9 :     3.263386916400013   Change is   -0.024968495962177
 Root     10 :     3.413174487902471   Change is   -0.012893293940314
 Root     11 :     3.498686393140485   Change is   -0.004657260665346
 Root     12 :     3.503595375487439   Change is   -0.003963071536972
 Root     13 :     3.939410165408052   Change is   -0.013666124238372
 Root     14 :     3.994319617999008   Change is   -0.009981086428890
 Root     15 :     4.021270183002566   Change is   -0.007850552949280
 Root     16 :     4.100662930502127   Change is   -0.146207034609402
 Root     17 :     4.101878284143242   Change is   -0.147851018753316
 Root     18 :     4.122411941355897   Change is   -0.161118546709668
 Root     19 :     4.349248897067347   Change is   -0.127984037423524
 Root     20 :     4.387749236763350   Change is   -0.022761077241510
 Root     21 :     4.389236937877097   Change is   -0.022730622790644
 Root     22 :     4.397433145349553   Change is   -0.015577442510255
 Root     23 :     4.404722682627286   Change is   -0.031826496714661
 Root     24 :     4.451935224781996   Change is   -0.004545234723541
 Root     25 :     4.456705277331978   Change is   -0.023953144626492
 Root     26 :     4.483412027011903   Change is   -0.279567874070481
 Root     27 :     4.488154036341089   Change is   -0.001977899023514
 Root     28 :     4.499597681881273   Change is   -0.004682020596923
 Root     29 :     4.505626858969651   Change is   -0.261129912236827
 Root     30 :     4.516192883776773   Change is   -0.257675341999101
 Root     31 :     4.537526836352619   Change is    0.005148682248467
 Root     32 :     4.632853490215102   Change is   -0.000216403781429
 Root     33 :     4.636877722747440   Change is   -0.000295113868089
 Root     34 :     4.648099726794426   Change is   -0.000595142322949
 Root     35 :     4.664951612859122   Change is    0.002611438462900
 Root     36 :     4.667593673529672   Change is    0.002083029552846
 Root     37 :     4.678204023358700   Change is    0.000885207670012
 Root     38 :     4.723723292264657   Change is   -0.026686342510915
 Root     39 :     4.731305507695474   Change is   -0.014220846096301
 Root     40 :     4.785338389482773   Change is   -0.018813886680232
 Root     41 :     4.905554100530903   Change is   -0.029223445939873
 Root     42 :     4.998264776313512   Change is   -0.163376680428139
 Root     43 :     5.044124784260291   Change is   -0.018692467505775
 Root     44 :     5.067369065138507   Change is   -0.022309785430264
 Root     45 :     5.125961703731858   Change is   -0.140876788379242
 Root     46 :     5.135835123304618   Change is   -0.125486605244800
 Root     47 :     5.194020358904814   Change is   -0.032117945174000
 Root     48 :     5.215390374216757   Change is   -0.057137032697677
 Root     49 :     5.242302095003968   Change is   -0.109964357067085
 Root     50 :     5.243598443905650   Change is   -0.055813139819268
 Iteration     3 Dimension   400 NMult   300 NNew    100
 CISAX will form   100 AO SS matrices at one time.
 NMat=   100 NSing=   100 JSym2X= 0.
 Root      1 not converged, maximum delta is    0.002620498621160
 Root      2 not converged, maximum delta is    0.002628547924166
 Root      3 not converged, maximum delta is    0.002334012398220
 Root      4 not converged, maximum delta is    0.001607411826557
 Root      5 not converged, maximum delta is    0.001236509347046
 Root      6 not converged, maximum delta is    0.001492892449135
 Root      7 not converged, maximum delta is    0.002785811208217
 Root      8 not converged, maximum delta is    0.002879534686075
 Root      9 not converged, maximum delta is    0.002076327915784
 Root     10 not converged, maximum delta is    0.001514900116318
 Root     11 not converged, maximum delta is    0.001212515088089
 Root     12 not converged, maximum delta is    0.001280157564798
 Root     13 not converged, maximum delta is    0.001563583789937
 Root     14 not converged, maximum delta is    0.002231030302773
 Root     15 not converged, maximum delta is    0.002202696550232
 Root     16 not converged, maximum delta is    0.319844247725629
 Root     17 not converged, maximum delta is    0.312086370795422
 Root     18 not converged, maximum delta is    0.036295922936633
 Root     19 not converged, maximum delta is    0.011574507011924
 Root     20 not converged, maximum delta is    0.027190327263510
 Root     21 not converged, maximum delta is    0.025085222732856
 Root     22 not converged, maximum delta is    0.007197174577733
 Root     23 not converged, maximum delta is    0.021125317246587
 Root     24 not converged, maximum delta is    0.063224261145965
 Root     25 not converged, maximum delta is    0.069994593582458
 Root     26 not converged, maximum delta is    0.094732114854115
 Root     27 not converged, maximum delta is    0.045721446593027
 Root     28 not converged, maximum delta is    0.303676799627616
 Root     29 not converged, maximum delta is    0.229913468157503
 Root     30 not converged, maximum delta is    0.055304933338204
 Root     31 not converged, maximum delta is    0.046051323847773
 Root     32 not converged, maximum delta is    0.001261658514472
 Root     33 has converged.
 Root     34 not converged, maximum delta is    0.001182242645929
 Root     35 not converged, maximum delta is    0.007210691562174
 Root     36 not converged, maximum delta is    0.007695406827364
 Root     37 not converged, maximum delta is    0.001653973568001
 Root     38 not converged, maximum delta is    0.039878869902985
 Root     39 not converged, maximum delta is    0.018622272905191
 Root     40 not converged, maximum delta is    0.003350600911587
 Root     41 not converged, maximum delta is    0.006230853335685
 Root     42 not converged, maximum delta is    0.094148221494822
 Root     43 not converged, maximum delta is    0.048145904369266
 Root     44 not converged, maximum delta is    0.027409527901849
 Root     45 not converged, maximum delta is    0.101990523731386
 Root     46 not converged, maximum delta is    0.039843193912016
 Root     47 not converged, maximum delta is    0.353363369917308
 Root     48 not converged, maximum delta is    0.163816283488073
 Root     49 not converged, maximum delta is    0.331957023431946
 Root     50 not converged, maximum delta is    0.137302068263139
 Excitation Energies [eV] at current iteration:
 Root      1 :     2.573015920663286   Change is   -0.001346160646973
 Root      2 :     2.733675212533795   Change is   -0.002208494449472
 Root      3 :     2.763060792030338   Change is   -0.000969400105435
 Root      4 :     2.966134479624055   Change is   -0.000285141816876
 Root      5 :     2.970897940695288   Change is   -0.000281405779096
 Root      6 :     3.012159185426078   Change is   -0.000087664185370
 Root      7 :     3.078256706557506   Change is   -0.002955445161900
 Root      8 :     3.213020925974592   Change is   -0.001315452062064
 Root      9 :     3.262151225887866   Change is   -0.001235690512147
 Root     10 :     3.412602022554037   Change is   -0.000572465348434
 Root     11 :     3.498507211938460   Change is   -0.000179181202025
 Root     12 :     3.503454922493530   Change is   -0.000140452993909
 Root     13 :     3.938782815958018   Change is   -0.000627349450034
 Root     14 :     3.993876495418657   Change is   -0.000443122580352
 Root     15 :     4.020891564672118   Change is   -0.000378618330449
 Root     16 :     4.092488028213300   Change is   -0.008174902288826
 Root     17 :     4.092885993075939   Change is   -0.008992291067303
[...]
 Alpha virt. eigenvalues --    2.36127   2.36784   2.37349   2.37447   2.37807
 Alpha virt. eigenvalues --    2.38343   2.39138   2.39443   2.39661   2.40951
 Alpha virt. eigenvalues --    2.41865   2.42427   2.42842   2.42868   2.43274
 Alpha virt. eigenvalues --    2.43561   2.43739   2.43831   2.45404   2.45757
 Alpha virt. eigenvalues --    2.46171   2.47203   2.47994   2.48491   2.48649
 Alpha virt. eigenvalues --    2.48709   2.49407   2.49506   2.50128   2.50307
 Alpha virt. eigenvalues --    2.50849   2.51373   2.51887   2.52040   2.52414
 Alpha virt. eigenvalues --    2.52617   2.52749   2.53869   2.55145   2.55592
 Alpha virt. eigenvalues --    2.56293   2.56929   2.57105   2.57237   2.57796
 Alpha virt. eigenvalues --    2.58200   2.58526   2.59124   2.59356   2.60782
 Alpha virt. eigenvalues --    2.61080   2.61159   2.61797   2.61996   2.62586
 Alpha virt. eigenvalues --    2.63013   2.63112   2.63266   2.63305   2.63496
 Alpha virt. eigenvalues --    2.63588   2.64568   2.64575   2.64955   2.65373
 Alpha virt. eigenvalues --    2.65390   2.65430   2.65680   2.65704   2.65803
 Alpha virt. eigenvalues --    2.66090   2.66252   2.66404   2.66587   2.66827
 Alpha virt. eigenvalues --    2.67245   2.67753   2.68009   2.68307   2.68370
 Alpha virt. eigenvalues --    2.68800   2.69194   2.69216   2.69859   2.69878
 Alpha virt. eigenvalues --    2.70274   2.70788   2.70833   2.71199   2.71871
 Alpha virt. eigenvalues --    2.72148   2.72443   2.72626   2.72728   2.72971
 Alpha virt. eigenvalues --    2.73089   2.73097   2.73329   2.73485   2.73719
 Alpha virt. eigenvalues --    2.74110   2.74407   2.74613   2.74964   2.75045
 Alpha virt. eigenvalues --    2.75099   2.75264   2.75310   2.75528   2.75623
 Alpha virt. eigenvalues --    2.76011   2.76379   2.76916   2.77045   2.77453
 Alpha virt. eigenvalues --    2.78184   2.78394   2.78710   2.78756   2.79595
 Alpha virt. eigenvalues --    2.79823   2.79994   2.80137   2.80562   2.81261
 Alpha virt. eigenvalues --    2.81522   2.81662   2.82031   2.82386   2.82551
 Alpha virt. eigenvalues --    2.82621   2.83105   2.83357   2.83778   2.83907
 Alpha virt. eigenvalues --    2.84336   2.84377   2.84707   2.85015   2.85677
 Alpha virt. eigenvalues --    2.85895   2.86138   2.86143   2.86478   2.86939
 Alpha virt. eigenvalues --    2.86996   2.87609   2.87883   2.87973   2.88556
 Alpha virt. eigenvalues --    2.88608   2.88998   2.89712   2.90023   2.90352
 Alpha virt. eigenvalues --    2.91448   2.91630   2.92179   2.92315   2.92494
 Alpha virt. eigenvalues --    2.92908   2.93356   2.93631   2.93783   2.93986
 Alpha virt. eigenvalues --    2.94323   2.94662   2.94721   2.95096   2.95196
 Alpha virt. eigenvalues --    2.95663   2.95984   2.96211   2.96385   2.96848
 Alpha virt. eigenvalues --    2.97613   2.97914   2.97926   2.98420   2.98748
 Alpha virt. eigenvalues --    2.99050   2.99511   2.99570   2.99739   3.00283
 Alpha virt. eigenvalues --    3.00459   3.00999   3.02226   3.02391   3.02796
 Alpha virt. eigenvalues --    3.03117   3.03330   3.03632   3.03889   3.03925
 Alpha virt. eigenvalues --    3.04298   3.04756   3.05268   3.05660   3.06046
 Alpha virt. eigenvalues --    3.06410   3.06609   3.06665   3.06928   3.07120
 Alpha virt. eigenvalues --    3.07214   3.07585   3.07758   3.08373   3.08461
 Alpha virt. eigenvalues --    3.08957   3.09080   3.09492   3.10471   3.10647
 Alpha virt. eigenvalues --    3.11211   3.11735   3.12501   3.13206   3.13591
 Alpha virt. eigenvalues --    3.13637   3.13949   3.14258   3.14411   3.14506
 Alpha virt. eigenvalues --    3.14600   3.15312   3.15432   3.15691   3.15941
 Alpha virt. eigenvalues --    3.16143   3.16408   3.16509   3.16779   3.16798
 Alpha virt. eigenvalues --    3.17322   3.17532   3.17890   3.18087   3.18130
 Alpha virt. eigenvalues --    3.18701   3.18880   3.19092   3.19526   3.19678
 Alpha virt. eigenvalues --    3.19906   3.19925   3.20084   3.20521   3.20703
 Alpha virt. eigenvalues --    3.20862   3.20896   3.21098   3.21530   3.21552
 Alpha virt. eigenvalues --    3.22291   3.22852   3.23209   3.23459   3.23788
 Alpha virt. eigenvalues --    3.23960   3.24297   3.24649   3.25008   3.25508
 Alpha virt. eigenvalues --    3.25690   3.25916   3.25969   3.26328   3.26734
 Alpha virt. eigenvalues --    3.27197   3.27432   3.27642   3.28125   3.28245
 Alpha virt. eigenvalues --    3.28859   3.28912   3.29041   3.29893   3.30345
 Alpha virt. eigenvalues --    3.30377   3.30805   3.31025   3.31376   3.31473
 Alpha virt. eigenvalues --    3.31791   3.32175   3.32338   3.32687   3.33087
 Alpha virt. eigenvalues --    3.33312   3.33971   3.34034   3.34331   3.34353
 Alpha virt. eigenvalues --    3.34492   3.34748   3.34902   3.35297   3.35353
 Alpha virt. eigenvalues --    3.35709   3.36562   3.36770   3.36986   3.37054
 Alpha virt. eigenvalues --    3.37505   3.37520   3.37789   3.38190   3.38488
 Alpha virt. eigenvalues --    3.39019   3.39300   3.39387   3.39604   3.39927
 Alpha virt. eigenvalues --    3.40259   3.40428   3.40953   3.40960   3.40985
 Alpha virt. eigenvalues --    3.41306   3.41663   3.42018   3.42158   3.42249
 Alpha virt. eigenvalues --    3.42702   3.42819   3.43626   3.43839   3.44034
 Alpha virt. eigenvalues --    3.44449   3.44659   3.46145   3.46682   3.47092
 Alpha virt. eigenvalues --    3.47140   3.47324   3.48030   3.48130   3.48383
 Alpha virt. eigenvalues --    3.48638   3.48985   3.49115   3.49387   3.49477
 Alpha virt. eigenvalues --    3.49597   3.50456   3.50525   3.50631   3.50798
 Alpha virt. eigenvalues --    3.50835   3.51020   3.51349   3.51839   3.52108
 Alpha virt. eigenvalues --    3.52205   3.52413   3.52593   3.52885   3.53164
 Alpha virt. eigenvalues --    3.53415   3.53611   3.53638   3.53795   3.54016
 Alpha virt. eigenvalues --    3.55512   3.55664   3.56154   3.56234   3.56621
 Alpha virt. eigenvalues --    3.56977   3.57468   3.57768   3.57904   3.58152
 Alpha virt. eigenvalues --    3.58248   3.58398   3.58673   3.58709   3.59118
 Alpha virt. eigenvalues --    3.59232   3.59800   3.59905   3.60625   3.61513
 Alpha virt. eigenvalues --    3.61589   3.62033   3.62330   3.62367   3.62539
 Alpha virt. eigenvalues --    3.62644   3.62776   3.63567   3.64202   3.64291
 Alpha virt. eigenvalues --    3.64418   3.64826   3.65350   3.65788   3.66383
 Alpha virt. eigenvalues --    3.66466   3.67187   3.67399   3.68616   3.69132
 Alpha virt. eigenvalues --    3.69256   3.70627   3.70747   3.74541   3.75489
 Alpha virt. eigenvalues --    3.76159   3.76693   3.77640   3.78119   3.79425
 Alpha virt. eigenvalues --    3.79744   3.80213   3.80458   3.81005   3.81073
 Alpha virt. eigenvalues --    3.81491   3.81985   3.82053   3.82383   3.82528
 Alpha virt. eigenvalues --    3.83451   3.84695   3.86131   3.86365   3.87213
 Alpha virt. eigenvalues --    3.87845   3.87919   3.88781   3.89495   3.90812
 Alpha virt. eigenvalues --    3.91194   3.91575   3.92550   3.92927   3.93740
 Alpha virt. eigenvalues --    3.94339   3.94669   3.94834   3.94973   3.94995
 Alpha virt. eigenvalues --    3.95331   3.95389   3.95860   3.96061   3.96561
 Alpha virt. eigenvalues --    3.96879   3.97019   3.97362   3.97401   3.97934
 Alpha virt. eigenvalues --    3.98312   3.98648   3.98826   3.99734   4.00848
 Alpha virt. eigenvalues --    4.00898   4.01105   4.01822   4.02739   4.03299
 Alpha virt. eigenvalues --    4.03487   4.03855   4.05365   4.05780   4.08039
 Alpha virt. eigenvalues --    4.08341   4.08804   4.09495   4.09540   4.09654
 Alpha virt. eigenvalues --    4.09994   4.10449   4.11335   4.11375   4.11603
 Alpha virt. eigenvalues --    4.11685   4.12075   4.12665   4.12744   4.13153
 Alpha virt. eigenvalues --    4.13196   4.14568   4.14919   4.15278   4.15314
 Alpha virt. eigenvalues --    4.16095   4.16357   4.16868   4.16944   4.17385
 Alpha virt. eigenvalues --    4.17903   4.19038   4.19356   4.19682   4.19781
 Alpha virt. eigenvalues --    4.19804   4.19960   4.20200   4.20207   4.20484
 Alpha virt. eigenvalues --    4.20636   4.21053   4.21609   4.21711   4.21982
 Alpha virt. eigenvalues --    4.22109   4.22559   4.23075   4.23702   4.23963
 Alpha virt. eigenvalues --    4.24918   4.26293   4.26326   4.26623   4.26881
 Alpha virt. eigenvalues --    4.27298   4.27746   4.27953   4.29039   4.29348
 Alpha virt. eigenvalues --    4.29815   4.30148   4.30646   4.30739   4.31624
 Alpha virt. eigenvalues --    4.32018   4.32339   4.32496   4.32802   4.32814
 Alpha virt. eigenvalues --    4.33440   4.33962   4.34417   4.34552   4.35556
 Alpha virt. eigenvalues --    4.35635   4.36577   4.37659   4.38820   4.39539
 Alpha virt. eigenvalues --    4.40840   4.41160   4.41564   4.42689   4.43094
 Alpha virt. eigenvalues --    4.43489   4.43586   4.44392   4.45542   4.47596
 Alpha virt. eigenvalues --    4.47854   4.49078   4.51099   4.51614   4.52475
 Alpha virt. eigenvalues --    4.54763   4.55027   4.55501   4.55572   4.55720
 Alpha virt. eigenvalues --    4.56381   4.57061   4.57163   4.58171   4.58273
 Alpha virt. eigenvalues --    4.59082   4.59681   4.60081   4.60665   4.60880
 Alpha virt. eigenvalues --    4.62173   4.63256   4.63492   4.65248   4.65806
 Alpha virt. eigenvalues --    4.67327   4.68652   4.69146   4.70772   4.71182
 Alpha virt. eigenvalues --    4.71963   4.72076   4.72555   4.72862   4.72934
 Alpha virt. eigenvalues --    4.73642   4.73794   4.74103   4.74468   4.75521
 Alpha virt. eigenvalues --    4.75576   4.78075   4.78235   4.78983   4.79340
 Alpha virt. eigenvalues --    4.79708   4.80535   4.82331   4.82450   4.82622
 Alpha virt. eigenvalues --    4.82740   4.84102   4.84486   4.84930   4.85900
 Alpha virt. eigenvalues --    4.86165   4.86704   4.88068   4.89074   4.90212
 Alpha virt. eigenvalues --    4.91983   4.92424   4.94329   4.95653   4.96692
 Alpha virt. eigenvalues --    4.96778   4.96925   4.97279   4.97844   4.98442
 Alpha virt. eigenvalues --    4.99752   5.00640   5.00883   5.01513   5.03844
 Alpha virt. eigenvalues --    5.04098   5.05116   5.06518   5.06826   5.06950
 Alpha virt. eigenvalues --    5.07402   5.08177   5.08451   5.11206   5.13574
 Alpha virt. eigenvalues --    5.13902   5.15074   5.16576   5.17059   5.17343
 Alpha virt. eigenvalues --    5.18121   5.18487   5.18809   5.18858   5.20313
 Alpha virt. eigenvalues --    5.21959   5.23047   5.23526   5.24729   5.24950
 Alpha virt. eigenvalues --    5.27590   5.30916   5.32397   5.32774   5.33219
 Alpha virt. eigenvalues --    5.33775   5.35140   5.35516   5.35993   5.36293
 Alpha virt. eigenvalues --    5.36547   5.36921   5.37207   5.37661   5.38605
 Alpha virt. eigenvalues --    5.41111   5.42456   5.44717   5.45774   5.46679
 Alpha virt. eigenvalues --    5.48415   5.53332   5.54259   5.55085   5.58417
 Alpha virt. eigenvalues --    5.58807   5.59987   5.60130   5.60507   5.61359
 Alpha virt. eigenvalues --    5.62089   5.62486   5.63865   5.64949   5.65632
 Alpha virt. eigenvalues --    5.65868   5.69947   5.70651   5.73370   5.74772
 Alpha virt. eigenvalues --    5.77291   5.77369   5.78261   5.78656   5.78767
 Alpha virt. eigenvalues --    5.80711   5.82385   5.82612   5.83131   5.84543
 Alpha virt. eigenvalues --    5.87781   5.92415   5.93176   5.94459   5.97153
 Alpha virt. eigenvalues --    6.06545   6.13649   6.17695   6.20087   6.20459
 Alpha virt. eigenvalues --    6.29461   6.30807   6.33279   6.44748   6.46916
 Alpha virt. eigenvalues --    6.48426   6.52943  10.76384  10.97358  11.42079
 Alpha virt. eigenvalues --   22.21312  22.22509  22.24551  22.46164  22.46300
 Alpha virt. eigenvalues --   22.47120  22.57306  22.58783  22.59057  22.59168
 Alpha virt. eigenvalues --   22.62862  22.63154  22.65184  22.65229  22.65722
 Alpha virt. eigenvalues --   22.65911  22.72350  22.72606  22.73617  22.74698
 Alpha virt. eigenvalues --   22.75530  22.75743  22.91764  22.91973  22.92139
 Alpha virt. eigenvalues --   22.94196  22.99674  23.00283  23.00587  23.11461
 Alpha virt. eigenvalues --   23.18485  23.18905  23.20474  23.20866  23.22675
 Alpha virt. eigenvalues --   23.51425  23.51552  23.51660  23.53906  23.76401
 Alpha virt. eigenvalues --   23.77170  23.77433  23.79827  23.91534  26.48889
 Alpha virt. eigenvalues --   32.26524  32.26811  33.35924  33.38625  33.39441
          Condensed to atoms (all electrons):
 Mulliken charges:
               1
     1  C    0.047879
     2  C    0.004446
     3  C    0.051570
     4  C    0.155880
     5  C   -0.015431
     6  C    0.161902
     7  C   -0.168676
     8  C   -0.170433
     9  N   -0.015962
    10  N   -0.015937
    11  N    0.049674
    12  C    0.109247
    13  C    0.103924
    14  C   -0.245920
    15  C    0.016304
    16  C   -0.248628
    17  C    0.028242
    18  C   -0.136697
    19  H    0.162999
    20  C   -0.231132
    21  C   -0.141459
    22  H    0.170587
    23  C   -0.232609
    24  C   -0.150306
    25  H    0.151303
    26  H    0.148746
    27  C   -0.150453
    28  H    0.150736
    29  H    0.149150
    30  H    0.147335
    31  H    0.146999
    32  N    0.049763
    33  C    0.105628
    34  C    0.108255
    35  C   -0.249110
    36  C    0.026510
    37  C   -0.245200
    38  C    0.016059
    39  C   -0.142812
    40  H    0.172985
    41  C   -0.231866
    42  C   -0.136901
    43  H    0.163930
    44  C   -0.230723
    45  C   -0.150774
    46  H    0.150737
    47  H    0.149206
    48  C   -0.150349
    49  H    0.151314
    50  H    0.148772
    51  H    0.146970
    52  H    0.147327
    53  N    0.038678
    54  C    0.112852
    55  C    0.112543
    56  C   -0.259374
    57  C    0.016104
    58  C   -0.257992
    59  C    0.015879
    60  C   -0.133917
    61  H    0.177432
    62  C   -0.225503
    63  C   -0.136020
    64  H    0.178586
    65  C   -0.225521
    66  C   -0.155476
    67  H    0.150770
    68  H    0.149280
    69  C   -0.155088
    70  H    0.150701
    71  H    0.149268
    72  H    0.147099
    73  H    0.147099
    74  Cl  -0.030403
 Sum of Mulliken charges =  -0.00000
 Mulliken charges with hydrogens summed into heavy atoms:
               1
     1  C    0.047879
     2  C    0.004446
     3  C    0.051570
     4  C    0.155880
     5  C   -0.015431
     6  C    0.161902
     7  C   -0.168676
     8  C   -0.170433
     9  N   -0.015962
    10  N   -0.015937
    11  N    0.049674
    12  C    0.109247
    13  C    0.103924
    14  C   -0.082920
    15  C    0.016304
    16  C   -0.078041
    17  C    0.028242
    18  C    0.014606
    20  C   -0.082385
    21  C    0.009277
    23  C   -0.083458
    24  C   -0.002971
    27  C   -0.003454
    32  N    0.049763
    33  C    0.105628
    34  C    0.108255
    35  C   -0.076125
    36  C    0.026510
    37  C   -0.081270
    38  C    0.016059
    39  C    0.007925
    41  C   -0.082660
    42  C    0.014413
    44  C   -0.081952
    45  C   -0.003804
    48  C   -0.003022
    53  N    0.038678
    54  C    0.112852
    55  C    0.112543
    56  C   -0.081941
    57  C    0.016104
    58  C   -0.079406
    59  C    0.015879
    60  C    0.016853
    62  C   -0.076222
    63  C    0.014680
    65  C   -0.076253
    66  C   -0.008377
    69  C   -0.007989
    74  Cl  -0.030403
 Electronic spatial extent (au):  <R**2>=          27836.0844
 Charge=             -0.0000 electrons
 Dipole moment (field-independent basis, Debye):
    X=              0.0328    Y=             -3.6447    Z=              0.0319  Tot=              3.6450
 Quadrupole moment (field-independent basis, Debye-Ang):
   XX=           -305.0174   YY=           -289.4882   ZZ=           -269.0271
   XY=             -0.4671   XZ=            -21.8947   YZ=             -0.0354
 Traceless Quadrupole moment (field-independent basis, Debye-Ang):
   XX=            -17.1731   YY=             -1.6440   ZZ=             18.8171
   XY=             -0.4671   XZ=            -21.8947   YZ=             -0.0354
 Octapole moment (field-independent basis, Debye-Ang**2):
  XXX=             10.1602  YYY=            125.4587  ZZZ=              0.6510  XYY=            -11.8791
  XXY=           -208.9961  XXZ=              5.5054  XZZ=              2.3665  YZZ=            -33.0946
  YYZ=             -5.1555  XYZ=            -97.2726
 Hexadecapole moment (field-independent basis, Debye-Ang**3):
 XXXX=         -16446.8235 YYYY=         -14927.4069 ZZZZ=          -5655.6760 XXXY=              0.8486
 XXXZ=           -372.7179 YYYX=            -10.0298 YYYZ=              3.6850 ZZZX=           -203.4938
 ZZZY=             -3.1201 XXYY=          -5400.9228 XXZZ=          -3600.4200 YYZZ=          -3431.4540
 XXYZ=             -1.4837 YYXZ=            -13.2221 ZZXY=             -3.4238
 N-N= 6.261493400200D+03 E-N=-1.817764476956D+04  KE= 2.415346663087D+03
 Leave Link  601 at Sat Jul  2 12:40:17 2022, MaxMem=  5242880000 cpu:        15.3
 (Enter /opt/nce/packages/global/g09/l9999.exe)
 1\1\GINC-CN029\SP\RB3LYP TD-FC\def2TZVP\C44H24Cl1N5\PNG4RJV\02-Jul-202
 2\0\\#p b3lyp/def2TZVP td=(NStates=50) int=ultrafine scrf=(SMD,solvent
 =Acetonitrile) EmpiricalDispersion=GD3BJ\\Title\\0,1\C,0,1.215527,-0.7
 11789,0.174211\C,0,0.02843,-1.429722,0.009608\C,0,-1.184767,-0.759878,
 -0.170768\C,0,-1.196333,0.643097,-0.205935\C,0,-0.025171,1.382153,-0.0
 08488\C,0,1.17412,0.69089,0.191632\C,0,-2.412168,1.317195,-0.516397\C,
 0,2.365258,1.413703,0.486585\N,0,-3.390698,1.861569,-0.781202\N,0,3.32
 4334,1.997154,0.739067\N,0,2.443364,-1.360144,0.351883\C,0,2.84148,-2.
 072992,1.487506\C,0,3.494567,-1.35463,-0.57269\C,0,2.145743,-2.307467,
 2.665687\C,0,4.159456,-2.538718,1.28411\C,0,3.55069,-0.777935,-1.83434
 4\C,0,4.5742,-2.083197,-0.026672\C,0,2.791165,-3.043265,3.651879\H,0,1
 .142332,-1.931948,2.813834\C,0,4.785434,-3.273564,2.290267\C,0,4.72859
 9,-0.934402,-2.554788\H,0,2.714091,-0.227112,-2.242923\C,0,5.743415,-2
 .228948,-0.772027\C,0,4.093831,-3.524374,3.467657\H,0,2.27488,-3.24577
 1,4.581426\H,0,5.795649,-3.638281,2.154588\C,0,5.813242,-1.64994,-2.03
 2048\H,0,4.805844,-0.4937,-3.540383\H,0,6.582085,-2.784906,-0.372597\H
 ,0,4.566476,-4.094326,4.256998\H,0,6.715444,-1.752927,-2.620894\N,0,-2
 .385333,-1.457028,-0.345497\C,0,-3.447041,-1.469443,0.567193\C,0,-2.74
 3385,-2.210733,-1.468281\C,0,-3.540068,-0.864394,1.813199\C,0,-4.49165
 6,-2.25158,0.027527\C,0,-2.027063,-2.444137,-2.634321\C,0,-4.044861,-2
 .721706,-1.267471\C,0,-4.719778,-1.047937,2.524267\H,0,-2.730232,-0.27
 1141,2.215855\C,0,-5.663325,-2.423777,0.76327\C,0,-2.633678,-3.225884,
 -3.609777\H,0,-1.037737,-2.033031,-2.782515\C,0,-4.63175,-3.502228,-2.
 262588\C,0,-5.770063,-1.817239,2.007682\H,0,-4.825763,-0.585879,3.4973
 34\H,0,-6.475253,-3.021192,0.368542\C,0,-3.918806,-3.752478,-3.42728\H
 ,0,-2.100352,-3.428668,-4.529607\H,0,-5.629028,-3.90158,-2.128757\H,0,
 -6.674852,-1.93996,2.588682\H,0,-4.361565,-4.356936,-4.208233\N,0,-0.0
 53719,2.779308,-0.009027\C,0,0.601202,3.612082,-0.928254\C,0,-0.746145
 ,3.579072,0.911849\C,0,1.380384,3.272507,-2.026466\C,0,0.322783,4.9546
 47,-0.591399\C,0,-1.50657,3.200401,2.010296\C,0,-0.531123,4.933611,0.5
 77711\C,0,1.900421,4.312629,-2.786949\H,0,1.580577,2.242205,-2.286633\
 C,0,0.85402,5.980159,-1.372169\C,0,-2.074285,4.213053,2.773721\H,0,-1.
 656142,2.160972,2.267953\C,0,-1.109544,5.931172,1.361148\C,0,1.644333,
 5.65111,-2.464805\H,0,2.515444,4.079115,-3.646445\H,0,0.649356,7.01502
 9,-1.129233\C,0,-1.882349,5.562839,2.453811\H,0,-2.676382,3.948935,3.6
 33482\H,0,-0.954261,6.975106,1.120411\H,0,2.065607,6.436092,-3.079296\
 H,0,-2.33952,6.325793,3.070375\Cl,0,0.061025,-3.152334,0.030004\\Versi
 on=ES64L-G09RevE.01\State=1-A\HF=-2426.1097431\RMSD=9.962e-09\PG=C01 [
 X(C44H24Cl1N5)]\\@


 HE WHO LOVES TO READ, AND KNOWS HOW TO REFLECT,
 HAS LAID BY A PERPETUAL FEAST FOR HIS OLD AGE.
 -- UNCLE ESEK, "SCRIBNER'S MONTHLY", SEPT. 1880
 Job cpu time:      13 days 11 hours 14 minutes  2.6 seconds.
 File lengths (MBytes):  RWF=  19661 Int=      0 D2E=      0 Chk=   4019 Scr=      1
 Normal termination of Gaussian 09 at Sat Jul  2 12:40:23 2022.
