 Entering Gaussian System, Link 0=g09
 Input=/home/png4rjv/fotokatalizis/benchmark/OPCs/CA_50_states/CA_3_M062X_def2TZVP.gjf
 Output=/home/png4rjv/fotokatalizis/benchmark/OPCs/CA_50_states/CA_3_M062X_def2TZVP.log
 Initial command:
 /opt/nce/packages/global/g09/l1.exe "/home/png4rjv/fotokatalizis/benchmark/OPCs/CA_50_states/CA_3_M062X_def2TZVP/Gau-12369.inp" -scrdir="/home/png4rjv/fotokatalizis/benchmark/OPCs/CA_50_states/CA_3_M062X_def2TZVP/"
 Default is to use a total of  12 processors:
                               12 via shared-memory
                                1 via Linda
 Entering Link 1 = /opt/nce/packages/global/g09/l1.exe PID=     12370.
  
 Copyright (c) 1988,1990,1992,1993,1995,1998,2003,2009,2015,
            Gaussian, Inc.  All Rights Reserved.
  
 This is part of the Gaussian(R) 09 program.  It is based on
 the Gaussian(R) 03 system (copyright 2003, Gaussian, Inc.),
 the Gaussian(R) 98 system (copyright 1998, Gaussian, Inc.),
 the Gaussian(R) 94 system (copyright 1995, Gaussian, Inc.),
 the Gaussian 92(TM) system (copyright 1992, Gaussian, Inc.),
 the Gaussian 90(TM) system (copyright 1990, Gaussian, Inc.),
 the Gaussian 88(TM) system (copyright 1988, Gaussian, Inc.),
 the Gaussian 86(TM) system (copyright 1986, Carnegie Mellon
 University), and the Gaussian 82(TM) system (copyright 1983,
 Carnegie Mellon University). Gaussian is a federally registered
 trademark of Gaussian, Inc.
  
 This software contains proprietary and confidential information,
 including trade secrets, belonging to Gaussian, Inc.
  
 This software is provided under written license and may be
 used, copied, transmitted, or stored only in accord with that
 written license.
  
 The following legend is applicable only to US Government
 contracts under FAR:
  
                    RESTRICTED RIGHTS LEGEND
  
 Use, reproduction and disclosure by the US Government is
 subject to restrictions as set forth in subparagraphs (a)
 and (c) of the Commercial Computer Software - Restricted
 Rights clause in FAR 52.227-19.
  
 Gaussian, Inc.
 340 Quinnipiac St., Bldg. 40, Wallingford CT 06492
  
  
 ---------------------------------------------------------------
 Warning -- This program may not be used in any manner that
 competes with the business of Gaussian, Inc. or will provide
 assistance to any competitor of Gaussian, Inc.  The licensee
 of this program is prohibited from giving any competitor of
 Gaussian, Inc. access to this program.  By using this program,
 the user acknowledges that Gaussian, Inc. is engaged in the
 business of creating and licensing software in the field of
 computational chemistry and represents and warrants to the
 licensee that it is not a competitor of Gaussian, Inc. and that
 it will not use this program in any manner prohibited above.
 ---------------------------------------------------------------
  

 Cite this work as:
 Gaussian 09, Revision E.01,
 M. J. Frisch, G. W. Trucks, H. B. Schlegel, G. E. Scuseria, 
 M. A. Robb, J. R. Cheeseman, G. Scalmani, V. Barone, B. Mennucci, 
 G. A. Petersson, H. Nakatsuji, M. Caricato, X. Li, H. P. Hratchian, 
 A. F. Izmaylov, J. Bloino, G. Zheng, J. L. Sonnenberg, M. Hada, 
 M. Ehara, K. Toyota, R. Fukuda, J. Hasegawa, M. Ishida, T. Nakajima, 
 Y. Honda, O. Kitao, H. Nakai, T. Vreven, J. A. Montgomery, Jr., 
 J. E. Peralta, F. Ogliaro, M. Bearpark, J. J. Heyd, E. Brothers, 
 K. N. Kudin, V. N. Staroverov, T. Keith, R. Kobayashi, J. Normand, 
 K. Raghavachari, A. Rendell, J. C. Burant, S. S. Iyengar, J. Tomasi, 
 M. Cossi, N. Rega, J. M. Millam, M. Klene, J. E. Knox, J. B. Cross, 
 V. Bakken, C. Adamo, J. Jaramillo, R. Gomperts, R. E. Stratmann, 
 O. Yazyev, A. J. Austin, R. Cammi, C. Pomelli, J. W. Ochterski, 
 R. L. Martin, K. Morokuma, V. G. Zakrzewski, G. A. Voth, 
 P. Salvador, J. J. Dannenberg, S. Dapprich, A. D. Daniels, 
 O. Farkas, J. B. Foresman, J. V. Ortiz, J. Cioslowski, 
 and D. J. Fox, Gaussian, Inc., Wallingford CT, 2013.
 
 ******************************************
 Gaussian 09:  ES64L-G09RevE.01 30-Nov-2015
                 1-Jul-2022 
 ******************************************
 %chk=cp.chk
 Default route:  MaxDisk=500GB
 ----------------------------------------------------------------------
 #p m062x/def2TZVP td=(NStates=50) int=ultrafine scrf=(SMD,solvent=Acet
 onitrile)
 ----------------------------------------------------------------------
 1/38=1/1;
 2/12=2,17=6,18=5,40=1/2;
 3/5=44,7=101,11=9,16=1,25=1,30=1,70=32201,72=2,74=-55,75=-5/1,2,8,3;
 4//1;
 5/5=2,38=5,53=2/2;
 8/6=1,10=1,108=50/1;
 9/41=50,42=1,70=2/14;
 6/7=2,8=2,9=2,10=2/1;
 99/5=1,9=1/99;
 Leave Link    1 at Fri Jul  1 17:58:23 2022, MaxMem=           0 cpu:         2.0
 (Enter /opt/nce/packages/global/g09/l101.exe)
 -----
 Title
 -----
 Symbolic Z-matrix:
 Charge =  0 Multiplicity = 1
 C                    -1.19987  -0.73991  -0.17612 
 C                    -0.003    -1.43882  -0.01099 
 C                     1.19792  -0.74794   0.16029 
 C                     1.18605   0.65214   0.18303 
 C                     0.00505   1.37267  -0.00309 
 C                    -1.17994   0.65991  -0.19286 
 C                     2.40043   1.34859   0.48514 
 C                    -2.39132   1.36493  -0.48648 
 N                     3.37139   1.90395   0.73768 
 N                    -3.35971   1.92815  -0.7313 
 N                    -2.41481  -1.40932  -0.35506 
 C                    -2.7779   -2.17308  -1.46541 
 C                    -3.49576  -1.3576    0.52735 
 C                    -2.04419  -2.45957  -2.60978 
 C                    -4.09648  -2.6264   -1.28635 
 C                    -3.58974  -0.71861   1.75722 
 C                    -4.55421  -2.10714  -0.01351 
 C                    -2.6594   -3.23737  -3.5778 
 H                    -1.03601  -2.08807  -2.74571 
 C                    -4.69308  -3.40669  -2.27429 
 C                    -4.78863  -0.83856   2.44224 
 H                    -2.76207  -0.15202   2.16675 
 C                    -5.74772  -2.21628   0.6965 
 C                    -3.96672  -3.71057  -3.41347 
 H                    -2.11525  -3.48112  -4.48139 
 H                    -5.70853  -3.763    -2.15199 
 C                    -5.85716  -1.57714   1.92044 
 H                    -4.89764  -0.35063   3.40248 
 H                    -6.57325  -2.79139   0.29542 
 H                    -4.41409  -4.31578  -4.19123 
 H                    -6.7782   -1.6493    2.48414 
 N                     2.40679  -1.42642   0.34581 
 C                     3.49773  -1.38149  -0.52488 
 C                     2.75192  -2.19571   1.45827 
 C                     3.61203  -0.73984  -1.75164 
 C                     4.54351  -2.14223   0.0254 
 C                     2.00372  -2.47785   2.59423 
 C                     4.06806  -2.66037   1.29202 
 C                     4.81718  -0.86995  -2.42378 
 H                     2.79525  -0.16357  -2.16906 
 C                     5.74354  -2.26147  -0.67166 
 C                     2.60149  -3.2636    3.56667 
 H                     0.9977   -2.09725   2.72049 
 C                     4.64718  -3.44827   2.28419 
 C                     5.87263  -1.62062  -1.89268 
 H                     4.94156  -0.38039  -3.38132 
 H                     6.55862  -2.84603  -0.26296 
 C                     3.90615  -3.74822   3.41493 
 H                     2.04567  -3.50477   4.46386 
 H                     5.66068  -3.81328   2.17187 
 H                     6.79891  -1.70052  -2.44664 
 H                     4.34007  -4.35923   4.19574 
 N                     0.00907   2.76889   0.00007 
 C                    -0.70122   3.58782   0.88506 
 C                     0.72578   3.58216  -0.88433 
 C                    -1.52087   3.23049   1.94887 
 C                    -0.43568   4.92986   0.56475 
 C                     1.54108   3.21625  -1.9481 
 C                     0.4726    4.92618  -0.56366 
 C                    -2.09187   4.25823   2.68254 
 H                    -1.70809   2.1949    2.20491 
 C                    -1.01946   5.94539   1.31844 
 C                     2.12208   4.2381   -2.68205 
 H                     1.71613   2.17794  -2.20198 
 C                     1.06645   5.93581  -1.31731 
 C                    -1.84934   5.60111   2.37202 
 H                    -2.73821   4.01277   3.51557 
 H                    -0.82212   6.98396   1.08302 
 C                     1.89288   5.58332  -2.3709 
 H                     2.76579   3.98656  -3.51526 
 H                     0.87964   6.97637  -1.08208 
 H                    -2.3132    6.37649   2.96776 
 H                     2.36449   6.3542   -2.96636 
 Cl                   -0.00932  -3.15115  -0.0169 
 
 NAtoms=     74 NQM=       74 NQMF=       0 NMMI=      0 NMMIF=      0
                NMic=       0 NMicF=      0.
                    Isotopes and Nuclear Properties:
 (Nuclear quadrupole moments (NQMom) in fm**2, nuclear magnetic moments (NMagM)
  in nuclear magnetons)

  Atom         1           2           3           4           5           6           7           8           9          10
 IAtWgt=          12          12          12          12          12          12          12          12          14          14
 AtmWgt=  12.0000000  12.0000000  12.0000000  12.0000000  12.0000000  12.0000000  12.0000000  12.0000000  14.0030740  14.0030740
 NucSpn=           0           0           0           0           0           0           0           0           2           2
 AtZEff=   0.0000000   0.0000000   0.0000000   0.0000000   0.0000000   0.0000000   0.0000000   0.0000000   0.0000000   0.0000000
 NQMom=    0.0000000   0.0000000   0.0000000   0.0000000   0.0000000   0.0000000   0.0000000   0.0000000   2.0440000   2.0440000
 NMagM=    0.0000000   0.0000000   0.0000000   0.0000000   0.0000000   0.0000000   0.0000000   0.0000000   0.4037610   0.4037610
 AtZNuc=   6.0000000   6.0000000   6.0000000   6.0000000   6.0000000   6.0000000   6.0000000   6.0000000   7.0000000   7.0000000

  Atom        11          12          13          14          15          16          17          18          19          20
 IAtWgt=          14          12          12          12          12          12          12          12           1          12
 AtmWgt=  14.0030740  12.0000000  12.0000000  12.0000000  12.0000000  12.0000000  12.0000000  12.0000000   1.0078250  12.0000000
 NucSpn=           2           0           0           0           0           0           0           0           1           0
 AtZEff=   0.0000000   0.0000000   0.0000000   0.0000000   0.0000000   0.0000000   0.0000000   0.0000000   0.0000000   0.0000000
 NQMom=    2.0440000   0.0000000   0.0000000   0.0000000   0.0000000   0.0000000   0.0000000   0.0000000   0.0000000   0.0000000
 NMagM=    0.4037610   0.0000000   0.0000000   0.0000000   0.0000000   0.0000000   0.0000000   0.0000000   2.7928460   0.0000000
 AtZNuc=   7.0000000   6.0000000   6.0000000   6.0000000   6.0000000   6.0000000   6.0000000   6.0000000   1.0000000   6.0000000

  Atom        21          22          23          24          25          26          27          28          29          30
 IAtWgt=          12           1          12          12           1           1          12           1           1           1
 AtmWgt=  12.0000000   1.0078250  12.0000000  12.0000000   1.0078250   1.0078250  12.0000000   1.0078250   1.0078250   1.0078250
 NucSpn=           0           1           0           0           1           1           0           1           1           1
 AtZEff=   0.0000000   0.0000000   0.0000000   0.0000000   0.0000000   0.0000000   0.0000000   0.0000000   0.0000000   0.0000000
 NQMom=    0.0000000   0.0000000   0.0000000   0.0000000   0.0000000   0.0000000   0.0000000   0.0000000   0.0000000   0.0000000
 NMagM=    0.0000000   2.7928460   0.0000000   0.0000000   2.7928460   2.7928460   0.0000000   2.7928460   2.7928460   2.7928460
 AtZNuc=   6.0000000   1.0000000   6.0000000   6.0000000   1.0000000   1.0000000   6.0000000   1.0000000   1.0000000   1.0000000

  Atom        31          32          33          34          35          36          37          38          39          40
 IAtWgt=           1          14          12          12          12          12          12          12          12           1
 AtmWgt=   1.0078250  14.0030740  12.0000000  12.0000000  12.0000000  12.0000000  12.0000000  12.0000000  12.0000000   1.0078250
 NucSpn=           1           2           0           0           0           0           0           0           0           1
 AtZEff=   0.0000000   0.0000000   0.0000000   0.0000000   0.0000000   0.0000000   0.0000000   0.0000000   0.0000000   0.0000000
 NQMom=    0.0000000   2.0440000   0.0000000   0.0000000   0.0000000   0.0000000   0.0000000   0.0000000   0.0000000   0.0000000
 NMagM=    2.7928460   0.4037610   0.0000000   0.0000000   0.0000000   0.0000000   0.0000000   0.0000000   0.0000000   2.7928460
 AtZNuc=   1.0000000   7.0000000   6.0000000   6.0000000   6.0000000   6.0000000   6.0000000   6.0000000   6.0000000   1.0000000

  Atom        41          42          43          44          45          46          47          48          49          50
 IAtWgt=          12          12           1          12          12           1           1          12           1           1
 AtmWgt=  12.0000000  12.0000000   1.0078250  12.0000000  12.0000000   1.0078250   1.0078250  12.0000000   1.0078250   1.0078250
 NucSpn=           0           0           1           0           0           1           1           0           1           1
 AtZEff=   0.0000000   0.0000000   0.0000000   0.0000000   0.0000000   0.0000000   0.0000000   0.0000000   0.0000000   0.0000000
 NQMom=    0.0000000   0.0000000   0.0000000   0.0000000   0.0000000   0.0000000   0.0000000   0.0000000   0.0000000   0.0000000
 NMagM=    0.0000000   0.0000000   2.7928460   0.0000000   0.0000000   2.7928460   2.7928460   0.0000000   2.7928460   2.7928460
 AtZNuc=   6.0000000   6.0000000   1.0000000   6.0000000   6.0000000   1.0000000   1.0000000   6.0000000   1.0000000   1.0000000

  Atom        51          52          53          54          55          56          57          58          59          60
 IAtWgt=           1           1          14          12          12          12          12          12          12          12
 AtmWgt=   1.0078250   1.0078250  14.0030740  12.0000000  12.0000000  12.0000000  12.0000000  12.0000000  12.0000000  12.0000000
 NucSpn=           1           1           2           0           0           0           0           0           0           0
 AtZEff=   0.0000000   0.0000000   0.0000000   0.0000000   0.0000000   0.0000000   0.0000000   0.0000000   0.0000000   0.0000000
 NQMom=    0.0000000   0.0000000   2.0440000   0.0000000   0.0000000   0.0000000   0.0000000   0.0000000   0.0000000   0.0000000
 NMagM=    2.7928460   2.7928460   0.4037610   0.0000000   0.0000000   0.0000000   0.0000000   0.0000000   0.0000000   0.0000000
 AtZNuc=   1.0000000   1.0000000   7.0000000   6.0000000   6.0000000   6.0000000   6.0000000   6.0000000   6.0000000   6.0000000

  Atom        61          62          63          64          65          66          67          68          69          70
 IAtWgt=           1          12          12           1          12          12           1           1          12           1
 AtmWgt=   1.0078250  12.0000000  12.0000000   1.0078250  12.0000000  12.0000000   1.0078250   1.0078250  12.0000000   1.0078250
 NucSpn=           1           0           0           1           0           0           1           1           0           1
 AtZEff=   0.0000000   0.0000000   0.0000000   0.0000000   0.0000000   0.0000000   0.0000000   0.0000000   0.0000000   0.0000000
 NQMom=    0.0000000   0.0000000   0.0000000   0.0000000   0.0000000   0.0000000   0.0000000   0.0000000   0.0000000   0.0000000
 NMagM=    2.7928460   0.0000000   0.0000000   2.7928460   0.0000000   0.0000000   2.7928460   2.7928460   0.0000000   2.7928460
 AtZNuc=   1.0000000   6.0000000   6.0000000   1.0000000   6.0000000   6.0000000   1.0000000   1.0000000   6.0000000   1.0000000

  Atom        71          72          73          74
 IAtWgt=           1           1           1          35
 AtmWgt=   1.0078250   1.0078250   1.0078250  34.9688527
 NucSpn=           1           1           1           3
 AtZEff=   0.0000000   0.0000000   0.0000000   0.0000000
 NQMom=    0.0000000   0.0000000   0.0000000  -8.1650000
 NMagM=    2.7928460   2.7928460   2.7928460   0.8218740
 AtZNuc=   1.0000000   1.0000000   1.0000000  17.0000000
 Leave Link  101 at Fri Jul  1 17:58:23 2022, MaxMem=  5242880000 cpu:         1.9
 (Enter /opt/nce/packages/global/g09/l202.exe)
 Stoichiometry    C44H24ClN5
 Framework group  C1[X(C44H24ClN5)]
 Deg. of freedom   216
 Full point group                 C1      NOp   1
 Largest Abelian subgroup         C1      NOp   1
 Largest concise Abelian subgroup C1      NOp   1
                         Standard orientation:                         
 ---------------------------------------------------------------------
 Center     Atomic      Atomic             Coordinates (Angstroms)
 Number     Number       Type             X           Y           Z
 ---------------------------------------------------------------------
      1          6           0       -1.199867   -0.739910   -0.176123
      2          6           0       -0.002995   -1.438824   -0.010985
      3          6           0        1.197916   -0.747943    0.160290
      4          6           0        1.186053    0.652143    0.183034
      5          6           0        0.005047    1.372668   -0.003089
      6          6           0       -1.179941    0.659908   -0.192864
      7          6           0        2.400432    1.348589    0.485135
      8          6           0       -2.391319    1.364932   -0.486483
      9          7           0        3.371388    1.903949    0.737682
     10          7           0       -3.359706    1.928148   -0.731303
     11          7           0       -2.414814   -1.409316   -0.355064
     12          6           0       -2.777905   -2.173083   -1.465405
     13          6           0       -3.495759   -1.357595    0.527345
     14          6           0       -2.044193   -2.459570   -2.609779
     15          6           0       -4.096479   -2.626396   -1.286346
     16          6           0       -3.589744   -0.718604    1.757223
     17          6           0       -4.554210   -2.107139   -0.013506
     18          6           0       -2.659396   -3.237366   -3.577796
     19          1           0       -1.036007   -2.088071   -2.745708
     20          6           0       -4.693083   -3.406690   -2.274288
     21          6           0       -4.788633   -0.838561    2.442237
     22          1           0       -2.762072   -0.152015    2.166752
     23          6           0       -5.747717   -2.216277    0.696498
     24          6           0       -3.966725   -3.710573   -3.413473
     25          1           0       -2.115249   -3.481119   -4.481394
     26          1           0       -5.708528   -3.762998   -2.151995
     27          6           0       -5.857155   -1.577140    1.920439
     28          1           0       -4.897642   -0.350627    3.402478
     29          1           0       -6.573250   -2.791385    0.295422
     30          1           0       -4.414090   -4.315778   -4.191226
     31          1           0       -6.778202   -1.649299    2.484139
     32          7           0        2.406786   -1.426421    0.345806
     33          6           0        3.497727   -1.381490   -0.524880
     34          6           0        2.751919   -2.195711    1.458266
     35          6           0        3.612030   -0.739845   -1.751643
     36          6           0        4.543510   -2.142232    0.025403
     37          6           0        2.003715   -2.477855    2.594227
     38          6           0        4.068054   -2.660368    1.292021
     39          6           0        4.817177   -0.869947   -2.423783
     40          1           0        2.795253   -0.163568   -2.169061
     41          6           0        5.743536   -2.261477   -0.671657
     42          6           0        2.601487   -3.263597    3.566674
     43          1           0        0.997703   -2.097249    2.720488
     44          6           0        4.647178   -3.448269    2.284195
     45          6           0        5.872630   -1.620623   -1.892684
     46          1           0        4.941557   -0.380395   -3.381315
     47          1           0        6.558619   -2.846027   -0.262958
     48          6           0        3.906150   -3.748224    3.414928
     49          1           0        2.045668   -3.504769    4.463859
     50          1           0        5.660682   -3.813282    2.171866
     51          1           0        6.798914   -1.700518   -2.446642
     52          1           0        4.340073   -4.359233    4.195737
     53          7           0        0.009071    2.768894    0.000071
     54          6           0       -0.701218    3.587822    0.885063
     55          6           0        0.725780    3.582161   -0.884333
     56          6           0       -1.520864    3.230489    1.948871
     57          6           0       -0.435676    4.929863    0.564747
     58          6           0        1.541081    3.216244   -1.948096
     59          6           0        0.472605    4.926180   -0.563664
     60          6           0       -2.091866    4.258236    2.682540
     61          1           0       -1.708088    2.194898    2.204913
     62          6           0       -1.019460    5.945388    1.318443
     63          6           0        2.122077    4.238102   -2.682046
     64          1           0        1.716131    2.177941   -2.201976
     65          6           0        1.066456    5.935812   -1.317309
     66          6           0       -1.849334    5.601112    2.372022
     67          1           0       -2.738208    4.012767    3.515570
     68          1           0       -0.822115    6.983955    1.083024
     69          6           0        1.892883    5.583323   -2.370897
     70          1           0        2.765790    3.986561   -3.515255
     71          1           0        0.879639    6.976366   -1.082076
     72          1           0       -2.313195    6.376486    2.967763
     73          1           0        2.364496    6.354200   -2.966358
     74         17           0       -0.009317   -3.151152   -0.016896
 ---------------------------------------------------------------------
 Rotational constants (GHZ):      0.0640914      0.0604341      0.0411142
 Leave Link  202 at Fri Jul  1 17:58:23 2022, MaxMem=  5242880000 cpu:         0.1
 (Enter /opt/nce/packages/global/g09/l301.exe)
 Standard basis: def2TZVP (5D, 7F)
 Ernie: Thresh=  0.10000D-02 Tol=  0.10000D-05 Strict=F.
 There are  1950 symmetry adapted cartesian basis functions of A   symmetry.
 There are  1700 symmetry adapted basis functions of A   symmetry.
  1700 basis functions,  2760 primitive gaussians,  1950 cartesian basis functions
   170 alpha electrons      170 beta electrons
       nuclear repulsion energy      6278.3918635573 Hartrees.
 IExCor= 4336 DFT=T Ex+Corr=M062X ExCW=0 ScaHFX=  0.540000
 ScaDFX=  1.000000  1.000000  1.000000  1.000000 ScalE2=  1.000000  1.000000
 IRadAn=      5 IRanWt=     -1 IRanGd=            0 ICorTp=0 IEmpDi=  4
 NAtoms=   74 NActive=   74 NUniq=   74 SFac= 1.00D+00 NAtFMM=   60 NAOKFM=T Big=T
 Integral buffers will be    131072 words long.
 Regular integral format.
 Two-electron integral symmetry is turned on.
 ------------------------------------------------------------------------------
 Polarizable Continuum Model (PCM)
 =================================
 Model                : PCM (using non-symmetric T matrix).
 Atomic radii         : SMD-Coulomb.
 Polarization charges : Total charges.
 Charge compensation  : None.
 Solution method      : On-the-fly selection.
 Cavity type          : VdW (van der Waals Surface) (Alpha=1.000).
 Cavity algorithm     : GePol (No added spheres)
                        Default sphere list used, NSphG=   74.
                        Lebedev-Laikov grids with approx.  5.0 points / Ang**2.
                        Smoothing algorithm: York/Karplus (Gamma=1.0000).
                        Polarization charges: spherical gaussians, with
                                              point-specific exponents (IZeta= 3).
                        Self-potential: point-specific (ISelfS= 7).
                        Self-field    : sphere-specific E.n sum rule (ISelfD= 2).
 Solvent              : Acetonitrile, Eps=  35.688000 Eps(inf)=   1.806874
 ------------------------------------------------------------------------------
 GePol: Number of generator spheres                  =      74
 GePol: Total number of spheres                      =      74
 GePol: Number of exposed spheres                    =      74 (100.00%)
 GePol: Number of points                             =    5859
 GePol: Average weight of points                     =       0.11
 GePol: Minimum weight of points                     =   0.30D-11
 GePol: Maximum weight of points                     =    0.18138
 GePol: Number of points with low weight             =     338
 GePol: Fraction of low-weight points (<1% of avg)   =       5.77%
 GePol: Cavity surface area                          =    630.797 Ang**2
 GePol: Cavity volume                                =    654.996 Ang**3
 ------------------------------------------------------------------------------
 Atomic radii for non-electrostatic terms: SMD-CDS.
 ------------------------------------------------------------------------------
 PCM non-electrostatic energy =        -0.0135786937 Hartrees.
 Nuclear repulsion after PCM non-electrostatic terms =     6278.3782848636 Hartrees.
 Leave Link  301 at Fri Jul  1 17:58:24 2022, MaxMem=  5242880000 cpu:         3.0
 (Enter /opt/nce/packages/global/g09/l302.exe)
 NPDir=0 NMtPBC=     1 NCelOv=     1 NCel=       1 NClECP=     1 NCelD=      1
         NCelK=      1 NCelE2=     1 NClLst=     1 CellRange=     0.0.
 One-electron integrals computed using PRISM.
   1 Symmetry operations used in ECPInt.
 ECPInt:  NShTT=  210276 NPrTT=  664162 LenC2=  155661 LenP2D=  318508.
 LDataN:  DoStor=T MaxTD1= 6 Len=  172
 NBasis=  1700 RedAO= T EigKep=  1.50D-06  NBF=  1700
 NBsUse=  1700 1.00D-06 EigRej= -1.00D+00 NBFU=  1700
 Precomputing XC quadrature grid using
 IXCGrd= 4 IRadAn=           5 IRanWt=          -1 IRanGd=           0 AccXCQ= 0.00D+00.
 Generated NRdTot=       0 NPtTot=           0 NUsed=           0 NTot=          32
 NSgBfM=  1852  1852  1855  1857  1859 MxSgAt=    74 MxSgA2=    74.
 Leave Link  302 at Fri Jul  1 17:58:30 2022, MaxMem=  5242880000 cpu:        81.1
 (Enter /opt/nce/packages/global/g09/l308.exe)
 Leave Link  308 at Fri Jul  1 17:58:32 2022, MaxMem=  5242880000 cpu:        12.1
 (Enter /opt/nce/packages/global/g09/l303.exe)
 DipDrv:  MaxL=1.
 Leave Link  303 at Fri Jul  1 17:58:32 2022, MaxMem=  5242880000 cpu:         6.6
 (Enter /opt/nce/packages/global/g09/l401.exe)
 ExpMin= 9.52D-02 ExpMax= 6.95D+04 ExpMxC= 2.37D+03 IAcc=3 IRadAn=         5 AccDes= 0.00D+00
 Harris functional with IExCor= 1009 and IRadAn=       5 diagonalized for initial guess.
 HarFok:  IExCor= 1009 AccDes= 0.00D+00 IRadAn=         5 IDoV= 1 UseB2=F ITyADJ=14
 ICtDFT=  3500011 ScaDFX=  1.000000  1.000000  1.000000  1.000000
 FoFCou: FMM=F IPFlag=           0 FMFlag=      100000 FMFlg1=        2001
         NFxFlg=           0 DoJE=T BraDBF=F KetDBF=T FulRan=T
         wScrn=  0.000000 ICntrl=     500 IOpCl=  0 I1Cent=   200000004 NGrid=           0
         NMat0=    1 NMatS0=      1 NMatT0=    0 NMatD0=    1 NMtDS0=    0 NMtDT0=    0
 Petite list used in FoFCou.
 Harris En= -2423.84100196667    
 JPrj=0 DoOrth=F DoCkMO=F.
 Leave Link  401 at Fri Jul  1 17:58:56 2022, MaxMem=  5242880000 cpu:       280.9
 (Enter /opt/nce/packages/global/g09/l502.exe)
 Closed shell SCF:
 Using DIIS extrapolation, IDIIS=  1040.
 Integral symmetry usage will be decided dynamically.
 IVT=    11463646 IEndB=    11463646 NGot=  5242880000 MDV=  5235237445
 LenX=  5235237445 LenY=  5231432995
 Requested convergence on RMS density matrix=1.00D-08 within 128 cycles.
 Requested convergence on MAX density matrix=1.00D-06.
 Requested convergence on             energy=1.00D-06.
 No special actions if energy rises.
 Fock matrices will be formed incrementally for  20 cycles.

 Cycle   1  Pass 1  IDiag  1:
 FoFJK:  IHMeth= 1 ICntrl=       0 DoSepK=F KAlg= 0 I1Cent=   0 FoldK=F
 IRaf= 680000000 NMat=   1 IRICut=       1 DoRegI=T DoRafI=F ISym2E= 0.
 FoFCou: FMM=T IPFlag=           0 FMFlag=      100000 FMFlg1=        2001
         NFxFlg=           0 DoJE=F BraDBF=F KetDBF=F FulRan=T
         wScrn=  0.000000 ICntrl=       0 IOpCl=  0 I1Cent=           0 NGrid=           0
         NMat0=    1 NMatS0=      1 NMatT0=    0 NMatD0=    1 NMtDS0=    0 NMtDT0=    0
 Symmetry not used in FoFCou.
 FMM levels:  10  Number of levels for PrismC:   9
 Inv3:  Mode=1 IEnd=   102983643.
 Iteration    1 A*A^-1 deviation from unit magnitude is 1.62D-14 for   5853.
 Iteration    1 A*A^-1 deviation from orthogonality  is 4.30D-15 for   5853   5751.
 Iteration    1 A^-1*A deviation from unit magnitude is 1.60D-14 for   5853.
 Iteration    1 A^-1*A deviation from orthogonality  is 3.08D-11 for   5851   5593.
 E= -2424.01588351074    
 DIIS: error= 2.37D-02 at cycle   1 NSaved=   1.
 NSaved= 1 IEnMin= 1 EnMin= -2424.01588351074     IErMin= 1 ErrMin= 2.37D-02
 ErrMax= 2.37D-02  0.00D+00 EMaxC= 1.00D-01 BMatC= 1.35D+00 BMatP= 1.35D+00
 IDIUse=3 WtCom= 7.63D-01 WtEn= 2.37D-01
 Coeff-Com:  0.100D+01
 Coeff-En:   0.100D+01
 Coeff:      0.100D+01
 Gap=     0.461 Goal=   None    Shift=    0.000
 GapD=    0.461 DampG=2.000 DampE=0.500 DampFc=1.0000 IDamp=-1.
 RMSDP=2.79D-03 MaxDP=3.11D-01              OVMax= 2.25D-01

 Cycle   2  Pass 1  IDiag  1:
 RMSU=  2.77D-03    CP:  9.34D-01
 E= -2424.34892340784     Delta-E=       -0.333039897108 Rises=F Damp=F
 DIIS: error= 1.42D-02 at cycle   2 NSaved=   2.
 NSaved= 2 IEnMin= 2 EnMin= -2424.34892340784     IErMin= 2 ErrMin= 1.42D-02
 ErrMax= 1.42D-02  0.00D+00 EMaxC= 1.00D-01 BMatC= 8.02D-01 BMatP= 1.35D+00
 IDIUse=3 WtCom= 8.58D-01 WtEn= 1.42D-01
 Coeff-Com:  0.426D+00 0.574D+00
 Coeff-En:   0.392D+00 0.608D+00
 Coeff:      0.421D+00 0.579D+00
 Gap=     0.230 Goal=   None    Shift=    0.000
 RMSDP=1.92D-03 MaxDP=3.74D-01 DE=-3.33D-01 OVMax= 1.46D-01

 Cycle   3  Pass 1  IDiag  1:
 RMSU=  1.13D-03    CP:  8.78D-01  4.50D-01
 E= -2425.02211526049     Delta-E=       -0.673191852646 Rises=F Damp=F
 DIIS: error= 7.17D-03 at cycle   3 NSaved=   3.
 NSaved= 3 IEnMin= 3 EnMin= -2425.02211526049     IErMin= 3 ErrMin= 7.17D-03
 ErrMax= 7.17D-03  0.00D+00 EMaxC= 1.00D-01 BMatC= 1.08D-01 BMatP= 8.02D-01
 IDIUse=3 WtCom= 9.28D-01 WtEn= 7.17D-02
 Coeff-Com:  0.127D+00 0.296D+00 0.577D+00
 Coeff-En:   0.000D+00 0.190D-01 0.981D+00
 Coeff:      0.118D+00 0.276D+00 0.606D+00
 Gap=     0.202 Goal=   None    Shift=    0.000
 RMSDP=3.91D-04 MaxDP=7.91D-02 DE=-6.73D-01 OVMax= 6.08D-02

 Cycle   4  Pass 1  IDiag  1:
 RMSU=  3.02D-04    CP:  8.92D-01  5.24D-01  8.94D-01
 E= -2425.10574564823     Delta-E=       -0.083630387742 Rises=F Damp=F
 DIIS: error= 3.37D-03 at cycle   4 NSaved=   4.
 NSaved= 4 IEnMin= 4 EnMin= -2425.10574564823     IErMin= 4 ErrMin= 3.37D-03
 ErrMax= 3.37D-03  0.00D+00 EMaxC= 1.00D-01 BMatC= 1.63D-02 BMatP= 1.08D-01
 IDIUse=3 WtCom= 9.66D-01 WtEn= 3.37D-02
 Coeff-Com:  0.108D-01 0.689D-01 0.327D+00 0.593D+00
 Coeff-En:   0.000D+00 0.000D+00 0.106D+00 0.894D+00
 Coeff:      0.105D-01 0.666D-01 0.319D+00 0.604D+00
 Gap=     0.196 Goal=   None    Shift=    0.000
 RMSDP=1.46D-04 MaxDP=1.97D-02 DE=-8.36D-02 OVMax= 2.24D-02

 Cycle   5  Pass 1  IDiag  1:
 RMSU=  1.07D-04    CP:  8.91D-01  5.06D-01  9.47D-01  7.91D-01
 E= -2425.11921162909     Delta-E=       -0.013465980857 Rises=F Damp=F
 DIIS: error= 7.26D-04 at cycle   5 NSaved=   5.
 NSaved= 5 IEnMin= 5 EnMin= -2425.11921162909     IErMin= 5 ErrMin= 7.26D-04
 ErrMax= 7.26D-04  0.00D+00 EMaxC= 1.00D-01 BMatC= 9.77D-04 BMatP= 1.63D-02
 IDIUse=3 WtCom= 9.93D-01 WtEn= 7.26D-03
 Coeff-Com: -0.219D-02 0.178D-01 0.134D+00 0.316D+00 0.534D+00
 Coeff-En:   0.000D+00 0.000D+00 0.000D+00 0.000D+00 0.100D+01
 Coeff:     -0.217D-02 0.176D-01 0.133D+00 0.314D+00 0.537D+00
 Gap=     0.197 Goal=   None    Shift=    0.000
 RMSDP=4.64D-05 MaxDP=9.52D-03 DE=-1.35D-02 OVMax= 5.19D-03

 Cycle   6  Pass 1  IDiag  1:
 RMSU=  4.20D-05    CP:  8.93D-01  5.08D-01  9.47D-01  8.35D-01  9.74D-01
 E= -2425.11998271065     Delta-E=       -0.000771081564 Rises=F Damp=F
 DIIS: error= 1.51D-04 at cycle   6 NSaved=   6.
 NSaved= 6 IEnMin= 6 EnMin= -2425.11998271065     IErMin= 6 ErrMin= 1.51D-04
 ErrMax= 1.51D-04  0.00D+00 EMaxC= 1.00D-01 BMatC= 7.00D-05 BMatP= 9.77D-04
 IDIUse=3 WtCom= 9.98D-01 WtEn= 1.51D-03
 Coeff-Com: -0.193D-02-0.771D-03 0.183D-01 0.624D-01 0.239D+00 0.683D+00
 Coeff-En:   0.000D+00 0.000D+00 0.000D+00 0.000D+00 0.000D+00 0.100D+01
 Coeff:     -0.192D-02-0.770D-03 0.183D-01 0.623D-01 0.239D+00 0.683D+00
 Gap=     0.198 Goal=   None    Shift=    0.000
 RMSDP=1.70D-05 MaxDP=3.10D-03 DE=-7.71D-04 OVMax= 2.04D-03

 Cycle   7  Pass 1  IDiag  1:
 RMSU=  1.14D-05    CP:  8.94D-01  5.06D-01  9.51D-01  8.55D-01  1.04D+00
                    CP:  1.08D+00
 E= -2425.12005268288     Delta-E=       -0.000069972231 Rises=F Damp=F
 DIIS: error= 3.38D-05 at cycle   7 NSaved=   7.
 NSaved= 7 IEnMin= 7 EnMin= -2425.12005268288     IErMin= 7 ErrMin= 3.38D-05
 ErrMax= 3.38D-05  0.00D+00 EMaxC= 1.00D-01 BMatC= 4.13D-06 BMatP= 7.00D-05
 IDIUse=1 WtCom= 1.00D+00 WtEn= 0.00D+00
 Coeff-Com: -0.292D-03-0.203D-02-0.716D-02-0.139D-01 0.222D-02 0.188D+00
 Coeff-Com:  0.833D+00
 Coeff:     -0.292D-03-0.203D-02-0.716D-02-0.139D-01 0.222D-02 0.188D+00
 Coeff:      0.833D+00
 Gap=     0.197 Goal=   None    Shift=    0.000
 RMSDP=1.10D-05 MaxDP=2.91D-03 DE=-7.00D-05 OVMax= 7.01D-04

 Cycle   8  Pass 1  IDiag  1:
 RMSU=  5.63D-06    CP:  8.95D-01  5.06D-01  9.52D-01  8.66D-01  1.09D+00
                    CP:  1.21D+00  1.22D+00
 E= -2425.12005763922     Delta-E=       -0.000004956339 Rises=F Damp=F
 DIIS: error= 1.53D-05 at cycle   8 NSaved=   8.
 NSaved= 8 IEnMin= 8 EnMin= -2425.12005763922     IErMin= 8 ErrMin= 1.53D-05
 ErrMax= 1.53D-05  0.00D+00 EMaxC= 1.00D-01 BMatC= 8.28D-07 BMatP= 4.13D-06
 IDIUse=1 WtCom= 1.00D+00 WtEn= 0.00D+00
 Coeff-Com:  0.248D-04-0.975D-03-0.493D-02-0.130D-01-0.226D-01 0.276D-01
 Coeff-Com:  0.379D+00 0.635D+00
 Coeff:      0.248D-04-0.975D-03-0.493D-02-0.130D-01-0.226D-01 0.276D-01
 Coeff:      0.379D+00 0.635D+00
 Gap=     0.197 Goal=   None    Shift=    0.000
 RMSDP=2.43D-06 MaxDP=5.33D-04 DE=-4.96D-06 OVMax= 3.90D-04

 Cycle   9  Pass 1  IDiag  1:
 RMSU=  1.19D-06    CP:  8.95D-01  5.06D-01  9.52D-01  8.67D-01  1.10D+00
                    CP:  1.24D+00  1.30D+00  1.05D+00
 E= -2425.12005860946     Delta-E=       -0.000000970236 Rises=F Damp=F
 DIIS: error= 8.14D-06 at cycle   9 NSaved=   9.
 NSaved= 9 IEnMin= 9 EnMin= -2425.12005860946     IErMin= 9 ErrMin= 8.14D-06
 ErrMax= 8.14D-06  0.00D+00 EMaxC= 1.00D-01 BMatC= 8.40D-08 BMatP= 8.28D-07
 IDIUse=1 WtCom= 1.00D+00 WtEn= 0.00D+00
 Coeff-Com:  0.505D-04-0.978D-04-0.736D-03-0.310D-02-0.961D-02-0.160D-01
 Coeff-Com:  0.123D-01 0.227D+00 0.791D+00
 Coeff:      0.505D-04-0.978D-04-0.736D-03-0.310D-02-0.961D-02-0.160D-01
 Coeff:      0.123D-01 0.227D+00 0.791D+00
 Gap=     0.198 Goal=   None    Shift=    0.000
 RMSDP=1.30D-06 MaxDP=3.38D-04 DE=-9.70D-07 OVMax= 1.29D-04

 Cycle  10  Pass 1  IDiag  1:
 RMSU=  4.70D-07    CP:  8.95D-01  5.06D-01  9.52D-01  8.68D-01  1.10D+00
                    CP:  1.26D+00  1.34D+00  1.13D+00  1.13D+00
 E= -2425.12005872254     Delta-E=       -0.000000113081 Rises=F Damp=F
 DIIS: error= 2.66D-06 at cycle  10 NSaved=  10.
 NSaved=10 IEnMin=10 EnMin= -2425.12005872254     IErMin=10 ErrMin= 2.66D-06
 ErrMax= 2.66D-06  0.00D+00 EMaxC= 1.00D-01 BMatC= 1.70D-08 BMatP= 8.40D-08
 IDIUse=1 WtCom= 1.00D+00 WtEn= 0.00D+00
 Coeff-Com:  0.212D-04 0.666D-04 0.241D-03 0.995D-04-0.210D-02-0.106D-01
 Coeff-Com: -0.397D-01 0.278D-01 0.375D+00 0.649D+00
 Coeff:      0.212D-04 0.666D-04 0.241D-03 0.995D-04-0.210D-02-0.106D-01
 Coeff:     -0.397D-01 0.278D-01 0.375D+00 0.649D+00
 Gap=     0.198 Goal=   None    Shift=    0.000
 RMSDP=3.77D-07 MaxDP=1.13D-04 DE=-1.13D-07 OVMax= 5.36D-05

 Cycle  11  Pass 1  IDiag  1:
 RMSU=  1.81D-07    CP:  8.95D-01  5.06D-01  9.52D-01  8.68D-01  1.10D+00
                    CP:  1.26D+00  1.35D+00  1.15D+00  1.21D+00  1.04D+00
 E= -2425.12005874345     Delta-E=       -0.000000020911 Rises=F Damp=F
 DIIS: error= 1.17D-06 at cycle  11 NSaved=  11.
 NSaved=11 IEnMin=11 EnMin= -2425.12005874345     IErMin=11 ErrMin= 1.17D-06
 ErrMax= 1.17D-06  0.00D+00 EMaxC= 1.00D-01 BMatC= 1.85D-09 BMatP= 1.70D-08
 IDIUse=1 WtCom= 1.00D+00 WtEn= 0.00D+00
 Coeff-Com:  0.142D-05 0.485D-04 0.236D-03 0.615D-03 0.624D-03-0.191D-02
 Coeff-Com: -0.184D-01-0.251D-01 0.249D-01 0.259D+00 0.760D+00
 Coeff:      0.142D-05 0.485D-04 0.236D-03 0.615D-03 0.624D-03-0.191D-02
 Coeff:     -0.184D-01-0.251D-01 0.249D-01 0.259D+00 0.760D+00
 Gap=     0.198 Goal=   None    Shift=    0.000
 RMSDP=1.53D-07 MaxDP=4.19D-05 DE=-2.09D-08 OVMax= 2.03D-05

 Cycle  12  Pass 1  IDiag  1:
 RMSU=  6.64D-08    CP:  8.95D-01  5.06D-01  9.52D-01  8.69D-01  1.10D+00
                    CP:  1.26D+00  1.35D+00  1.16D+00  1.24D+00  1.15D+00
                    CP:  1.13D+00
 E= -2425.12005874622     Delta-E=       -0.000000002769 Rises=F Damp=F
 DIIS: error= 3.33D-07 at cycle  12 NSaved=  12.
 NSaved=12 IEnMin=12 EnMin= -2425.12005874622     IErMin=12 ErrMin= 3.33D-07
 ErrMax= 3.33D-07  0.00D+00 EMaxC= 1.00D-01 BMatC= 1.70D-10 BMatP= 1.85D-09
 IDIUse=1 WtCom= 1.00D+00 WtEn= 0.00D+00
 Coeff-Com: -0.192D-05 0.732D-05 0.392D-04 0.181D-03 0.383D-03 0.494D-03
 Coeff-Com: -0.700D-03-0.111D-01-0.343D-01 0.121D-01 0.227D+00 0.806D+00
 Coeff:     -0.192D-05 0.732D-05 0.392D-04 0.181D-03 0.383D-03 0.494D-03
 Coeff:     -0.700D-03-0.111D-01-0.343D-01 0.121D-01 0.227D+00 0.806D+00
 Gap=     0.198 Goal=   None    Shift=    0.000
 RMSDP=4.86D-08 MaxDP=5.71D-06 DE=-2.77D-09 OVMax= 8.73D-06

 Cycle  13  Pass 1  IDiag  1:
 RMSU=  2.66D-08    CP:  8.95D-01  5.06D-01  9.52D-01  8.69D-01  1.10D+00
                    CP:  1.26D+00  1.35D+00  1.16D+00  1.25D+00  1.18D+00
                    CP:  1.25D+00  1.11D+00
 E= -2425.12005874650     Delta-E=       -0.000000000284 Rises=F Damp=F
 DIIS: error= 1.52D-07 at cycle  13 NSaved=  13.
 NSaved=13 IEnMin=13 EnMin= -2425.12005874650     IErMin=13 ErrMin= 1.52D-07
 ErrMax= 1.52D-07  0.00D+00 EMaxC= 1.00D-01 BMatC= 3.70D-11 BMatP= 1.70D-10
 IDIUse=1 WtCom= 1.00D+00 WtEn= 0.00D+00
 Coeff-Com: -0.994D-06-0.491D-05-0.250D-04-0.249D-04 0.641D-04 0.542D-03
 Coeff-Com:  0.304D-02-0.645D-03-0.191D-01-0.367D-01-0.364D-01 0.339D+00
 Coeff-Com:  0.750D+00
 Coeff:     -0.994D-06-0.491D-05-0.250D-04-0.249D-04 0.641D-04 0.542D-03
 Coeff:      0.304D-02-0.645D-03-0.191D-01-0.367D-01-0.364D-01 0.339D+00
 Coeff:      0.750D+00
 Gap=     0.198 Goal=   None    Shift=    0.000
 RMSDP=2.65D-08 MaxDP=1.43D-06 DE=-2.84D-10 OVMax= 3.42D-06

 Cycle  14  Pass 1  IDiag  1:
 RMSU=  1.86D-08    CP:  8.95D-01  5.06D-01  9.52D-01  8.69D-01  1.10D+00
                    CP:  1.26D+00  1.35D+00  1.16D+00  1.25D+00  1.20D+00
                    CP:  1.28D+00  1.24D+00  1.37D+00
 E= -2425.12005874658     Delta-E=       -0.000000000075 Rises=F Damp=F
 DIIS: error= 4.44D-08 at cycle  14 NSaved=  14.
 NSaved=14 IEnMin=14 EnMin= -2425.12005874658     IErMin=14 ErrMin= 4.44D-08
 ErrMax= 4.44D-08  0.00D+00 EMaxC= 1.00D-01 BMatC= 3.93D-12 BMatP= 3.70D-11
 IDIUse=1 WtCom= 1.00D+00 WtEn= 0.00D+00
 Coeff-Com: -0.383D-07-0.205D-05-0.112D-04-0.261D-04-0.201D-04 0.675D-04
 Coeff-Com:  0.905D-03 0.106D-02-0.775D-03-0.100D-01-0.377D-01-0.542D-02
 Coeff-Com:  0.242D+00 0.810D+00
 Coeff:     -0.383D-07-0.205D-05-0.112D-04-0.261D-04-0.201D-04 0.675D-04
 Coeff:      0.905D-03 0.106D-02-0.775D-03-0.100D-01-0.377D-01-0.542D-02
 Coeff:      0.242D+00 0.810D+00
 Gap=     0.198 Goal=   None    Shift=    0.000
 RMSDP=2.78D-08 MaxDP=1.71D-06 DE=-7.46D-11 OVMax= 1.43D-06

 Cycle  15  Pass 1  IDiag  1:
 RMSU=  1.75D-08    CP:  8.95D-01  5.06D-01  9.52D-01  8.69D-01  1.10D+00
                    CP:  1.26D+00  1.35D+00  1.16D+00  1.25D+00  1.20D+00
                    CP:  1.29D+00  1.29D+00  1.84D+00  1.91D+00
 E= -2425.12005874662     Delta-E=       -0.000000000044 Rises=F Damp=F
 DIIS: error= 1.51D-08 at cycle  15 NSaved=  15.
 NSaved=15 IEnMin=15 EnMin= -2425.12005874662     IErMin=15 ErrMin= 1.51D-08
 ErrMax= 1.51D-08  0.00D+00 EMaxC= 1.00D-01 BMatC= 8.36D-13 BMatP= 3.93D-12
 IDIUse=1 WtCom= 1.00D+00 WtEn= 0.00D+00
 Coeff-Com:  0.899D-07-0.264D-06-0.180D-05-0.765D-05-0.136D-04-0.497D-04
 Coeff-Com: -0.102D-04 0.473D-03 0.183D-02 0.560D-05-0.130D-01-0.491D-01
 Coeff-Com:  0.588D-02 0.323D+00 0.731D+00
 Coeff:      0.899D-07-0.264D-06-0.180D-05-0.765D-05-0.136D-04-0.497D-04
 Coeff:     -0.102D-04 0.473D-03 0.183D-02 0.560D-05-0.130D-01-0.491D-01
 Coeff:      0.588D-02 0.323D+00 0.731D+00
 Gap=     0.198 Goal=   None    Shift=    0.000
 RMSDP=3.59D-08 MaxDP=1.62D-06 DE=-4.37D-11 OVMax= 4.96D-07

 Cycle  16  Pass 1  IDiag  1:
 RMSU=  1.40D-08    CP:  8.95D-01  5.06D-01  9.52D-01  8.69D-01  1.10D+00
                    CP:  1.26D+00  1.35D+00  1.16D+00  1.26D+00  1.20D+00
                    CP:  1.29D+00  1.34D+00  2.32D+00  3.00D+00  2.11D+00
 E= -2425.12005874677     Delta-E=       -0.000000000149 Rises=F Damp=F
 DIIS: error= 1.89D-08 at cycle  16 NSaved=  16.
 NSaved=16 IEnMin=16 EnMin= -2425.12005874677     IErMin=15 ErrMin= 1.51D-08
 ErrMax= 1.89D-08  0.00D+00 EMaxC= 1.00D-01 BMatC= 4.83D-13 BMatP= 8.36D-13
 IDIUse=1 WtCom= 1.00D+00 WtEn= 0.00D+00
 Coeff-Com:  0.584D-07-0.109D-06-0.839D-06-0.408D-05-0.817D-05-0.369D-04
 Coeff-Com: -0.366D-04 0.275D-03 0.123D-02 0.446D-03-0.688D-02-0.322D-01
 Coeff-Com: -0.598D-02 0.181D+00 0.490D+00 0.372D+00
 Coeff:      0.584D-07-0.109D-06-0.839D-06-0.408D-05-0.817D-05-0.369D-04
 Coeff:     -0.366D-04 0.275D-03 0.123D-02 0.446D-03-0.688D-02-0.322D-01
 Coeff:     -0.598D-02 0.181D+00 0.490D+00 0.372D+00
 Gap=     0.198 Goal=   None    Shift=    0.000
 RMSDP=2.56D-08 MaxDP=1.07D-06 DE=-1.49D-10 OVMax= 7.63D-08

 Cycle  17  Pass 1  IDiag  1:
 RMSU=  1.37D-08    CP:  8.95D-01  5.06D-01  9.52D-01  8.69D-01  1.10D+00
                    CP:  1.26D+00  1.35D+00  1.16D+00  1.26D+00  1.20D+00
                    CP:  1.29D+00  1.37D+00  2.63D+00  3.00D+00  2.94D+00
                    CP:  1.97D+00
 E= -2425.12005874664     Delta-E=        0.000000000129 Rises=F Damp=F
 DIIS: error= 2.61D-08 at cycle  17 NSaved=  17.
 NSaved=17 IEnMin=16 EnMin= -2425.12005874677     IErMin=15 ErrMin= 1.51D-08
 ErrMax= 2.61D-08  0.00D+00 EMaxC= 1.00D-01 BMatC= 6.71D-13 BMatP= 4.83D-13
 IDIUse=1 WtCom= 1.00D+00 WtEn= 0.00D+00
 Coeff-Com:  0.705D-07 0.559D-07 0.195D-07-0.236D-05-0.771D-05-0.508D-04
 Coeff-Com: -0.127D-03 0.225D-03 0.153D-02 0.154D-02-0.432D-02-0.376D-01
 Coeff-Com: -0.306D-01 0.135D+00 0.593D+00 0.118D+01-0.841D+00
 Coeff:      0.705D-07 0.559D-07 0.195D-07-0.236D-05-0.771D-05-0.508D-04
 Coeff:     -0.127D-03 0.225D-03 0.153D-02 0.154D-02-0.432D-02-0.376D-01
 Coeff:     -0.306D-01 0.135D+00 0.593D+00 0.118D+01-0.841D+00
 Gap=     0.198 Goal=   None    Shift=    0.000
 RMSDP=3.80D-08 MaxDP=1.86D-06 DE= 1.29D-10 OVMax= 2.89D-08

 Cycle  18  Pass 1  IDiag  1:
 RMSU=  1.43D-08    CP:  8.95D-01  5.06D-01  9.52D-01  8.69D-01  1.10D+00
                    CP:  1.26D+00  1.35D+00  1.16D+00  1.26D+00  1.20D+00
                    CP:  1.29D+00  1.34D+00  2.26D+00  2.93D+00  2.08D+00
                    CP:  3.55D-01 -3.31D-01
 E= -2425.12005874676     Delta-E=       -0.000000000118 Rises=F Damp=F
 DIIS: error= 1.70D-08 at cycle  18 NSaved=  18.
 NSaved=18 IEnMin=16 EnMin= -2425.12005874677     IErMin=15 ErrMin= 1.51D-08
 ErrMax= 1.70D-08  0.00D+00 EMaxC= 1.00D-01 BMatC= 3.82D-13 BMatP= 4.83D-13
 IDIUse=1 WtCom= 1.00D+00 WtEn= 0.00D+00
 Coeff-Com:  0.441D-07 0.754D-07 0.217D-06-0.879D-06-0.443D-05-0.345D-04
 Coeff-Com: -0.955D-04 0.122D-03 0.984D-03 0.126D-02-0.153D-02-0.231D-01
 Coeff-Com: -0.253D-01 0.640D-01 0.380D+00 0.105D+01-0.124D+01 0.792D+00
 Coeff:      0.441D-07 0.754D-07 0.217D-06-0.879D-06-0.443D-05-0.345D-04
 Coeff:     -0.955D-04 0.122D-03 0.984D-03 0.126D-02-0.153D-02-0.231D-01
 Coeff:     -0.253D-01 0.640D-01 0.380D+00 0.105D+01-0.124D+01 0.792D+00
 Gap=     0.198 Goal=   None    Shift=    0.000
 RMSDP=2.64D-08 MaxDP=1.52D-06 DE=-1.18D-10 OVMax= 4.21D-08

 Cycle  19  Pass 1  IDiag  1:
 RMSU=  1.66D-08    CP:  8.95D-01  5.06D-01  9.52D-01  8.69D-01  1.10D+00
                    CP:  1.26D+00  1.35D+00  1.16D+00  1.26D+00  1.20D+00
                    CP:  1.28D+00  1.33D+00  2.16D+00  2.54D+00  1.79D+00
                    CP: -1.80D-01 -7.38D-01  2.07D+00
 E= -2425.12005874664     Delta-E=        0.000000000118 Rises=F Damp=F
 DIIS: error= 2.02D-08 at cycle  19 NSaved=  19.
 NSaved=19 IEnMin=16 EnMin= -2425.12005874677     IErMin=15 ErrMin= 1.51D-08
 ErrMax= 2.02D-08  0.00D+00 EMaxC= 1.00D-01 BMatC= 3.00D-13 BMatP= 3.82D-13
 IDIUse=1 WtCom= 1.00D+00 WtEn= 0.00D+00
 Coeff-Com:  0.406D-07 0.443D-07 0.641D-07-0.118D-05-0.435D-05-0.303D-04
 Coeff-Com: -0.761D-04 0.126D-03 0.888D-03 0.975D-03-0.208D-02-0.212D-01
 Coeff-Com: -0.197D-01 0.701D-01 0.339D+00 0.833D+00-0.106D+01 0.447D+00
 Coeff-Com:  0.410D+00
 Coeff:      0.406D-07 0.443D-07 0.641D-07-0.118D-05-0.435D-05-0.303D-04
 Coeff:     -0.761D-04 0.126D-03 0.888D-03 0.975D-03-0.208D-02-0.212D-01
 Coeff:     -0.197D-01 0.701D-01 0.339D+00 0.833D+00-0.106D+01 0.447D+00
 Coeff:      0.410D+00
 Gap=     0.198 Goal=   None    Shift=    0.000
 RMSDP=1.47D-08 MaxDP=9.57D-07 DE= 1.18D-10 OVMax= 1.55D-08

 Cycle  20  Pass 1  IDiag  1:
 RMSU=  8.01D-09    CP:  8.95D-01  5.06D-01  9.52D-01  8.69D-01  1.10D+00
                    CP:  1.26D+00  1.35D+00  1.16D+00  1.25D+00  1.20D+00
                    CP:  1.28D+00  1.32D+00  2.14D+00  2.54D+00  1.66D+00
                    CP: -3.75D-01 -8.98D-01  2.44D+00  1.56D+00
 E= -2425.12005874654     Delta-E=        0.000000000100 Rises=F Damp=F
 DIIS: error= 2.33D-08 at cycle  20 NSaved=  20.
 NSaved=20 IEnMin=16 EnMin= -2425.12005874677     IErMin=15 ErrMin= 1.51D-08
 ErrMax= 2.33D-08  0.00D+00 EMaxC= 1.00D-01 BMatC= 3.36D-13 BMatP= 3.00D-13
 IDIUse=1 WtCom= 1.00D+00 WtEn= 0.00D+00
 Coeff-Com:  0.405D-07 0.437D-07 0.602D-07-0.118D-05-0.435D-05-0.302D-04
 Coeff-Com: -0.754D-04 0.126D-03 0.885D-03 0.967D-03-0.209D-02-0.211D-01
 Coeff-Com: -0.196D-01 0.700D-01 0.337D+00 0.832D+00-0.109D+01 0.484D+00
 Coeff-Com:  0.522D+00-0.119D+00
 Coeff:      0.405D-07 0.437D-07 0.602D-07-0.118D-05-0.435D-05-0.302D-04
 Coeff:     -0.754D-04 0.126D-03 0.885D-03 0.967D-03-0.209D-02-0.211D-01
 Coeff:     -0.196D-01 0.700D-01 0.337D+00 0.832D+00-0.109D+01 0.484D+00
 Coeff:      0.522D+00-0.119D+00
 Gap=     0.198 Goal=   None    Shift=    0.000
 RMSDP=3.38D-09 MaxDP=3.28D-07 DE= 1.00D-10 OVMax= 1.90D-09

 Error on total polarization charges =  0.07975
 SCF Done:  E(RM062X) =  -2425.12005875     A.U. after   20 cycles
            NFock= 20  Conv=0.34D-08     -V/T= 2.0042
 KE= 2.415094768984D+03 PE=-1.820919007199D+04 EE= 7.090596959397D+03
 SMD-CDS (non-electrostatic) energy       (kcal/mol) =      -8.52
 (included in total energy above)
 Leave Link  502 at Fri Jul  1 19:56:00 2022, MaxMem=  5242880000 cpu:     84105.3
 (Enter /opt/nce/packages/global/g09/l801.exe)
 DoSCS=F DFT=T ScalE2(SS,OS)=  1.000000  1.000000
 ExpMin= 9.52D-02 ExpMax= 6.95D+04 ExpMxC= 2.37D+03 IAcc=3 IRadAn=         5 AccDes= 0.00D+00
 HarFok:  IExCor=  205 AccDes= 0.00D+00 IRadAn=         5 IDoV=-2 UseB2=F ITyADJ=14
 ICtDFT= 12500011 ScaDFX=  1.000000  1.000000  1.000000  1.000000
 Largest valence mixing into a core orbital is  1.31D-04
 Largest core mixing into a valence orbital is  4.08D-05
 Range of M.O.s used for correlation:    55  1700
 NBasis=  1700 NAE=   170 NBE=   170 NFC=    54 NFV=     0
 NROrb=   1646 NOA=   116 NOB=   116 NVA=  1530 NVB=  1530

 **** Warning!!: The largest alpha MO coefficient is  0.89544122D+02

 Leave Link  801 at Fri Jul  1 19:56:00 2022, MaxMem=  5242880000 cpu:         6.5
 (Enter /opt/nce/packages/global/g09/l914.exe)
 RHF ground state
 MDV=  5242880000 DFT=T DoStab=F Mixed=T DoRPA=T DoScal=F NonHer=T
 Would need an additional       3170097800000 words for in-memory AO integral storage.
 NEqPCM:  Using non-equilibrium solvation (IEInf=1, Eps=  35.6880, EpsInf=   1.8069)
 Inv3:  Mode=1 IEnd=   102983643.
 Iteration    1 A*A^-1 deviation from unit magnitude is 8.55D-15 for   5835.
 Iteration    1 A*A^-1 deviation from orthogonality  is 7.09D-15 for   5848   5134.
 Iteration    1 A^-1*A deviation from unit magnitude is 8.99D-15 for   5835.
 Iteration    1 A^-1*A deviation from orthogonality  is 2.92D-15 for   1489   1442.
 Making orbital integer symmetry assigments:
 Orbital symmetries:
       Occupied  (A) (A) (A) (A) (A) (A) (A) (A) (A) (A) (A) (A)
                 (A) (A) (A) (A) (A) (A) (A) (A) (A) (A) (A) (A)
                 (A) (A) (A) (A) (A) (A) (A) (A) (A) (A) (A) (A)
                 (A) (A) (A) (A) (A) (A) (A) (A) (A) (A) (A) (A)
                 (A) (A) (A) (A) (A) (A) (A) (A) (A) (A) (A) (A)
                 (A) (A) (A) (A) (A) (A) (A) (A) (A) (A) (A) (A)
                 (A) (A) (A) (A) (A) (A) (A) (A) (A) (A) (A) (A)
                 (A) (A) (A) (A) (A) (A) (A) (A) (A) (A) (A) (A)
                 (A) (A) (A) (A) (A) (A) (A) (A) (A) (A) (A) (A)
                 (A) (A) (A) (A) (A) (A) (A) (A) (A) (A) (A) (A)
                 (A) (A) (A) (A) (A) (A) (A) (A) (A) (A) (A) (A)
                 (A) (A) (A) (A) (A) (A) (A) (A) (A) (A) (A) (A)
                 (A) (A) (A) (A) (A) (A) (A) (A) (A) (A) (A) (A)
                 (A) (A) (A) (A) (A) (A) (A) (A) (A) (A) (A) (A)
                 (A) (A)
       Virtual   (A) (A) (A) (A) (A) (A) (A) (A) (A) (A) (A) (A)
                 (A) (A) (A) (A) (A) (A) (A) (A) (A) (A) (A) (A)
                 (A) (A) (A) (A) (A) (A) (A) (A) (A) (A) (A) (A)
                 (A) (A) (A) (A) (A) (A) (A) (A) (A) (A) (A) (A)
                 (A) (A) (A) (A) (A) (A) (A) (A) (A) (A) (A) (A)
                 (A) (A) (A) (A) (A) (A) (A) (A) (A) (A) (A) (A)
                 (A) (A) (A) (A) (A) (A) (A) (A) (A) (A) (A) (A)
                 (A) (A) (A) (A) (A) (A) (A) (A) (A) (A) (A) (A)
                 (A) (A) (A) (A) (A) (A) (A) (A) (A) (A) (A) (A)
                 (A) (A) (A) (A) (A) (A) (A) (A) (A) (A) (A) (A)
                 (A) (A) (A) (A) (A) (A) (A) (A) (A) (A) (A) (A)
                 (A) (A) (A) (A) (A) (A) (A) (A) (A) (A) (A) (A)
                 (A) (A) (A) (A) (A) (A) (A) (A) (A) (A) (A) (A)
                 (A) (A) (A) (A) (A) (A) (A) (A) (A) (A) (A) (A)
                 (A) (A) (A) (A) (A) (A) (A) (A) (A) (A) (A) (A)
                 (A) (A) (A) (A) (A) (A) (A) (A) (A) (A) (A) (A)
                 (A) (A) (A) (A) (A) (A) (A) (A) (A) (A) (A) (A)
                 (A) (A) (A) (A) (A) (A) (A) (A) (A) (A) (A) (A)
                 (A) (A) (A) (A) (A) (A) (A) (A) (A) (A) (A) (A)
                 (A) (A) (A) (A) (A) (A) (A) (A) (A) (A) (A) (A)
                 (A) (A) (A) (A) (A) (A) (A) (A) (A) (A) (A) (A)
                 (A) (A) (A) (A) (A) (A) (A) (A) (A) (A) (A) (A)
                 (A) (A) (A) (A) (A) (A) (A) (A) (A) (A) (A) (A)
                 (A) (A) (A) (A) (A) (A) (A) (A) (A) (A) (A) (A)
                 (A) (A) (A) (A) (A) (A) (A) (A) (A) (A) (A) (A)
                 (A) (A) (A) (A) (A) (A) (A) (A) (A) (A) (A) (A)
                 (A) (A) (A) (A) (A) (A) (A) (A) (A) (A) (A) (A)
                 (A) (A) (A) (A) (A) (A) (A) (A) (A) (A) (A) (A)
                 (A) (A) (A) (A) (A) (A) (A) (A) (A) (A) (A) (A)
                 (A) (A) (A) (A) (A) (A) (A) (A) (A) (A) (A) (A)
                 (A) (A) (A) (A) (A) (A) (A) (A) (A) (A) (A) (A)
                 (A) (A) (A) (A) (A) (A) (A) (A) (A) (A) (A) (A)
                 (A) (A) (A) (A) (A) (A) (A) (A) (A) (A) (A) (A)
                 (A) (A) (A) (A) (A) (A) (A) (A) (A) (A) (A) (A)
                 (A) (A) (A) (A) (A) (A) (A) (A) (A) (A) (A) (A)
                 (A) (A) (A) (A) (A) (A) (A) (A) (A) (A) (A) (A)
                 (A) (A) (A) (A) (A) (A) (A) (A) (A) (A) (A) (A)
                 (A) (A) (A) (A) (A) (A) (A) (A) (A) (A) (A) (A)
                 (A) (A) (A) (A) (A) (A) (A) (A) (A) (A) (A) (A)
                 (A) (A) (A) (A) (A) (A) (A) (A) (A) (A) (A) (A)
                 (A) (A) (A) (A) (A) (A) (A) (A) (A) (A) (A) (A)
                 (A) (A) (A) (A) (A) (A) (A) (A) (A) (A) (A) (A)
                 (A) (A) (A) (A) (A) (A) (A) (A) (A) (A) (A) (A)
                 (A) (A) (A) (A) (A) (A) (A) (A) (A) (A) (A) (A)
                 (A) (A) (A) (A) (A) (A) (A) (A) (A) (A) (A) (A)
                 (A) (A) (A) (A) (A) (A) (A) (A) (A) (A) (A) (A)
                 (A) (A) (A) (A) (A) (A) (A) (A) (A) (A) (A) (A)
                 (A) (A) (A) (A) (A) (A) (A) (A) (A) (A) (A) (A)
                 (A) (A) (A) (A) (A) (A) (A) (A) (A) (A) (A) (A)
                 (A) (A) (A) (A) (A) (A) (A) (A) (A) (A) (A) (A)
                 (A) (A) (A) (A) (A) (A) (A) (A) (A) (A) (A) (A)
                 (A) (A) (A) (A) (A) (A) (A) (A) (A) (A) (A) (A)
                 (A) (A) (A) (A) (A) (A) (A) (A) (A) (A) (A) (A)
                 (A) (A) (A) (A) (A) (A) (A) (A) (A) (A) (A) (A)
                 (A) (A) (A) (A) (A) (A) (A) (A) (A) (A) (A) (A)
                 (A) (A) (A) (A) (A) (A) (A) (A) (A) (A) (A) (A)
                 (A) (A) (A) (A) (A) (A) (A) (A) (A) (A) (A) (A)
                 (A) (A) (A) (A) (A) (A) (A) (A) (A) (A) (A) (A)
                 (A) (A) (A) (A) (A) (A) (A) (A) (A) (A) (A) (A)
                 (A) (A) (A) (A) (A) (A) (A) (A) (A) (A) (A) (A)
                 (A) (A) (A) (A) (A) (A) (A) (A) (A) (A) (A) (A)
                 (A) (A) (A) (A) (A) (A) (A) (A) (A) (A) (A) (A)
                 (A) (A) (A) (A) (A) (A) (A) (A) (A) (A) (A) (A)
                 (A) (A) (A) (A) (A) (A) (A) (A) (A) (A) (A) (A)
                 (A) (A) (A) (A) (A) (A) (A) (A) (A) (A) (A) (A)
                 (A) (A) (A) (A) (A) (A) (A) (A) (A) (A) (A) (A)
                 (A) (A) (A) (A) (A) (A) (A) (A) (A) (A) (A) (A)
                 (A) (A) (A) (A) (A) (A) (A) (A) (A) (A) (A) (A)
                 (A) (A) (A) (A) (A) (A) (A) (A) (A) (A) (A) (A)
                 (A) (A) (A) (A) (A) (A) (A) (A) (A) (A) (A) (A)
                 (A) (A) (A) (A) (A) (A) (A) (A) (A) (A) (A) (A)
                 (A) (A) (A) (A) (A) (A) (A) (A) (A) (A) (A) (A)
                 (A) (A) (A) (A) (A) (A) (A) (A) (A) (A) (A) (A)
                 (A) (A) (A) (A) (A) (A) (A) (A) (A) (A) (A) (A)
                 (A) (A) (A) (A) (A) (A) (A) (A) (A) (A) (A) (A)
                 (A) (A) (A) (A) (A) (A) (A) (A) (A) (A) (A) (A)
                 (A) (A) (A) (A) (A) (A) (A) (A) (A) (A) (A) (A)
                 (A) (A) (A) (A) (A) (A) (A) (A) (A) (A) (A) (A)
                 (A) (A) (A) (A) (A) (A) (A) (A) (A) (A) (A) (A)
                 (A) (A) (A) (A) (A) (A) (A) (A) (A) (A) (A) (A)
                 (A) (A) (A) (A) (A) (A) (A) (A) (A) (A) (A) (A)
                 (A) (A) (A) (A) (A) (A) (A) (A) (A) (A) (A) (A)
                 (A) (A) (A) (A) (A) (A) (A) (A) (A) (A) (A) (A)
                 (A) (A) (A) (A) (A) (A) (A) (A) (A) (A) (A) (A)
                 (A) (A) (A) (A) (A) (A) (A) (A) (A) (A) (A) (A)
                 (A) (A) (A) (A) (A) (A) (A) (A) (A) (A) (A) (A)
                 (A) (A) (A) (A) (A) (A) (A) (A) (A) (A) (A) (A)
                 (A) (A) (A) (A) (A) (A) (A) (A) (A) (A) (A) (A)
                 (A) (A) (A) (A) (A) (A) (A) (A) (A) (A) (A) (A)
                 (A) (A) (A) (A) (A) (A) (A) (A) (A) (A) (A) (A)
                 (A) (A) (A) (A) (A) (A) (A) (A) (A) (A) (A) (A)
                 (A) (A) (A) (A) (A) (A) (A) (A) (A) (A) (A) (A)
                 (A) (A) (A) (A) (A) (A) (A) (A) (A) (A) (A) (A)
                 (A) (A) (A) (A) (A) (A) (A) (A) (A) (A) (A) (A)
                 (A) (A) (A) (A) (A) (A) (A) (A) (A) (A) (A) (A)
                 (A) (A) (A) (A) (A) (A) (A) (A) (A) (A) (A) (A)
                 (A) (A) (A) (A) (A) (A) (A) (A) (A) (A) (A) (A)
                 (A) (A) (A) (A) (A) (A) (A) (A) (A) (A) (A) (A)
                 (A) (A) (A) (A) (A) (A) (A) (A) (A) (A) (A) (A)
                 (A) (A) (A) (A) (A) (A) (A) (A) (A) (A) (A) (A)
                 (A) (A) (A) (A) (A) (A) (A) (A) (A) (A) (A) (A)
                 (A) (A) (A) (A) (A) (A) (A) (A) (A) (A) (A) (A)
                 (A) (A) (A) (A) (A) (A) (A) (A) (A) (A) (A) (A)
                 (A) (A) (A) (A) (A) (A) (A) (A) (A) (A) (A) (A)
                 (A) (A) (A) (A) (A) (A) (A) (A) (A) (A) (A) (A)
                 (A) (A) (A) (A) (A) (A) (A) (A) (A) (A) (A) (A)
                 (A) (A) (A) (A) (A) (A) (A) (A) (A) (A) (A) (A)
                 (A) (A) (A) (A) (A) (A) (A) (A) (A) (A) (A) (A)
                 (A) (A) (A) (A) (A) (A) (A) (A) (A) (A) (A) (A)
                 (A) (A) (A) (A) (A) (A) (A) (A) (A) (A) (A) (A)
                 (A) (A) (A) (A) (A) (A) (A) (A) (A) (A) (A) (A)
                 (A) (A) (A) (A) (A) (A) (A) (A) (A) (A) (A) (A)
                 (A) (A) (A) (A) (A) (A) (A) (A) (A) (A) (A) (A)
                 (A) (A) (A) (A) (A) (A) (A) (A) (A) (A) (A) (A)
                 (A) (A) (A) (A) (A) (A) (A) (A) (A) (A) (A) (A)
                 (A) (A) (A) (A) (A) (A) (A) (A) (A) (A) (A) (A)
                 (A) (A) (A) (A) (A) (A) (A) (A) (A) (A) (A) (A)
                 (A) (A) (A) (A) (A) (A) (A) (A) (A) (A) (A) (A)
                 (A) (A) (A) (A) (A) (A) (A) (A) (A) (A) (A) (A)
                 (A) (A) (A) (A) (A) (A) (A) (A) (A) (A) (A) (A)
                 (A) (A) (A) (A) (A) (A) (A) (A) (A) (A) (A) (A)
                 (A) (A) (A) (A) (A) (A) (A) (A) (A) (A) (A) (A)
                 (A) (A) (A) (A) (A) (A) (A) (A) (A) (A) (A) (A)
                 (A) (A) (A) (A) (A) (A) (A) (A) (A) (A) (A) (A)
                 (A) (A) (A) (A) (A) (A) (A) (A) (A) (A) (A) (A)
                 (A) (A) (A) (A) (A) (A) (A) (A) (A) (A) (A) (A)
                 (A) (A) (A) (A) (A) (A) (A) (A) (A) (A) (A) (A)
                 (A) (A) (A) (A) (A) (A)
   200 initial guesses have been made.
 Convergence on wavefunction:    0.001000000000000
 Davidson Disk Diagonalization:  ConvIn= 1.00D-03 SkipCon=T Conv= 1.00D-03.
 Max sub-space:   800 roots to seek:   200 dimension of matrix:       354960
 Iteration     1 Dimension   200 NMult     0 NNew    200
 CISAX will form    72 AO SS matrices at one time.
 NMat=    72 NSing=    72 JSym2X= 0.
 FoFJK:  IHMeth= 1 ICntrl=       0 DoSepK=F KAlg= 0 I1Cent=   0 FoldK=F
 IRaf=         0 NMat= 144 IRICut=       1 DoRegI=T DoRafI=F ISym2E= 0.
 NMat=    72 NSing=    72 JSym2X= 0.
 NMat=    56 NSing=    56 JSym2X= 0.
 New state      4 was old state      7
 New state      5 was old state      4
 New state      6 was old state      5
 New state      7 was old state      6
 New state      8 was old state      9
 New state      9 was old state      8
 New state     10 was old state     12
 New state     11 was old state     10
 New state     12 was old state     11
 New state     15 was old state     20
 New state     17 was old state     28
 New state     18 was old state     34
 New state     19 was old state     29
 New state     20 was old state     27
 New state     21 was old state     17
 New state     22 was old state     18
 New state     23 was old state     36
 New state     24 was old state     22
 New state     25 was old state     15
 New state     26 was old state     35
 New state     27 was old state     21
 New state     28 was old state     19
 New state     29 was old state     37
 New state     30 was old state     23
 New state     31 was old state     24
 New state     32 was old state     38
 New state     33 was old state     40
 New state     34 was old state     44
 New state     35 was old state     93
 New state     36 was old state     39
 New state     37 was old state     25
 New state     38 was old state     26
 New state     39 was old state     30
 New state     40 was old state     33
 New state     41 was old state     42
 New state     42 was old state     32
 New state     43 was old state     31
 New state     44 was old state     41
 New state     45 was old state     68
 New state     46 was old state     45
 New state     47 was old state     63
 New state     48 was old state     62
 New state     49 was old state     70
 New state     50 was old state     54
 Excitation Energies [eV] at current iteration:
 Root      1 :     3.454192488883024
 Root      2 :     3.664606085034442
 Root      3 :     3.761056344310949
 Root      4 :     3.993014857158236
 Root      5 :     4.100998445410696
 Root      6 :     4.109380372212573
 Root      7 :     4.222222041506945
 Root      8 :     4.274339285385087
 Root      9 :     4.298197798039827
 Root     10 :     4.495769996397085
 Root     11 :     4.726876008511557
 Root     12 :     4.732710430342248
 Root     13 :     4.805311034710601
 Root     14 :     4.819208689068728
 Root     15 :     4.834238859177489
 Root     16 :     5.098943521131743
 Root     17 :     5.220433368528353
 Root     18 :     5.230020111760133
 Root     19 :     5.257484177291224
 Root     20 :     5.323981809235467
 Root     21 :     5.351506340932027
 Root     22 :     5.385310097866391
 Root     23 :     5.690956016647924
 Root     24 :     5.787035634779031
 Root     25 :     5.811606612535685
 Root     26 :     5.824726585477403
 Root     27 :     5.851549828109378
 Root     28 :     5.889271590139134
 Root     29 :     5.917556627787047
 Root     30 :     5.970306371111485
 Root     31 :     5.985853569298712
 Root     32 :     6.002436443619857
 Root     33 :     6.037391919965561
 Root     34 :     6.048770777064632
 Root     35 :     6.072707099677062
 Root     36 :     6.102994592300107
 Root     37 :     6.149407869047515
 Root     38 :     6.154854399489724
 Root     39 :     6.161987906150198
 Root     40 :     6.188664418496870
 Root     41 :     6.198923806492119
 Root     42 :     6.205859884769064
 Root     43 :     6.210089555859724
 Root     44 :     6.215056996586731
 Root     45 :     6.227046869530585
 Root     46 :     6.239247225990455
 Root     47 :     6.271597429099974
 Root     48 :     6.287121333957804
 Root     49 :     6.302806932229995
 Root     50 :     6.345974819250776
 Root     51 :     6.356066901056517
 Root     52 :     6.435786624295527
 Root     53 :     6.490829918134775
 Root     54 :     6.497669655075369
 Root     55 :     6.510892310448641
 Root     56 :     6.594080025183919
 Root     57 :     6.729618403719365
 Root     58 :     6.795995465830923
 Root     59 :     6.801161722122422
 Root     60 :     6.811400898917137
 Root     61 :     6.832072065844181
 Root     62 :     6.860343839654246
 Root     63 :     6.869341356943480
 Root     64 :     6.873136469421465
 Root     65 :     6.878969510395791
 Root     66 :     6.885036751961430
 Root     67 :     6.905892741070462
 Root     68 :     6.920710089114455
 Root     69 :     6.944916310582983
 Root     70 :     6.946814902898049
 Root     71 :     6.960196043049316
 Root     72 :     6.970031080629348
 Root     73 :     6.983856682959521
 Root     74 :     6.998200868273485
 Root     75 :     7.035388743500734
 Root     76 :     7.042731729987355
 Root     77 :     7.066345236514550
 Root     78 :     7.067387009983531
 Root     79 :     7.123786151260911
 Root     80 :     7.136327624017451
 Root     81 :     7.152961518993862
 Root     82 :     7.153956288662846
 Root     83 :     7.162335222740945
 Root     84 :     7.164950970074655
 Root     85 :     7.176686270671313
 Root     86 :     7.193575083517856
 Root     87 :     7.196060071454521
 Root     88 :     7.201119682296353
 Root     89 :     7.207506252456902
 Root     90 :     7.245192666435776
 Root     91 :     7.254656105327945
 Root     92 :     7.257845766041853
 Root     93 :     7.262528071559229
 Root     94 :     7.306928182010811
 Root     95 :     7.319266302752835
 Root     96 :     7.338821108982167
 Root     97 :     7.339434042984005
 Root     98 :     7.349331356417005
 Root     99 :     7.351292103253865
 Root    100 :     7.352358233372896
 Root    101 :     7.361010993576114
 Root    102 :     7.363906298428327
 Root    103 :     7.371716703242688
 Root    104 :     7.379788152327747
 Root    105 :     7.396823090572563
 Root    106 :     7.417720554736263
 Root    107 :     7.428409460314043
 Root    108 :     7.431449940813353
 Root    109 :     7.437094809138811
 Root    110 :     7.437648036712877
 Root    111 :     7.456620908730129
 Root    112 :     7.463220926212381
 Root    113 :     7.467102371192574
 Root    114 :     7.482372654529643
 Root    115 :     7.504781256388538
 Root    116 :     7.517728001445951
 Root    117 :     7.518821076697064
 Root    118 :     7.525345599657139
 Root    119 :     7.532557317770651
 Root    120 :     7.545320488362169
 Root    121 :     7.559631648366262
 Root    122 :     7.566988235102334
 Root    123 :     7.576575671749231
 Root    124 :     7.599035830514349
 Root    125 :     7.610923379018780
 Root    126 :     7.615702977134188
 Root    127 :     7.620539183902563
 Root    128 :     7.626204223977775
 Root    129 :     7.638565233245999
 Root    130 :     7.642640673419840
 Root    131 :     7.662755669914342
 Root    132 :     7.672774294577159
 Root    133 :     7.679306031202245
 Root    134 :     7.684994028578852
 Root    135 :     7.686431762422719
 Root    136 :     7.701826982563368
 Root    137 :     7.711042006635317
 Root    138 :     7.739853903864039
 Root    139 :     7.741294046680137
 Root    140 :     7.788208817803532
 Root    141 :     7.818263783112156
 Root    142 :     7.836577981573034
 Root    143 :     7.846503605410855
 Root    144 :     7.848174970741934
 Root    145 :     7.850857986137266
 Root    146 :     7.864986741839886
 Root    147 :     7.869276184960598
 Root    148 :     7.886356429654950
 Root    149 :     7.909103870235047
 Root    150 :     7.912077212644854
 Root    151 :     7.914228753291556
 Root    152 :     7.937699679389475
 Root    153 :     7.938378924456311
 Root    154 :     7.943123209745486
 Root    155 :     7.991397637432502
 Root    156 :     7.994539197185702
 Root    157 :     8.029868723772527
 Root    158 :     8.041960101094942
 Root    159 :     8.069145505774127
 Root    160 :     8.074430429946210
 Root    161 :     8.075855711269542
 Root    162 :     8.084322168309569
 Root    163 :     8.096844872298311
 Root    164 :     8.127061193707410
 Root    165 :     8.139971262080481
 Root    166 :     8.146477504826844
 Root    167 :     8.150403272162004
 Root    168 :     8.159929489310983
 Root    169 :     8.171090357396462
 Root    170 :     8.183337893326053
 Root    171 :     8.188078731804140
 Root    172 :     8.203943082519247
 Root    173 :     8.212317636871154
 Root    174 :     8.221815436266747
 Root    175 :     8.232142295819598
 Root    176 :     8.234427727849397
 Root    177 :     8.239062740860744
 Root    178 :     8.241630844047585
 Root    179 :     8.254727737048118
 Root    180 :     8.259162026335540
 Root    181 :     8.288322297767763
 Root    182 :     8.302922856607786
 Root    183 :     8.307756697921430
 Root    184 :     8.314769211113019
 Root    185 :     8.317235825481973
 Root    186 :     8.334758640208543
 Root    187 :     8.347183047072360
 Root    188 :     8.359548661045022
 Root    189 :     8.371966386203990
 Root    190 :     8.374541986602956
 Root    191 :     8.374862174424338
 Root    192 :     8.407485761591653
 Root    193 :     8.417299911081543
 Root    194 :     8.420586107849283
 Root    195 :     8.432538371939183
 Root    196 :     8.441295519121795
 Root    197 :     8.497453385808370
 Root    198 :     8.714096303321154
 Root    199 :     8.718587087583119
 Root    200 :     8.744925223119765
 Iteration     2 Dimension   300 NMult   200 NNew    100
 CISAX will form   100 AO SS matrices at one time.
 NMat=   100 NSing=   100 JSym2X= 0.
 Root      1 not converged, maximum delta is    0.033046030193313
 Root      2 not converged, maximum delta is    0.066131467005183
 Root      3 not converged, maximum delta is    0.033472066052900
 Root      4 not converged, maximum delta is    0.058957522509789
 Root      5 not converged, maximum delta is    0.014894078306108
 Root      6 not converged, maximum delta is    0.020492771911194
 New state      7 was old state      8
 Root      7 not converged, maximum delta is    0.061311993691150
 New state      8 was old state      9
 Root      8 not converged, maximum delta is    0.048424790962116
 New state      9 was old state      7
 Root      9 not converged, maximum delta is    0.065586534768087
 Root     10 not converged, maximum delta is    0.020817820383595
 New state     11 was old state     13
 Root     11 not converged, maximum delta is    0.115282627008709
 New state     12 was old state     14
 Root     12 not converged, maximum delta is    0.311333791108579
 New state     13 was old state     15
 Root     13 not converged, maximum delta is    0.280312953683489
 New state     14 was old state     11
 Root     14 not converged, maximum delta is    0.193565992650748
 New state     15 was old state     12
 Root     15 not converged, maximum delta is    0.181319824233360
 Root     16 not converged, maximum delta is    0.272110389780611
 Root     17 not converged, maximum delta is    0.216410660434358
 New state     18 was old state     19
 Root     18 not converged, maximum delta is    0.377322054846355
 New state     19 was old state     18
 Root     19 not converged, maximum delta is    0.403826775617927
 Root     20 not converged, maximum delta is    0.203466397972409
 Root     21 not converged, maximum delta is    0.150184734622607
 Root     22 not converged, maximum delta is    0.079661581277208
 New state     23 was old state     32
 Root     23 not converged, maximum delta is    0.270447757855688
 New state     24 was old state     34
 Root     24 not converged, maximum delta is    0.349028855658649
 New state     25 was old state     33
 Root     25 not converged, maximum delta is    0.329379357484379
 New state     26 was old state     23
 Root     26 not converged, maximum delta is    0.210311768809688
 New state     27 was old state     35
 Root     27 not converged, maximum delta is    0.434112580165185
 New state     28 was old state     26
 Root     28 not converged, maximum delta is    0.309997794540831
 New state     29 was old state     24
 Root     29 not converged, maximum delta is    0.089133257255828
 New state     30 was old state     25
 Root     30 not converged, maximum delta is    0.151794352207106
 New state     31 was old state     41
 Root     31 not converged, maximum delta is    0.278403683672641
 New state     32 was old state     29
 Root     32 not converged, maximum delta is    0.296857065575823
 New state     33 was old state     27
 Root     33 not converged, maximum delta is    0.351071667942715
 New state     34 was old state     49
 Root     34 not converged, maximum delta is    0.253698017282061
 New state     35 was old state     28
 Root     35 not converged, maximum delta is    0.153874757604744
 New state     36 was old state     48
 Root     36 not converged, maximum delta is    0.247896060756358
 New state     37 was old state     47
 Root     37 not converged, maximum delta is    0.368725227701237
 New state     38 was old state     50
 Root     38 not converged, maximum delta is    0.187962461335712
 New state     39 was old state     36
 Root     39 not converged, maximum delta is    0.442075070406604
 New state     40 was old state     46
 Root     40 not converged, maximum delta is    0.289319038563128
 New state     41 was old state     53
 Root     41 not converged, maximum delta is    0.357474044051668
 New state     42 was old state     30
 Root     42 not converged, maximum delta is    0.163707982041561
 New state     43 was old state     31
 Root     43 not converged, maximum delta is    0.058141998787398
 New state     44 was old state     45
 Root     44 not converged, maximum delta is    0.600639797481895
 New state     45 was old state     37
 Root     45 not converged, maximum delta is    0.119945591740705
 New state     46 was old state     38
 Root     46 not converged, maximum delta is    0.051936152283590
 New state     47 was old state     39
 Root     47 not converged, maximum delta is    0.124859490457663
 New state     48 was old state     52
 Root     48 not converged, maximum delta is    0.371310658185694
 New state     49 was old state     42
 Root     49 not converged, maximum delta is    0.348863305925228
 New state     50 was old state     43
 Root     50 not converged, maximum delta is    0.313753068700556
 Excitation Energies [eV] at current iteration:
 Root      1 :     3.366004350517073   Change is   -0.088188138365950
 Root      2 :     3.544145862231357   Change is   -0.120460222803084
 Root      3 :     3.701598846472437   Change is   -0.059457497838511
 Root      4 :     3.794897547784674   Change is   -0.198117309373562
 Root      5 :     4.072461695457684   Change is   -0.028536749953012
 Root      6 :     4.080677755099672   Change is   -0.028702617112901
 Root      7 :     4.195070326083322   Change is   -0.079268959301765
 Root      8 :     4.200859804684955   Change is   -0.097337993354871
 Root      9 :     4.210776047375960   Change is   -0.011445994130985
 Root     10 :     4.446453168185390   Change is   -0.049316828211695
 Root     11 :     4.530674862961626   Change is   -0.274636171748975
 Root     12 :     4.531502751944041   Change is   -0.287705937124687
 Root     13 :     4.542548595755342   Change is   -0.291690263422148
 Root     14 :     4.711513928072234   Change is   -0.015362080439322
 Root     15 :     4.719913809155225   Change is   -0.012796621187023
 Root     16 :     4.857242558253391   Change is   -0.241700962878352
 Root     17 :     4.871248553333081   Change is   -0.349184815195272
 Root     18 :     4.879392042600982   Change is   -0.378092134690243
 Root     19 :     4.920515399035862   Change is   -0.309504712724271
 Root     20 :     5.203923894404013   Change is   -0.120057914831454
 Root     21 :     5.255180274483313   Change is   -0.096326066448714
 Root     22 :     5.337369108155789   Change is   -0.047940989710602
 Root     23 :     5.480996849549276   Change is   -0.521439594070580
 Root     24 :     5.543051348821845   Change is   -0.505719428242787
 Root     25 :     5.544744375935466   Change is   -0.492647544030095
 Root     26 :     5.560974379873135   Change is   -0.129981636774788
 Root     27 :     5.619895481060412   Change is   -0.452811618616650
 Root     28 :     5.752063931450594   Change is   -0.072662654026809
 Root     29 :     5.770640253028475   Change is   -0.016395381750557
 Root     30 :     5.793167439646278   Change is   -0.018439172889406
 Root     31 :     5.818569154837730   Change is   -0.380354651654389
 Root     32 :     5.821654151295094   Change is   -0.095902476491953
 Root     33 :     5.821697714181883   Change is   -0.029852113927494
 Root     34 :     5.855427080798777   Change is   -0.447379851431218
 Root     35 :     5.882529587009828   Change is   -0.006742003129306
 Root     36 :     5.885558110854993   Change is   -0.401563223102811
 Root     37 :     5.897447786713467   Change is   -0.374149642386506
 Root     38 :     5.908145209780254   Change is   -0.437829609470522
 Root     39 :     5.917711729398657   Change is   -0.185282862901450
 Root     40 :     5.938987811263670   Change is   -0.300259414726784
 Root     41 :     5.950195195021811   Change is   -0.540634723112964
 Root     42 :     5.970432527774708   Change is    0.000126156663224
 Root     43 :     5.981453785802534   Change is   -0.004399783496177
 Root     44 :     6.091981527655792   Change is   -0.135065341874792
 Root     45 :     6.148728854635678   Change is   -0.000679014411837
 Root     46 :     6.153635591989411   Change is   -0.001218807500313
 Root     47 :     6.163012300119582   Change is    0.001024393969383
 Root     48 :     6.192121774906206   Change is   -0.243664849389321
 Root     49 :     6.197911670003599   Change is   -0.007948214765465
 Root     50 :     6.207779631233669   Change is   -0.002309924626055
 Iteration     3 Dimension   400 NMult   300 NNew    100
 CISAX will form   100 AO SS matrices at one time.
 NMat=   100 NSing=   100 JSym2X= 0.
 Root      1 not converged, maximum delta is    0.004412757284497
 Root      2 not converged, maximum delta is    0.007059334190207
 Root      3 not converged, maximum delta is    0.003232439822995
 Root      4 not converged, maximum delta is    0.007375636331485
 Root      5 not converged, maximum delta is    0.002362610581304
 Root      6 not converged, maximum delta is    0.002291252108094
 Root      7 not converged, maximum delta is    0.019445260216396
 Root      8 not converged, maximum delta is    0.004071283336863
 Root      9 not converged, maximum delta is    0.016145990013928
 Root     10 not converged, maximum delta is    0.004791151859624
 Root     11 not converged, maximum delta is    0.025202572602877
 Root     12 not converged, maximum delta is    0.023203705119271
 Root     13 not converged, maximum delta is    0.027145360677837
 Root     14 not converged, maximum delta is    0.014171635792216
 Root     15 not converged, maximum delta is    0.014689372128890
 Root     16 not converged, maximum delta is    0.029762501660433
 Root     17 not converged, maximum delta is    0.021821456967610
 Root     18 not converged, maximum delta is    0.037535731616622
 Root     19 not converged, maximum delta is    0.025055244548032
 Root     20 not converged, maximum delta is    0.006993997007416
 Root     21 not converged, maximum delta is    0.011949455143568
 Root     22 not converged, maximum delta is    0.021509332778381
 Root     23 not converged, maximum delta is    0.021009123953159
 Root     24 not converged, maximum delta is    0.050691329163881
 Root     25 not converged, maximum delta is    0.061025137363487
 Root     26 not converged, maximum delta is    0.067083780130726
 Root     27 not converged, maximum delta is    0.050518998044090
 Root     28 not converged, maximum delta is    0.132303378078453
 Root     29 not converged, maximum delta is    0.054557623475027
 Root     30 not converged, maximum delta is    0.111015954514316
 Root     31 not converged, maximum delta is    0.292701450133058
 Root     32 not converged, maximum delta is    0.094725326467044
 Root     33 not converged, maximum delta is    0.168785687148379
 Root     34 not converged, maximum delta is    0.198948018092314
 Root     35 not converged, maximum delta is    0.303156788300351
 Root     36 not converged, maximum delta is    0.080149799555788
 New state     37 was old state     39
 Root     37 not converged, maximum delta is    0.153255081223809
 Root     38 not converged, maximum delta is    0.083102295648053
 New state     39 was old state     37
 Root     39 not converged, maximum delta is    0.251100896604198
 Root     40 not converged, maximum delta is    0.052870613396208
 Root     41 not converged, maximum delta is    0.219834727132701
 Root     42 not converged, maximum delta is    0.031043357183237
 Root     43 not converged, maximum delta is    0.016638863652850
 Root     44 not converged, maximum delta is    0.109847377219521
 Root     45 not converged, maximum delta is    0.067196443097313
 Root     46 not converged, maximum delta is    0.012564721180988
 New state     47 was old state     48
 Root     47 not converged, maximum delta is    0.312112179284725
 New state     48 was old state     47
[...]
 Alpha virt. eigenvalues --    2.35364   2.35921   2.36357   2.36532   2.36918
 Alpha virt. eigenvalues --    2.37295   2.37438   2.37662   2.38778   2.39202
 Alpha virt. eigenvalues --    2.39410   2.39482   2.39917   2.40376   2.40829
 Alpha virt. eigenvalues --    2.41059   2.42077   2.42235   2.42736   2.43714
 Alpha virt. eigenvalues --    2.43843   2.44306   2.44716   2.44919   2.45134
 Alpha virt. eigenvalues --    2.45726   2.45754   2.45814   2.47300   2.48435
 Alpha virt. eigenvalues --    2.48707   2.49658   2.49902   2.50480   2.50701
 Alpha virt. eigenvalues --    2.50916   2.51336   2.51847   2.52102   2.52507
 Alpha virt. eigenvalues --    2.52512   2.53790   2.53944   2.54149   2.54427
 Alpha virt. eigenvalues --    2.54672   2.55424   2.56006   2.56679   2.57529
 Alpha virt. eigenvalues --    2.58021   2.58871   2.58951   2.59525   2.60216
 Alpha virt. eigenvalues --    2.60299   2.60900   2.61061   2.61387   2.62256
 Alpha virt. eigenvalues --    2.62923   2.63088   2.63586   2.63931   2.64493
 Alpha virt. eigenvalues --    2.64937   2.64997   2.65206   2.65405   2.65490
 Alpha virt. eigenvalues --    2.65685   2.66306   2.66432   2.66800   2.66822
 Alpha virt. eigenvalues --    2.67395   2.67510   2.67518   2.67531   2.67894
 Alpha virt. eigenvalues --    2.68046   2.68090   2.68278   2.68361   2.68803
 Alpha virt. eigenvalues --    2.69199   2.69521   2.69758   2.69922   2.70124
 Alpha virt. eigenvalues --    2.70699   2.71049   2.71158   2.71385   2.71674
 Alpha virt. eigenvalues --    2.72234   2.72246   2.72530   2.73029   2.73326
 Alpha virt. eigenvalues --    2.73825   2.73903   2.74149   2.74344   2.74480
 Alpha virt. eigenvalues --    2.74507   2.74820   2.74922   2.75142   2.75194
 Alpha virt. eigenvalues --    2.75831   2.75988   2.76096   2.76186   2.76435
 Alpha virt. eigenvalues --    2.76473   2.76603   2.76913   2.76998   2.77161
 Alpha virt. eigenvalues --    2.77847   2.78002   2.78514   2.78911   2.78983
 Alpha virt. eigenvalues --    2.79393   2.79934   2.80121   2.80256   2.81011
 Alpha virt. eigenvalues --    2.81103   2.81308   2.81825   2.82040   2.82633
 Alpha virt. eigenvalues --    2.82875   2.82907   2.83149   2.83517   2.83976
 Alpha virt. eigenvalues --    2.84211   2.84437   2.84815   2.84870   2.85157
 Alpha virt. eigenvalues --    2.85483   2.85698   2.86067   2.86318   2.86784
 Alpha virt. eigenvalues --    2.86923   2.87228   2.87281   2.87849   2.88062
 Alpha virt. eigenvalues --    2.88248   2.88710   2.89158   2.89201   2.89685
 Alpha virt. eigenvalues --    2.90125   2.90497   2.91006   2.91751   2.91882
 Alpha virt. eigenvalues --    2.92670   2.92738   2.93899   2.93984   2.94159
 Alpha virt. eigenvalues --    2.94665   2.94941   2.94965   2.95003   2.95371
 Alpha virt. eigenvalues --    2.95660   2.95913   2.96174   2.96452   2.96469
 Alpha virt. eigenvalues --    2.96600   2.97501   2.97802   2.97861   2.98206
 Alpha virt. eigenvalues --    2.98612   2.98864   2.99396   2.99424   2.99759
 Alpha virt. eigenvalues --    2.99975   3.00139   3.00468   3.00633   3.01442
 Alpha virt. eigenvalues --    3.01633   3.02130   3.02943   3.03372   3.03727
 Alpha virt. eigenvalues --    3.04071   3.04448   3.04561   3.04706   3.04854
 Alpha virt. eigenvalues --    3.05201   3.05671   3.06222   3.06363   3.07143
 Alpha virt. eigenvalues --    3.07190   3.07335   3.07726   3.07861   3.08003
 Alpha virt. eigenvalues --    3.08226   3.08596   3.08758   3.09077   3.09229
 Alpha virt. eigenvalues --    3.09547   3.09899   3.10266   3.11177   3.11268
 Alpha virt. eigenvalues --    3.11835   3.12587   3.13076   3.13646   3.13894
 Alpha virt. eigenvalues --    3.14245   3.14608   3.14728   3.15002   3.15021
 Alpha virt. eigenvalues --    3.15086   3.15745   3.15827   3.16138   3.16539
 Alpha virt. eigenvalues --    3.16567   3.16963   3.17153   3.17299   3.17424
 Alpha virt. eigenvalues --    3.17740   3.17749   3.18383   3.18574   3.19161
 Alpha virt. eigenvalues --    3.19325   3.19498   3.19940   3.20107   3.20155
 Alpha virt. eigenvalues --    3.20332   3.20505   3.20647   3.20936   3.21198
 Alpha virt. eigenvalues --    3.21222   3.21409   3.21652   3.22038   3.22281
 Alpha virt. eigenvalues --    3.22739   3.23391   3.23421   3.23804   3.24254
 Alpha virt. eigenvalues --    3.24327   3.24543   3.25020   3.25247   3.25730
 Alpha virt. eigenvalues --    3.25849   3.25977   3.26240   3.26690   3.26795
 Alpha virt. eigenvalues --    3.27397   3.27698   3.28082   3.28237   3.28691
 Alpha virt. eigenvalues --    3.29161   3.29744   3.29859   3.30087   3.30294
 Alpha virt. eigenvalues --    3.30951   3.31111   3.31208   3.31848   3.32196
 Alpha virt. eigenvalues --    3.32401   3.32562   3.32980   3.33018   3.33527
 Alpha virt. eigenvalues --    3.33981   3.34366   3.34959   3.34997   3.35139
 Alpha virt. eigenvalues --    3.35532   3.35626   3.35805   3.35960   3.36161
 Alpha virt. eigenvalues --    3.36428   3.36885   3.37157   3.37529   3.37842
 Alpha virt. eigenvalues --    3.37919   3.38124   3.38528   3.38718   3.39035
 Alpha virt. eigenvalues --    3.39083   3.39622   3.39963   3.40126   3.40283
 Alpha virt. eigenvalues --    3.40513   3.40554   3.40919   3.41115   3.41450
 Alpha virt. eigenvalues --    3.41966   3.42144   3.42271   3.42372   3.42679
 Alpha virt. eigenvalues --    3.42906   3.43066   3.43769   3.43802   3.44129
 Alpha virt. eigenvalues --    3.44543   3.44547   3.45691   3.46169   3.46978
 Alpha virt. eigenvalues --    3.47315   3.47351   3.47511   3.47987   3.48300
 Alpha virt. eigenvalues --    3.48761   3.48840   3.49215   3.49247   3.49346
 Alpha virt. eigenvalues --    3.49620   3.50052   3.50332   3.50350   3.50694
 Alpha virt. eigenvalues --    3.50787   3.50917   3.51287   3.51465   3.51500
 Alpha virt. eigenvalues --    3.51763   3.52124   3.52137   3.52784   3.52926
 Alpha virt. eigenvalues --    3.53094   3.53314   3.53349   3.53829   3.54054
 Alpha virt. eigenvalues --    3.55138   3.55461   3.55633   3.55711   3.56454
 Alpha virt. eigenvalues --    3.56731   3.57072   3.57305   3.57543   3.57700
 Alpha virt. eigenvalues --    3.57957   3.58070   3.58165   3.58651   3.58776
 Alpha virt. eigenvalues --    3.58926   3.59478   3.59982   3.60023   3.60924
 Alpha virt. eigenvalues --    3.61074   3.61198   3.61472   3.61676   3.61737
 Alpha virt. eigenvalues --    3.62090   3.62381   3.62930   3.63279   3.63446
 Alpha virt. eigenvalues --    3.63774   3.64205   3.64411   3.65156   3.65812
 Alpha virt. eigenvalues --    3.65845   3.66661   3.66800   3.68329   3.68556
 Alpha virt. eigenvalues --    3.68674   3.69875   3.70193   3.71867   3.73427
 Alpha virt. eigenvalues --    3.73964   3.74712   3.76588   3.77171   3.78209
 Alpha virt. eigenvalues --    3.78306   3.78759   3.79221   3.79683   3.79739
 Alpha virt. eigenvalues --    3.80555   3.81113   3.81365   3.81556   3.81590
 Alpha virt. eigenvalues --    3.82606   3.83437   3.84862   3.85196   3.86172
 Alpha virt. eigenvalues --    3.86546   3.87047   3.87587   3.88379   3.89496
 Alpha virt. eigenvalues --    3.89684   3.90229   3.90932   3.91822   3.92608
 Alpha virt. eigenvalues --    3.93292   3.93835   3.94360   3.94565   3.94943
 Alpha virt. eigenvalues --    3.95249   3.95484   3.95570   3.95836   3.95936
 Alpha virt. eigenvalues --    3.96272   3.96297   3.96456   3.96805   3.97024
 Alpha virt. eigenvalues --    3.97067   3.97231   3.97573   3.98539   3.99069
 Alpha virt. eigenvalues --    3.99121   3.99907   4.00365   4.01055   4.01906
 Alpha virt. eigenvalues --    4.02579   4.02612   4.04092   4.04250   4.06578
 Alpha virt. eigenvalues --    4.06705   4.07598   4.07708   4.08178   4.08248
 Alpha virt. eigenvalues --    4.08388   4.08404   4.09103   4.09112   4.09603
 Alpha virt. eigenvalues --    4.09918   4.10144   4.10231   4.10404   4.10673
 Alpha virt. eigenvalues --    4.11392   4.12451   4.12798   4.13121   4.13144
 Alpha virt. eigenvalues --    4.13570   4.14601   4.14703   4.15114   4.15403
 Alpha virt. eigenvalues --    4.15732   4.16461   4.16762   4.16906   4.17196
 Alpha virt. eigenvalues --    4.17542   4.17605   4.17851   4.17919   4.18005
 Alpha virt. eigenvalues --    4.18326   4.18375   4.18683   4.19080   4.19220
 Alpha virt. eigenvalues --    4.19251   4.20478   4.21302   4.21694   4.21846
 Alpha virt. eigenvalues --    4.22988   4.23226   4.23503   4.24112   4.24658
 Alpha virt. eigenvalues --    4.25341   4.25509   4.26020   4.26784   4.26927
 Alpha virt. eigenvalues --    4.27406   4.27723   4.28145   4.28432   4.28995
 Alpha virt. eigenvalues --    4.29271   4.29577   4.29676   4.29982   4.30740
 Alpha virt. eigenvalues --    4.30765   4.32192   4.32432   4.32775   4.33550
 Alpha virt. eigenvalues --    4.33673   4.34559   4.34953   4.36592   4.37480
 Alpha virt. eigenvalues --    4.38108   4.39010   4.39400   4.39758   4.39982
 Alpha virt. eigenvalues --    4.40179   4.41136   4.42638   4.43203   4.45924
 Alpha virt. eigenvalues --    4.45972   4.46668   4.48382   4.49061   4.49093
 Alpha virt. eigenvalues --    4.50883   4.51348   4.51854   4.53125   4.53517
 Alpha virt. eigenvalues --    4.54314   4.54686   4.55251   4.55453   4.56023
 Alpha virt. eigenvalues --    4.56365   4.56575   4.56727   4.58259   4.59340
 Alpha virt. eigenvalues --    4.59655   4.60177   4.60759   4.62768   4.62844
 Alpha virt. eigenvalues --    4.64432   4.65183   4.66445   4.67077   4.67275
 Alpha virt. eigenvalues --    4.67295   4.67463   4.68244   4.68270   4.69431
 Alpha virt. eigenvalues --    4.69937   4.70228   4.71159   4.71706   4.71738
 Alpha virt. eigenvalues --    4.72686   4.74045   4.74643   4.75471   4.76079
 Alpha virt. eigenvalues --    4.76607   4.76663   4.77347   4.77535   4.77983
 Alpha virt. eigenvalues --    4.78521   4.79150   4.80083   4.80410   4.81002
 Alpha virt. eigenvalues --    4.81093   4.81785   4.83072   4.84927   4.85300
 Alpha virt. eigenvalues --    4.86833   4.86980   4.89217   4.91279   4.91423
 Alpha virt. eigenvalues --    4.91706   4.91845   4.92516   4.92723   4.94775
 Alpha virt. eigenvalues --    4.95131   4.96078   4.96128   4.98571   4.99893
 Alpha virt. eigenvalues --    5.00277   5.01585   5.02313   5.02867   5.02904
 Alpha virt. eigenvalues --    5.04046   5.04481   5.04799   5.06856   5.08877
 Alpha virt. eigenvalues --    5.09507   5.10855   5.12745   5.13098   5.13325
 Alpha virt. eigenvalues --    5.13899   5.14096   5.14720   5.15269   5.17665
 Alpha virt. eigenvalues --    5.18779   5.19578   5.19706   5.19949   5.21570
 Alpha virt. eigenvalues --    5.22616   5.27275   5.27439   5.27546   5.27722
 Alpha virt. eigenvalues --    5.29150   5.30004   5.30217   5.30842   5.31031
 Alpha virt. eigenvalues --    5.31316   5.31439   5.31474   5.32661   5.34043
 Alpha virt. eigenvalues --    5.36170   5.36895   5.38728   5.39734   5.40064
 Alpha virt. eigenvalues --    5.42444   5.47464   5.48283   5.48430   5.51778
 Alpha virt. eigenvalues --    5.52150   5.53916   5.54064   5.54664   5.54783
 Alpha virt. eigenvalues --    5.56270   5.56688   5.58328   5.59021   5.59888
 Alpha virt. eigenvalues --    5.60442   5.63095   5.65181   5.67946   5.68416
 Alpha virt. eigenvalues --    5.71553   5.72286   5.72453   5.73021   5.73844
 Alpha virt. eigenvalues --    5.74794   5.76112   5.76131   5.76834   5.77941
 Alpha virt. eigenvalues --    5.81121   5.85581   5.86670   5.88337   5.88921
 Alpha virt. eigenvalues --    5.96567   6.04165   6.08529   6.13766   6.17352
 Alpha virt. eigenvalues --    6.20175   6.21136   6.24970   6.36271   6.38337
 Alpha virt. eigenvalues --    6.41580   6.45183  10.87239  11.07796  11.50669
 Alpha virt. eigenvalues --   22.33763  22.35083  22.36655  22.58987  22.59010
 Alpha virt. eigenvalues --   22.59894  22.68301  22.71523  22.71795  22.71901
 Alpha virt. eigenvalues --   22.75694  22.75833  22.77442  22.77928  22.78283
 Alpha virt. eigenvalues --   22.78345  22.84891  22.85215  22.86252  22.86450
 Alpha virt. eigenvalues --   22.87360  22.87361  23.04015  23.04560  23.04622
 Alpha virt. eigenvalues --   23.06135  23.11999  23.12554  23.12893  23.23097
 Alpha virt. eigenvalues --   23.29771  23.31042  23.32676  23.33056  23.34832
 Alpha virt. eigenvalues --   23.63185  23.63975  23.64062  23.64697  23.87490
 Alpha virt. eigenvalues --   23.89052  23.89359  23.90375  24.01002  26.68954
 Alpha virt. eigenvalues --   32.41636  32.41643  33.48371  33.51091  33.51180
          Condensed to atoms (all electrons):
 Mulliken charges:
               1
     1  C    0.099325
     2  C   -0.056767
     3  C    0.098688
     4  C    0.175537
     5  C    0.100641
     6  C    0.178560
     7  C   -0.271889
     8  C   -0.273867
     9  N    0.013960
    10  N    0.014137
    11  N   -0.036864
    12  C    0.052366
    13  C    0.033713
    14  C   -0.250362
    15  C    0.090516
    16  C   -0.265174
    17  C    0.111342
    18  C   -0.172924
    19  H    0.215048
    20  C   -0.296184
    21  C   -0.179116
    22  H    0.229637
    23  C   -0.294225
    24  C   -0.189003
    25  H    0.185769
    26  H    0.183718
    27  C   -0.187577
    28  H    0.185372
    29  H    0.183435
    30  H    0.183290
    31  H    0.183142
    32  N   -0.037324
    33  C    0.033470
    34  C    0.050948
    35  C   -0.265343
    36  C    0.111545
    37  C   -0.249531
    38  C    0.090459
    39  C   -0.178665
    40  H    0.229831
    41  C   -0.294090
    42  C   -0.173207
    43  H    0.215810
    44  C   -0.296257
    45  C   -0.187884
    46  H    0.185380
    47  H    0.183445
    48  C   -0.188941
    49  H    0.185757
    50  H    0.183691
    51  H    0.183137
    52  H    0.183273
    53  N   -0.062723
    54  C    0.042481
    55  C    0.043899
    56  C   -0.264411
    57  C    0.100447
    58  C   -0.264834
    59  C    0.098864
    60  C   -0.176157
    61  H    0.233037
    62  C   -0.292082
    63  C   -0.177328
    64  H    0.234507
    65  C   -0.291823
    66  C   -0.188964
    67  H    0.184757
    68  H    0.183644
    69  C   -0.188699
    70  H    0.184768
    71  H    0.183573
    72  H    0.183194
    73  H    0.183191
    74  Cl   0.040914
 Sum of Mulliken charges =  -0.00000
 Mulliken charges with hydrogens summed into heavy atoms:
               1
     1  C    0.099325
     2  C   -0.056767
     3  C    0.098688
     4  C    0.175537
     5  C    0.100641
     6  C    0.178560
     7  C   -0.271889
     8  C   -0.273867
     9  N    0.013960
    10  N    0.014137
    11  N   -0.036864
    12  C    0.052366
    13  C    0.033713
    14  C   -0.035314
    15  C    0.090516
    16  C   -0.035536
    17  C    0.111342
    18  C    0.012845
    20  C   -0.112466
    21  C    0.006257
    23  C   -0.110790
    24  C   -0.005713
    27  C   -0.004435
    32  N   -0.037324
    33  C    0.033470
    34  C    0.050948
    35  C   -0.035512
    36  C    0.111545
    37  C   -0.033720
    38  C    0.090459
    39  C    0.006715
    41  C   -0.110645
    42  C    0.012550
    44  C   -0.112566
    45  C   -0.004747
    48  C   -0.005668
    53  N   -0.062723
    54  C    0.042481
    55  C    0.043899
    56  C   -0.031374
    57  C    0.100447
    58  C   -0.030327
    59  C    0.098864
    60  C    0.008599
    62  C   -0.108438
    63  C    0.007440
    65  C   -0.108250
    66  C   -0.005770
    69  C   -0.005509
    74  Cl   0.040914
 Electronic spatial extent (au):  <R**2>=          27738.2749
 Charge=              0.0000 electrons
 Dipole moment (field-independent basis, Debye):
    X=             -0.0053    Y=             -3.4877    Z=             -0.0163  Tot=              3.4877
 Quadrupole moment (field-independent basis, Debye-Ang):
   XX=           -297.1161   YY=           -283.9094   ZZ=           -266.4458
   XY=              0.1188   XZ=            -23.4647   YZ=              0.0007
 Traceless Quadrupole moment (field-independent basis, Debye-Ang):
   XX=            -14.6257   YY=             -1.4189   ZZ=             16.0446
   XY=              0.1188   XZ=            -23.4647   YZ=              0.0007
 Octapole moment (field-independent basis, Debye-Ang**2):
  XXX=             -1.5230  YYY=            145.3934  ZZZ=             -0.1939  XYY=              2.2736
  XXY=           -212.4303  XXZ=             -1.0171  XZZ=             -0.6827  YZZ=            -39.1325
  YYZ=              1.2348  XYZ=           -112.6217
 Hexadecapole moment (field-independent basis, Debye-Ang**3):
 XXXX=         -16182.4122 YYYY=         -14655.4067 ZZZZ=          -5347.7765 XXXY=              0.3146
 XXXZ=           -430.3476 YYYX=              2.4441 YYYZ=             -0.6186 ZZZX=           -201.1338
 ZZZY=              1.4466 XXYY=          -5336.2054 XXZZ=          -3508.2943 YYZZ=          -3300.0714
 XXYZ=             -0.3895 YYXZ=             -0.7643 ZZXY=              1.1685
 N-N= 6.278378284864D+03 E-N=-1.820919007199D+04  KE= 2.415094768984D+03
 Leave Link  601 at Sun Jul  3 06:02:28 2022, MaxMem=  5242880000 cpu:        14.4
 (Enter /opt/nce/packages/global/g09/l9999.exe)
 1\1\GINC-CN058\SP\RM062X TD-FC\def2TZVP\C44H24Cl1N5\PNG4RJV\03-Jul-202
 2\0\\#p m062x/def2TZVP td=(NStates=50) int=ultrafine scrf=(SMD,solvent
 =Acetonitrile)\\Title\\0,1\C,0,-1.199867,-0.73991,-0.176123\C,0,-0.002
 995,-1.438824,-0.010985\C,0,1.197916,-0.747943,0.16029\C,0,1.186053,0.
 652143,0.183034\C,0,0.005047,1.372668,-0.003089\C,0,-1.179941,0.659908
 ,-0.192864\C,0,2.400432,1.34859,0.485135\C,0,-2.391319,1.364931,-0.486
 483\N,0,3.371387,1.90395,0.737682\N,0,-3.359707,1.928147,-0.731303\N,0
 ,-2.414814,-1.409317,-0.355064\C,0,-2.777904,-2.173084,-1.465405\C,0,-
 3.495759,-1.357596,0.527345\C,0,-2.044192,-2.459571,-2.609779\C,0,-4.0
 96478,-2.626397,-1.286346\C,0,-3.589744,-0.718605,1.757223\C,0,-4.5542
 09,-2.10714,-0.013506\C,0,-2.659395,-3.237367,-3.577796\H,0,-1.036006,
 -2.088071,-2.745708\C,0,-4.693082,-3.406691,-2.274288\C,0,-4.788633,-0
 .838562,2.442237\H,0,-2.762072,-0.152016,2.166752\C,0,-5.747716,-2.216
 279,0.696498\C,0,-3.966724,-3.710574,-3.413473\H,0,-2.115248,-3.48112,
 -4.481394\H,0,-5.708527,-3.763,-2.151995\C,0,-5.857155,-1.577142,1.920
 439\H,0,-4.897642,-0.350628,3.402478\H,0,-6.573249,-2.791387,0.295422\
 H,0,-4.414089,-4.315779,-4.191226\H,0,-6.778202,-1.649301,2.484139\N,0
 ,2.406786,-1.42642,0.345806\C,0,3.497727,-1.381489,-0.52488\C,0,2.7519
 2,-2.19571,1.458266\C,0,3.61203,-0.739844,-1.751643\C,0,4.543511,-2.14
 2231,0.025403\C,0,2.003716,-2.477854,2.594227\C,0,4.068055,-2.660367,1
 .292021\C,0,4.817177,-0.869945,-2.423783\H,0,2.795253,-0.163567,-2.169
 061\C,0,5.743537,-2.261475,-0.671657\C,0,2.601488,-3.263596,3.566674\H
 ,0,0.997704,-2.097249,2.720488\C,0,4.647179,-3.448268,2.284195\C,0,5.8
 7263,-1.620621,-1.892684\H,0,4.941557,-0.380393,-3.381315\H,0,6.55862,
 -2.846025,-0.262958\C,0,3.906151,-3.748223,3.414928\H,0,2.045669,-3.50
 4768,4.463859\H,0,5.660683,-3.81328,2.171866\H,0,6.798914,-1.700516,-2
 .446642\H,0,4.340074,-4.359232,4.195737\N,0,0.00907,2.768894,0.000071\
 C,0,-0.701219,3.587822,0.885063\C,0,0.725779,3.582161,-0.884333\C,0,-1
 .520865,3.230489,1.948871\C,0,-0.435678,4.929863,0.564747\C,0,1.54108,
 3.216245,-1.948096\C,0,0.472603,4.92618,-0.563664\C,0,-2.091867,4.2582
 35,2.68254\H,0,-1.708089,2.194898,2.204913\C,0,-1.019462,5.945388,1.31
 8443\C,0,2.122076,4.238103,-2.682046\H,0,1.71613,2.177942,-2.201976\C,
 0,1.066454,5.935812,-1.317309\C,0,-1.849336,5.601112,2.372022\H,0,-2.7
 38209,4.012766,3.51557\H,0,-0.822117,6.983955,1.083024\C,0,1.892881,5.
 583324,-2.370897\H,0,2.765789,3.986562,-3.515255\H,0,0.879637,6.976366
 ,-1.082076\H,0,-2.313197,6.376485,2.967763\H,0,2.364494,6.354201,-2.96
 6358\Cl,0,-0.009316,-3.151152,-0.016896\\Version=ES64L-G09RevE.01\Stat
 e=1-A\HF=-2425.1200587\RMSD=3.375e-09\PG=C01 [X(C44H24Cl1N5)]\\@


 BULLDOZER: SOMEONE WHO SLEEPS THROUGH SPEECHES.
 Job cpu time:      18 days  0 hours 15 minutes 46.4 seconds.
 File lengths (MBytes):  RWF=  19619 Int=      0 D2E=      0 Chk=   4019 Scr=      1
 Normal termination of Gaussian 09 at Sun Jul  3 06:02:35 2022.
