 Entering Gaussian System, Link 0=g09
 Input=/home/png4rjv/fotokatalizis/benchmark/OPCs/CA_50_states/CA_3_TPSS_def2TZVP.gjf
 Output=/home/png4rjv/fotokatalizis/benchmark/OPCs/CA_50_states/CA_3_TPSS_def2TZVP.log
 Initial command:
 /opt/nce/packages/global/g09/l1.exe "/home/png4rjv/fotokatalizis/benchmark/OPCs/CA_50_states/CA_3_TPSS_def2TZVP/Gau-24082.inp" -scrdir="/home/png4rjv/fotokatalizis/benchmark/OPCs/CA_50_states/CA_3_TPSS_def2TZVP/"
 Default is to use a total of  12 processors:
                               12 via shared-memory
                                1 via Linda
 Entering Link 1 = /opt/nce/packages/global/g09/l1.exe PID=     24083.
  
 Copyright (c) 1988,1990,1992,1993,1995,1998,2003,2009,2015,
            Gaussian, Inc.  All Rights Reserved.
  
 This is part of the Gaussian(R) 09 program.  It is based on
 the Gaussian(R) 03 system (copyright 2003, Gaussian, Inc.),
 the Gaussian(R) 98 system (copyright 1998, Gaussian, Inc.),
 the Gaussian(R) 94 system (copyright 1995, Gaussian, Inc.),
 the Gaussian 92(TM) system (copyright 1992, Gaussian, Inc.),
 the Gaussian 90(TM) system (copyright 1990, Gaussian, Inc.),
 the Gaussian 88(TM) system (copyright 1988, Gaussian, Inc.),
 the Gaussian 86(TM) system (copyright 1986, Carnegie Mellon
 University), and the Gaussian 82(TM) system (copyright 1983,
 Carnegie Mellon University). Gaussian is a federally registered
 trademark of Gaussian, Inc.
  
 This software contains proprietary and confidential information,
 including trade secrets, belonging to Gaussian, Inc.
  
 This software is provided under written license and may be
 used, copied, transmitted, or stored only in accord with that
 written license.
  
 The following legend is applicable only to US Government
 contracts under FAR:
  
                    RESTRICTED RIGHTS LEGEND
  
 Use, reproduction and disclosure by the US Government is
 subject to restrictions as set forth in subparagraphs (a)
 and (c) of the Commercial Computer Software - Restricted
 Rights clause in FAR 52.227-19.
  
 Gaussian, Inc.
 340 Quinnipiac St., Bldg. 40, Wallingford CT 06492
  
  
 ---------------------------------------------------------------
 Warning -- This program may not be used in any manner that
 competes with the business of Gaussian, Inc. or will provide
 assistance to any competitor of Gaussian, Inc.  The licensee
 of this program is prohibited from giving any competitor of
 Gaussian, Inc. access to this program.  By using this program,
 the user acknowledges that Gaussian, Inc. is engaged in the
 business of creating and licensing software in the field of
 computational chemistry and represents and warrants to the
 licensee that it is not a competitor of Gaussian, Inc. and that
 it will not use this program in any manner prohibited above.
 ---------------------------------------------------------------
  

 Cite this work as:
 Gaussian 09, Revision E.01,
 M. J. Frisch, G. W. Trucks, H. B. Schlegel, G. E. Scuseria, 
 M. A. Robb, J. R. Cheeseman, G. Scalmani, V. Barone, B. Mennucci, 
 G. A. Petersson, H. Nakatsuji, M. Caricato, X. Li, H. P. Hratchian, 
 A. F. Izmaylov, J. Bloino, G. Zheng, J. L. Sonnenberg, M. Hada, 
 M. Ehara, K. Toyota, R. Fukuda, J. Hasegawa, M. Ishida, T. Nakajima, 
 Y. Honda, O. Kitao, H. Nakai, T. Vreven, J. A. Montgomery, Jr., 
 J. E. Peralta, F. Ogliaro, M. Bearpark, J. J. Heyd, E. Brothers, 
 K. N. Kudin, V. N. Staroverov, T. Keith, R. Kobayashi, J. Normand, 
 K. Raghavachari, A. Rendell, J. C. Burant, S. S. Iyengar, J. Tomasi, 
 M. Cossi, N. Rega, J. M. Millam, M. Klene, J. E. Knox, J. B. Cross, 
 V. Bakken, C. Adamo, J. Jaramillo, R. Gomperts, R. E. Stratmann, 
 O. Yazyev, A. J. Austin, R. Cammi, C. Pomelli, J. W. Ochterski, 
 R. L. Martin, K. Morokuma, V. G. Zakrzewski, G. A. Voth, 
 P. Salvador, J. J. Dannenberg, S. Dapprich, A. D. Daniels, 
 O. Farkas, J. B. Foresman, J. V. Ortiz, J. Cioslowski, 
 and D. J. Fox, Gaussian, Inc., Wallingford CT, 2013.
 
 ******************************************
 Gaussian 09:  ES64L-G09RevE.01 30-Nov-2015
                 1-Jul-2022 
 ******************************************
 %chk=cp.chk
 Default route:  MaxDisk=500GB
 ----------------------------------------------------------------------
 #p TPSSTPSS/def2TZVP td=(NStates=50) int=ultrafine scrf=(SMD,solvent=A
 cetonitrile)
 ----------------------------------------------------------------------
 1/38=1/1;
 2/12=2,17=6,18=5,40=1/2;
 3/5=44,7=101,11=9,16=1,25=1,30=1,70=32201,72=2,74=2523,75=-5/1,2,8,3;
 4//1;
 5/5=2,38=5,53=2/2;
 8/6=1,10=1,108=50/1;
 9/41=50,42=1,70=2/14;
 6/7=2,8=2,9=2,10=2/1;
 99/5=1,9=1/99;
 Leave Link    1 at Fri Jul  1 23:23:23 2022, MaxMem=           0 cpu:         1.0
 (Enter /opt/nce/packages/global/g09/l101.exe)
 -----
 Title
 -----
 Symbolic Z-matrix:
 Charge =  0 Multiplicity = 1
 C                     1.31719  -0.47714   0.16061 
 C                     0.24271  -1.3702    0.02194 
 C                    -1.0709   -0.89734  -0.13649 
 C                    -1.29907   0.49585  -0.16696 
 C                    -0.24211   1.4118   -0.00721 
 C                     1.06272   0.91138   0.16217 
 C                    -2.6136    0.97885  -0.4412 
 C                     2.13909   1.81429   0.41085 
 N                    -3.67839   1.37307  -0.68624 
 N                     3.01034   2.54981   0.63267 
 N                     2.63688  -0.94354   0.34158 
 C                     3.15011  -1.51322   1.51914 
 C                     3.64956  -0.93731  -0.63407 
 C                     2.52022  -1.70983   2.74856 
 C                     4.50501  -1.86668   1.29588 
 C                     3.59569  -0.4999   -1.95787 
 C                     4.82101  -1.50384  -0.07026 
 C                     3.27573  -2.28832   3.76834 
 H                     1.48499  -1.42393   2.91044 
 C                     5.24139  -2.44283   2.34002 
 C                     4.75727  -0.62384  -2.72022 
 H                     2.68867  -0.08106  -2.38329 
 C                     5.973    -1.61798  -0.86036 
 C                     4.61924  -2.65247   3.56881 
 H                     2.81364  -2.45754   4.73722 
 H                     6.28205  -2.7192    2.19256 
 C                     5.93334  -1.1733   -2.18005 
 H                     4.74835  -0.28942  -3.75413 
 H                     6.88155  -2.05001  -0.44925 
 H                     5.17776  -3.09983   4.38642 
 H                     6.81953  -1.25508  -2.80342 
 N                    -2.15158  -1.78552  -0.3109 
 C                    -3.1549   -2.0586    0.63702 
 C                    -2.39901  -2.5546   -1.46137 
 C                    -3.30833  -1.55442   1.92874 
 C                    -4.04789  -3.01151   0.08474 
 C                    -1.6911   -2.5919   -2.66306 
 C                    -3.57084  -3.32291  -1.24714 
 C                    -4.39736  -2.01389   2.66958 
 H                    -2.61119  -0.8343    2.34604 
 C                    -5.13158  -3.45808   0.853 
 C                    -2.17292  -3.4373   -3.66239 
 H                    -0.8031   -1.98697  -2.82106 
 C                    -4.03442  -4.16121  -2.27015 
 C                    -5.30026  -2.95254   2.14021 
 H                    -4.54604  -1.63775   3.67817 
 H                    -5.82696  -4.18975   0.45032 
 C                    -3.32853  -4.21499  -3.47008 
 H                    -1.64295  -3.49118  -4.60955 
 H                    -4.9326   -4.75665  -2.1295 
 H                    -6.13672  -3.28949   2.74629 
 H                    -3.67638  -4.86098  -4.27148 
 N                    -0.48569   2.79932  -0.01916 
 C                    -0.05877   3.70336  -1.01151 
 C                    -1.20662   3.51426   0.95698 
 C                     0.65251   3.45365  -2.18553 
 C                    -0.5122    5.00057  -0.66415 
 C                    -1.78958   3.0515    2.13696 
 C                    -1.23623   4.88131   0.58456 
 C                     0.92593   4.54318  -3.01247 
 H                     0.98144   2.4544   -2.45365 
 C                    -0.22589   6.07682  -1.51477 
 C                    -2.43115   3.99025   2.9449 
 H                    -1.74663   2.00529   2.4234 
 C                    -1.88528   5.80363   1.41639 
 C                     0.49601   5.84021  -2.68236 
 H                     1.48138   4.38088  -3.9322 
 H                    -0.56633   7.07884  -1.26774 
 C                    -2.48264   5.34954   2.59003 
 H                    -2.89779   3.6599    3.86894 
 H                    -1.91771   6.85676   1.15027 
 H                     0.72616   6.66532  -3.35078 
 H                    -2.99039   6.05309   3.24403 
 Cl                    0.53936  -3.06876   0.05105 
 
 NAtoms=     74 NQM=       74 NQMF=       0 NMMI=      0 NMMIF=      0
                NMic=       0 NMicF=      0.
                    Isotopes and Nuclear Properties:
 (Nuclear quadrupole moments (NQMom) in fm**2, nuclear magnetic moments (NMagM)
  in nuclear magnetons)

  Atom         1           2           3           4           5           6           7           8           9          10
 IAtWgt=          12          12          12          12          12          12          12          12          14          14
 AtmWgt=  12.0000000  12.0000000  12.0000000  12.0000000  12.0000000  12.0000000  12.0000000  12.0000000  14.0030740  14.0030740
 NucSpn=           0           0           0           0           0           0           0           0           2           2
 AtZEff=   0.0000000   0.0000000   0.0000000   0.0000000   0.0000000   0.0000000   0.0000000   0.0000000   0.0000000   0.0000000
 NQMom=    0.0000000   0.0000000   0.0000000   0.0000000   0.0000000   0.0000000   0.0000000   0.0000000   2.0440000   2.0440000
 NMagM=    0.0000000   0.0000000   0.0000000   0.0000000   0.0000000   0.0000000   0.0000000   0.0000000   0.4037610   0.4037610
 AtZNuc=   6.0000000   6.0000000   6.0000000   6.0000000   6.0000000   6.0000000   6.0000000   6.0000000   7.0000000   7.0000000

  Atom        11          12          13          14          15          16          17          18          19          20
 IAtWgt=          14          12          12          12          12          12          12          12           1          12
 AtmWgt=  14.0030740  12.0000000  12.0000000  12.0000000  12.0000000  12.0000000  12.0000000  12.0000000   1.0078250  12.0000000
 NucSpn=           2           0           0           0           0           0           0           0           1           0
 AtZEff=   0.0000000   0.0000000   0.0000000   0.0000000   0.0000000   0.0000000   0.0000000   0.0000000   0.0000000   0.0000000
 NQMom=    2.0440000   0.0000000   0.0000000   0.0000000   0.0000000   0.0000000   0.0000000   0.0000000   0.0000000   0.0000000
 NMagM=    0.4037610   0.0000000   0.0000000   0.0000000   0.0000000   0.0000000   0.0000000   0.0000000   2.7928460   0.0000000
 AtZNuc=   7.0000000   6.0000000   6.0000000   6.0000000   6.0000000   6.0000000   6.0000000   6.0000000   1.0000000   6.0000000

  Atom        21          22          23          24          25          26          27          28          29          30
 IAtWgt=          12           1          12          12           1           1          12           1           1           1
 AtmWgt=  12.0000000   1.0078250  12.0000000  12.0000000   1.0078250   1.0078250  12.0000000   1.0078250   1.0078250   1.0078250
 NucSpn=           0           1           0           0           1           1           0           1           1           1
 AtZEff=   0.0000000   0.0000000   0.0000000   0.0000000   0.0000000   0.0000000   0.0000000   0.0000000   0.0000000   0.0000000
 NQMom=    0.0000000   0.0000000   0.0000000   0.0000000   0.0000000   0.0000000   0.0000000   0.0000000   0.0000000   0.0000000
 NMagM=    0.0000000   2.7928460   0.0000000   0.0000000   2.7928460   2.7928460   0.0000000   2.7928460   2.7928460   2.7928460
 AtZNuc=   6.0000000   1.0000000   6.0000000   6.0000000   1.0000000   1.0000000   6.0000000   1.0000000   1.0000000   1.0000000

  Atom        31          32          33          34          35          36          37          38          39          40
 IAtWgt=           1          14          12          12          12          12          12          12          12           1
 AtmWgt=   1.0078250  14.0030740  12.0000000  12.0000000  12.0000000  12.0000000  12.0000000  12.0000000  12.0000000   1.0078250
 NucSpn=           1           2           0           0           0           0           0           0           0           1
 AtZEff=   0.0000000   0.0000000   0.0000000   0.0000000   0.0000000   0.0000000   0.0000000   0.0000000   0.0000000   0.0000000
 NQMom=    0.0000000   2.0440000   0.0000000   0.0000000   0.0000000   0.0000000   0.0000000   0.0000000   0.0000000   0.0000000
 NMagM=    2.7928460   0.4037610   0.0000000   0.0000000   0.0000000   0.0000000   0.0000000   0.0000000   0.0000000   2.7928460
 AtZNuc=   1.0000000   7.0000000   6.0000000   6.0000000   6.0000000   6.0000000   6.0000000   6.0000000   6.0000000   1.0000000

  Atom        41          42          43          44          45          46          47          48          49          50
 IAtWgt=          12          12           1          12          12           1           1          12           1           1
 AtmWgt=  12.0000000  12.0000000   1.0078250  12.0000000  12.0000000   1.0078250   1.0078250  12.0000000   1.0078250   1.0078250
 NucSpn=           0           0           1           0           0           1           1           0           1           1
 AtZEff=   0.0000000   0.0000000   0.0000000   0.0000000   0.0000000   0.0000000   0.0000000   0.0000000   0.0000000   0.0000000
 NQMom=    0.0000000   0.0000000   0.0000000   0.0000000   0.0000000   0.0000000   0.0000000   0.0000000   0.0000000   0.0000000
 NMagM=    0.0000000   0.0000000   2.7928460   0.0000000   0.0000000   2.7928460   2.7928460   0.0000000   2.7928460   2.7928460
 AtZNuc=   6.0000000   6.0000000   1.0000000   6.0000000   6.0000000   1.0000000   1.0000000   6.0000000   1.0000000   1.0000000

  Atom        51          52          53          54          55          56          57          58          59          60
 IAtWgt=           1           1          14          12          12          12          12          12          12          12
 AtmWgt=   1.0078250   1.0078250  14.0030740  12.0000000  12.0000000  12.0000000  12.0000000  12.0000000  12.0000000  12.0000000
 NucSpn=           1           1           2           0           0           0           0           0           0           0
 AtZEff=   0.0000000   0.0000000   0.0000000   0.0000000   0.0000000   0.0000000   0.0000000   0.0000000   0.0000000   0.0000000
 NQMom=    0.0000000   0.0000000   2.0440000   0.0000000   0.0000000   0.0000000   0.0000000   0.0000000   0.0000000   0.0000000
 NMagM=    2.7928460   2.7928460   0.4037610   0.0000000   0.0000000   0.0000000   0.0000000   0.0000000   0.0000000   0.0000000
 AtZNuc=   1.0000000   1.0000000   7.0000000   6.0000000   6.0000000   6.0000000   6.0000000   6.0000000   6.0000000   6.0000000

  Atom        61          62          63          64          65          66          67          68          69          70
 IAtWgt=           1          12          12           1          12          12           1           1          12           1
 AtmWgt=   1.0078250  12.0000000  12.0000000   1.0078250  12.0000000  12.0000000   1.0078250   1.0078250  12.0000000   1.0078250
 NucSpn=           1           0           0           1           0           0           1           1           0           1
 AtZEff=   0.0000000   0.0000000   0.0000000   0.0000000   0.0000000   0.0000000   0.0000000   0.0000000   0.0000000   0.0000000
 NQMom=    0.0000000   0.0000000   0.0000000   0.0000000   0.0000000   0.0000000   0.0000000   0.0000000   0.0000000   0.0000000
 NMagM=    2.7928460   0.0000000   0.0000000   2.7928460   0.0000000   0.0000000   2.7928460   2.7928460   0.0000000   2.7928460
 AtZNuc=   1.0000000   6.0000000   6.0000000   1.0000000   6.0000000   6.0000000   1.0000000   1.0000000   6.0000000   1.0000000

  Atom        71          72          73          74
 IAtWgt=           1           1           1          35
 AtmWgt=   1.0078250   1.0078250   1.0078250  34.9688527
 NucSpn=           1           1           1           3
 AtZEff=   0.0000000   0.0000000   0.0000000   0.0000000
 NQMom=    0.0000000   0.0000000   0.0000000  -8.1650000
 NMagM=    2.7928460   2.7928460   2.7928460   0.8218740
 AtZNuc=   1.0000000   1.0000000   1.0000000  17.0000000
 Leave Link  101 at Fri Jul  1 23:23:23 2022, MaxMem=  5242880000 cpu:         1.1
 (Enter /opt/nce/packages/global/g09/l202.exe)
 Stoichiometry    C44H24ClN5
 Framework group  C1[X(C44H24ClN5)]
 Deg. of freedom   216
 Full point group                 C1      NOp   1
 Largest Abelian subgroup         C1      NOp   1
 Largest concise Abelian subgroup C1      NOp   1
                         Standard orientation:                         
 ---------------------------------------------------------------------
 Center     Atomic      Atomic             Coordinates (Angstroms)
 Number     Number       Type             X           Y           Z
 ---------------------------------------------------------------------
      1          6           0        1.317187   -0.477140    0.160609
      2          6           0        0.242704   -1.370199    0.021936
      3          6           0       -1.070902   -0.897340   -0.136485
      4          6           0       -1.299065    0.495853   -0.166957
      5          6           0       -0.242106    1.411804   -0.007207
      6          6           0        1.062724    0.911374    0.162169
      7          6           0       -2.613595    0.978853   -0.441196
      8          6           0        2.139089    1.814286    0.410845
      9          7           0       -3.678389    1.373073   -0.686239
     10          7           0        3.010339    2.549803    0.632667
     11          7           0        2.636876   -0.943545    0.341578
     12          6           0        3.150113   -1.513226    1.519138
     13          6           0        3.649557   -0.937315   -0.634072
     14          6           0        2.520221   -1.709835    2.748557
     15          6           0        4.505004   -1.866682    1.295878
     16          6           0        3.595690   -0.499906   -1.957869
     17          6           0        4.821009   -1.503847   -0.070262
     18          6           0        3.275725   -2.288320    3.768341
     19          1           0        1.484984   -1.423927    2.910438
     20          6           0        5.241386   -2.442834    2.340023
     21          6           0        4.757273   -0.623839   -2.720215
     22          1           0        2.688668   -0.081065   -2.383293
     23          6           0        5.973003   -1.617987   -0.860362
     24          6           0        4.619241   -2.652468    3.568813
     25          1           0        2.813641   -2.457539    4.737218
     26          1           0        6.282045   -2.719202    2.192555
     27          6           0        5.933340   -1.173304   -2.180052
     28          1           0        4.748348   -0.289427   -3.754125
     29          1           0        6.881547   -2.050011   -0.449252
     30          1           0        5.177758   -3.099834    4.386424
     31          1           0        6.819528   -1.255087   -2.803419
     32          7           0       -2.151580   -1.785520   -0.310900
     33          6           0       -3.154897   -2.058595    0.637019
     34          6           0       -2.399009   -2.554594   -1.461370
     35          6           0       -3.308327   -1.554420    1.928736
     36          6           0       -4.047896   -3.011505    0.084739
     37          6           0       -1.691105   -2.591898   -2.663055
     38          6           0       -3.570841   -3.322904   -1.247141
     39          6           0       -4.397360   -2.013890    2.669580
     40          1           0       -2.611194   -0.834295    2.346042
     41          6           0       -5.131580   -3.458076    0.852996
     42          6           0       -2.172920   -3.437295   -3.662386
     43          1           0       -0.803103   -1.986970   -2.821064
     44          6           0       -4.034422   -4.161208   -2.270148
     45          6           0       -5.300260   -2.952541    2.140206
     46          1           0       -4.546040   -1.637747    3.678168
     47          1           0       -5.826959   -4.189744    0.450318
     48          6           0       -3.328532   -4.214991   -3.470078
     49          1           0       -1.642954   -3.491174   -4.609546
     50          1           0       -4.932602   -4.756645   -2.129499
     51          1           0       -6.136726   -3.289487    2.746289
     52          1           0       -3.676386   -4.860982   -4.271479
     53          7           0       -0.485690    2.799322   -0.019162
     54          6           0       -0.058768    3.703356   -1.011509
     55          6           0       -1.206621    3.514264    0.956979
     56          6           0        0.652512    3.453654   -2.185531
     57          6           0       -0.512201    5.000570   -0.664151
     58          6           0       -1.789573    3.051501    2.136964
     59          6           0       -1.236228    4.881308    0.584556
     60          6           0        0.925930    4.543181   -3.012469
     61          1           0        0.981439    2.454394   -2.453652
     62          6           0       -0.225888    6.076816   -1.514774
     63          6           0       -2.431149    3.990246    2.944903
     64          1           0       -1.746628    2.005296    2.423395
     65          6           0       -1.885281    5.803626    1.416392
     66          6           0        0.496009    5.840213   -2.682359
     67          1           0        1.481379    4.380878   -3.932198
     68          1           0       -0.566323    7.078842   -1.267740
     69          6           0       -2.482632    5.349538    2.590026
     70          1           0       -2.897785    3.659901    3.868941
     71          1           0       -1.917704    6.856764    1.150268
     72          1           0        0.726162    6.665315   -3.350782
     73          1           0       -2.990386    6.053096    3.244028
     74         17           0        0.539356   -3.068765    0.051048
 ---------------------------------------------------------------------
 Rotational constants (GHZ):      0.0609690      0.0597862      0.0413195
 Leave Link  202 at Fri Jul  1 23:23:23 2022, MaxMem=  5242880000 cpu:         0.1
 (Enter /opt/nce/packages/global/g09/l301.exe)
 Standard basis: def2TZVP (5D, 7F)
 Ernie: Thresh=  0.10000D-02 Tol=  0.10000D-05 Strict=F.
 There are  1950 symmetry adapted cartesian basis functions of A   symmetry.
 There are  1700 symmetry adapted basis functions of A   symmetry.
  1700 basis functions,  2760 primitive gaussians,  1950 cartesian basis functions
   170 alpha electrons      170 beta electrons
       nuclear repulsion energy      6219.7942903321 Hartrees.
 IExCor= 2523 DFT=T Ex=TPSS Corr=TPSS ExCW=0 ScaHFX=  0.000000
 ScaDFX=  1.000000  1.000000  1.000000  1.000000 ScalE2=  1.000000  1.000000
 IRadAn=      5 IRanWt=     -1 IRanGd=            0 ICorTp=0 IEmpDi=  4
 NAtoms=   74 NActive=   74 NUniq=   74 SFac= 1.00D+00 NAtFMM=   60 NAOKFM=T Big=T
 Integral buffers will be    131072 words long.
 Regular integral format.
 Two-electron integral symmetry is turned on.
 ------------------------------------------------------------------------------
 Polarizable Continuum Model (PCM)
 =================================
 Model                : PCM (using non-symmetric T matrix).
 Atomic radii         : SMD-Coulomb.
 Polarization charges : Total charges.
 Charge compensation  : None.
 Solution method      : On-the-fly selection.
 Cavity type          : VdW (van der Waals Surface) (Alpha=1.000).
 Cavity algorithm     : GePol (No added spheres)
                        Default sphere list used, NSphG=   74.
                        Lebedev-Laikov grids with approx.  5.0 points / Ang**2.
                        Smoothing algorithm: York/Karplus (Gamma=1.0000).
                        Polarization charges: spherical gaussians, with
                                              point-specific exponents (IZeta= 3).
                        Self-potential: point-specific (ISelfS= 7).
                        Self-field    : sphere-specific E.n sum rule (ISelfD= 2).
 Solvent              : Acetonitrile, Eps=  35.688000 Eps(inf)=   1.806874
 ------------------------------------------------------------------------------
 GePol: Number of generator spheres                  =      74
 GePol: Total number of spheres                      =      74
 GePol: Number of exposed spheres                    =      74 (100.00%)
 GePol: Number of points                             =    6016
 GePol: Average weight of points                     =       0.11
 GePol: Minimum weight of points                     =   0.14D-11
 GePol: Maximum weight of points                     =    0.18138
 GePol: Number of points with low weight             =     359
 GePol: Fraction of low-weight points (<1% of avg)   =       5.97%
 GePol: Cavity surface area                          =    651.626 Ang**2
 GePol: Cavity volume                                =    663.990 Ang**3
 ------------------------------------------------------------------------------
 Atomic radii for non-electrostatic terms: SMD-CDS.
 ------------------------------------------------------------------------------
 PCM non-electrostatic energy =        -0.0135797112 Hartrees.
 Nuclear repulsion after PCM non-electrostatic terms =     6219.7807106210 Hartrees.
 Leave Link  301 at Fri Jul  1 23:23:23 2022, MaxMem=  5242880000 cpu:         2.8
 (Enter /opt/nce/packages/global/g09/l302.exe)
 NPDir=0 NMtPBC=     1 NCelOv=     1 NCel=       1 NClECP=     1 NCelD=      1
         NCelK=      1 NCelE2=     1 NClLst=     1 CellRange=     0.0.
 One-electron integrals computed using PRISM.
   1 Symmetry operations used in ECPInt.
 ECPInt:  NShTT=  210276 NPrTT=  664162 LenC2=  154602 LenP2D=  315572.
 LDataN:  DoStor=T MaxTD1= 6 Len=  172
 NBasis=  1700 RedAO= T EigKep=  1.73D-06  NBF=  1700
 NBsUse=  1700 1.00D-06 EigRej= -1.00D+00 NBFU=  1700
 Precomputing XC quadrature grid using
 IXCGrd= 4 IRadAn=           5 IRanWt=          -1 IRanGd=           0 AccXCQ= 0.00D+00.
 Generated NRdTot=       0 NPtTot=           0 NUsed=           0 NTot=          32
 NSgBfM=  1843  1849  1850  1850  1850 MxSgAt=    74 MxSgA2=    74.
 Leave Link  302 at Fri Jul  1 23:23:31 2022, MaxMem=  5242880000 cpu:        87.0
 (Enter /opt/nce/packages/global/g09/l308.exe)
 Leave Link  308 at Fri Jul  1 23:23:32 2022, MaxMem=  5242880000 cpu:        12.2
 (Enter /opt/nce/packages/global/g09/l303.exe)
 DipDrv:  MaxL=1.
 Leave Link  303 at Fri Jul  1 23:23:32 2022, MaxMem=  5242880000 cpu:         6.6
 (Enter /opt/nce/packages/global/g09/l401.exe)
 ExpMin= 9.52D-02 ExpMax= 6.95D+04 ExpMxC= 2.37D+03 IAcc=3 IRadAn=         5 AccDes= 0.00D+00
 Harris functional with IExCor= 1009 and IRadAn=       5 diagonalized for initial guess.
 HarFok:  IExCor= 1009 AccDes= 0.00D+00 IRadAn=         5 IDoV= 1 UseB2=F ITyADJ=14
 ICtDFT=  3500011 ScaDFX=  1.000000  1.000000  1.000000  1.000000
 FoFCou: FMM=F IPFlag=           0 FMFlag=      100000 FMFlg1=        2001
         NFxFlg=           0 DoJE=T BraDBF=F KetDBF=T FulRan=T
         wScrn=  0.000000 ICntrl=     500 IOpCl=  0 I1Cent=   200000004 NGrid=           0
         NMat0=    1 NMatS0=      1 NMatT0=    0 NMatD0=    1 NMtDS0=    0 NMtDT0=    0
 Petite list used in FoFCou.
 Harris En= -2423.79937130396    
 JPrj=0 DoOrth=F DoCkMO=F.
 Leave Link  401 at Fri Jul  1 23:23:56 2022, MaxMem=  5242880000 cpu:       286.8
 (Enter /opt/nce/packages/global/g09/l502.exe)
 Closed shell SCF:
 Using DIIS extrapolation, IDIIS=  1040.
 Integral symmetry usage will be decided dynamically.
 IVT=    11463646 IEndB=    11463646 NGot=  5242880000 MDV=  5235237445
 LenX=  5235237445 LenY=  5231432995
 Requested convergence on RMS density matrix=1.00D-08 within 128 cycles.
 Requested convergence on MAX density matrix=1.00D-06.
 Requested convergence on             energy=1.00D-06.
 No special actions if energy rises.
 Fock matrices will be formed incrementally for  20 cycles.

 Cycle   1  Pass 1  IDiag  1:
 FoFJK:  IHMeth= 1 ICntrl=     500 DoSepK=F KAlg= 0 I1Cent=   0 FoldK=F
 IRaf= 670000000 NMat=   1 IRICut=       1 DoRegI=T DoRafI=F ISym2E= 0.
 FoFCou: FMM=T IPFlag=           0 FMFlag=      100000 FMFlg1=        2001
         NFxFlg=           0 DoJE=T BraDBF=F KetDBF=F FulRan=T
         wScrn=  0.000000 ICntrl=     500 IOpCl=  0 I1Cent=           0 NGrid=           0
         NMat0=    1 NMatS0=      1 NMatT0=    0 NMatD0=    1 NMtDS0=    0 NMtDT0=    0
 Symmetry not used in FoFCou.
 FMM levels:  10  Number of levels for PrismC:   9
 Inv3:  Mode=1 IEnd=   108576768.
 Iteration    1 A*A^-1 deviation from unit magnitude is 7.55D-15 for   6008.
 Iteration    1 A*A^-1 deviation from orthogonality  is 3.33D-15 for   5122   4714.
 Iteration    1 A^-1*A deviation from unit magnitude is 7.22D-15 for   6008.
 Iteration    1 A^-1*A deviation from orthogonality  is 3.65D-10 for   1315   1275.
 Iteration    2 A*A^-1 deviation from unit magnitude is 2.89D-15 for    131.
 Iteration    2 A*A^-1 deviation from orthogonality  is 3.60D-15 for   4735    991.
 Iteration    2 A^-1*A deviation from unit magnitude is 8.88D-16 for    102.
 Iteration    2 A^-1*A deviation from orthogonality  is 4.44D-16 for   5763   2002.
 E= -2425.37323132881    
 DIIS: error= 2.02D-02 at cycle   1 NSaved=   1.
 NSaved= 1 IEnMin= 1 EnMin= -2425.37323132881     IErMin= 1 ErrMin= 2.02D-02
 ErrMax= 2.02D-02  0.00D+00 EMaxC= 1.00D-01 BMatC= 9.71D-01 BMatP= 9.71D-01
 IDIUse=3 WtCom= 7.98D-01 WtEn= 2.02D-01
 Coeff-Com:  0.100D+01
 Coeff-En:   0.100D+01
 Coeff:      0.100D+01
 Gap=     0.338 Goal=   None    Shift=    0.000
 GapD=    0.338 DampG=1.000 DampE=0.500 DampFc=0.5000 IDamp=-1.
 Damping current iteration by 5.00D-01
 RMSDP=3.53D-03 MaxDP=5.88D-01              OVMax= 3.97D-01

 Cycle   2  Pass 1  IDiag  1:
 RMSU=  1.76D-03    CP:  9.97D-01
 E= -2425.56558271213     Delta-E=       -0.192351383312 Rises=F Damp=T
 DIIS: error= 7.64D-03 at cycle   2 NSaved=   2.
 NSaved= 2 IEnMin= 2 EnMin= -2425.56558271213     IErMin= 2 ErrMin= 7.64D-03
 ErrMax= 7.64D-03  0.00D+00 EMaxC= 1.00D-01 BMatC= 2.01D-01 BMatP= 9.71D-01
 IDIUse=3 WtCom= 9.24D-01 WtEn= 7.64D-02
 Coeff-Com:  0.193D+00 0.807D+00
 Coeff-En:   0.381D+00 0.619D+00
 Coeff:      0.208D+00 0.792D+00
 Gap=     0.126 Goal=   None    Shift=    0.000
 RMSDP=1.85D-03 MaxDP=4.18D-01 DE=-1.92D-01 OVMax= 4.01D-01

 Cycle   3  Pass 1  IDiag  1:
 RMSU=  1.25D-03    CP:  8.59D-01  3.33D-01
 E= -2425.87764615319     Delta-E=       -0.312063441061 Rises=F Damp=F
 DIIS: error= 1.51D-02 at cycle   3 NSaved=   3.
 NSaved= 3 IEnMin= 3 EnMin= -2425.87764615319     IErMin= 2 ErrMin= 7.64D-03
 ErrMax= 1.51D-02  0.00D+00 EMaxC= 1.00D-01 BMatC= 3.59D-01 BMatP= 2.01D-01
 IDIUse=2 WtCom= 0.00D+00 WtEn= 1.00D+00
 Coeff-En:   0.000D+00 0.275D+00 0.725D+00
 Coeff:      0.000D+00 0.275D+00 0.725D+00
 Gap=     0.071 Goal=   None    Shift=    0.000
 RMSDP=2.14D-03 MaxDP=4.22D-01 DE=-3.12D-01 OVMax= 4.27D-01

 Cycle   4  Pass 1  IDiag  1:
 RMSU=  1.21D-03    CP:  9.32D-01  1.16D+00  2.51D-01
 E= -2425.17674745042     Delta-E=        0.700898702769 Rises=F Damp=F
 DIIS: error= 2.40D-02 at cycle   4 NSaved=   4.
 NSaved= 4 IEnMin= 3 EnMin= -2425.87764615319     IErMin= 2 ErrMin= 7.64D-03
 ErrMax= 2.40D-02  0.00D+00 EMaxC= 1.00D-01 BMatC= 1.02D+00 BMatP= 2.01D-01
 IDIUse=2 WtCom= 0.00D+00 WtEn= 1.00D+00
 Coeff-En:   0.000D+00 0.000D+00 0.675D+00 0.325D+00
 Coeff:      0.000D+00 0.000D+00 0.675D+00 0.325D+00
 Gap=     0.071 Goal=   None    Shift=    0.000
 RMSDP=1.72D-03 MaxDP=3.77D-01 DE= 7.01D-01 OVMax= 2.06D-01

 Cycle   5  Pass 1  IDiag  1:
 RMSU=  4.44D-04    CP:  8.64D-01  4.92D-01  8.39D-01  2.98D-01
 E= -2426.19463793756     Delta-E=       -1.017890487143 Rises=F Damp=F
 DIIS: error= 6.00D-03 at cycle   5 NSaved=   5.
 NSaved= 5 IEnMin= 5 EnMin= -2426.19463793756     IErMin= 5 ErrMin= 6.00D-03
 ErrMax= 6.00D-03  0.00D+00 EMaxC= 1.00D-01 BMatC= 5.06D-02 BMatP= 2.01D-01
 IDIUse=3 WtCom= 9.40D-01 WtEn= 6.00D-02
 Coeff-Com:  0.190D-01-0.923D-02 0.380D+00 0.147D+00 0.463D+00
 Coeff-En:   0.000D+00 0.000D+00 0.178D+00 0.000D+00 0.822D+00
 Coeff:      0.179D-01-0.867D-02 0.368D+00 0.138D+00 0.484D+00
 Gap=     0.070 Goal=   None    Shift=    0.000
 RMSDP=2.33D-04 MaxDP=3.18D-02 DE=-1.02D+00 OVMax= 7.50D-02

 Cycle   6  Pass 1  IDiag  1:
 RMSU=  9.75D-05    CP:  8.63D-01  4.73D-01  8.89D-01  2.56D-01  5.66D-01
 E= -2426.24221077955     Delta-E=       -0.047572841993 Rises=F Damp=F
 DIIS: error= 2.03D-03 at cycle   6 NSaved=   6.
 NSaved= 6 IEnMin= 6 EnMin= -2426.24221077955     IErMin= 6 ErrMin= 2.03D-03
 ErrMax= 2.03D-03  0.00D+00 EMaxC= 1.00D-01 BMatC= 6.66D-03 BMatP= 5.06D-02
 IDIUse=3 WtCom= 9.80D-01 WtEn= 2.03D-02
 Coeff-Com:  0.539D-02-0.174D-01 0.110D+00 0.477D-02 0.378D+00 0.519D+00
 Coeff-En:   0.000D+00 0.000D+00 0.000D+00 0.000D+00 0.103D+00 0.897D+00
 Coeff:      0.528D-02-0.171D-01 0.108D+00 0.467D-02 0.373D+00 0.527D+00
 Gap=     0.072 Goal=   None    Shift=    0.000
 RMSDP=6.57D-05 MaxDP=6.46D-03 DE=-4.76D-02 OVMax= 2.01D-02

 Cycle   7  Pass 1  IDiag  1:
 RMSU=  4.45D-05    CP:  8.64D-01  4.62D-01  8.78D-01  2.56D-01  6.27D-01
                    CP:  6.66D-01
 E= -2426.24849223266     Delta-E=       -0.006281453110 Rises=F Damp=F
 DIIS: error= 3.66D-04 at cycle   7 NSaved=   7.
 NSaved= 7 IEnMin= 7 EnMin= -2426.24849223266     IErMin= 7 ErrMin= 3.66D-04
 ErrMax= 3.66D-04  0.00D+00 EMaxC= 1.00D-01 BMatC= 2.96D-04 BMatP= 6.66D-03
 IDIUse=3 WtCom= 9.96D-01 WtEn= 3.66D-03
 Coeff-Com:  0.160D-02-0.508D-02 0.395D-01-0.593D-02 0.172D+00 0.292D+00
 Coeff-Com:  0.506D+00
 Coeff-En:   0.000D+00 0.000D+00 0.000D+00 0.000D+00 0.000D+00 0.000D+00
 Coeff-En:   0.100D+01
 Coeff:      0.160D-02-0.506D-02 0.393D-01-0.591D-02 0.171D+00 0.291D+00
 Coeff:      0.508D+00
 Gap=     0.071 Goal=   None    Shift=    0.000
 RMSDP=1.91D-05 MaxDP=1.73D-03 DE=-6.28D-03 OVMax= 9.26D-03

 Cycle   8  Pass 1  IDiag  1:
 RMSU=  1.40D-05    CP:  8.63D-01  4.63D-01  8.80D-01  2.55D-01  6.35D-01
                    CP:  7.21D-01  7.55D-01
 E= -2426.24871182198     Delta-E=       -0.000219589318 Rises=F Damp=F
 DIIS: error= 2.04D-04 at cycle   8 NSaved=   8.
 NSaved= 8 IEnMin= 8 EnMin= -2426.24871182198     IErMin= 8 ErrMin= 2.04D-04
 ErrMax= 2.04D-04  0.00D+00 EMaxC= 1.00D-01 BMatC= 8.73D-05 BMatP= 2.96D-04
 IDIUse=3 WtCom= 9.98D-01 WtEn= 2.04D-03
 Coeff-Com:  0.451D-03-0.115D-02 0.142D-01-0.534D-02 0.717D-01 0.134D+00
 Coeff-Com:  0.367D+00 0.419D+00
 Coeff-En:   0.000D+00 0.000D+00 0.000D+00 0.000D+00 0.000D+00 0.000D+00
 Coeff-En:   0.256D+00 0.744D+00
 Coeff:      0.450D-03-0.114D-02 0.142D-01-0.533D-02 0.715D-01 0.134D+00
 Coeff:      0.367D+00 0.420D+00
 Gap=     0.071 Goal=   None    Shift=    0.000
 RMSDP=9.95D-06 MaxDP=1.99D-03 DE=-2.20D-04 OVMax= 3.16D-03

 Cycle   9  Pass 1  IDiag  1:
 RMSU=  7.75D-06    CP:  8.63D-01  4.63D-01  8.82D-01  2.55D-01  6.39D-01
                    CP:  7.01D-01  7.65D-01  7.09D-01
 E= -2426.24879547469     Delta-E=       -0.000083652705 Rises=F Damp=F
 DIIS: error= 6.31D-05 at cycle   9 NSaved=   9.
 NSaved= 9 IEnMin= 9 EnMin= -2426.24879547469     IErMin= 9 ErrMin= 6.31D-05
 ErrMax= 6.31D-05  0.00D+00 EMaxC= 1.00D-01 BMatC= 8.29D-06 BMatP= 8.73D-05
 IDIUse=1 WtCom= 1.00D+00 WtEn= 0.00D+00
 Coeff-Com:  0.152D-03-0.173D-03 0.581D-02-0.300D-02 0.287D-01 0.533D-01
 Coeff-Com:  0.184D+00 0.275D+00 0.457D+00
 Coeff:      0.152D-03-0.173D-03 0.581D-02-0.300D-02 0.287D-01 0.533D-01
 Coeff:      0.184D+00 0.275D+00 0.457D+00
 Gap=     0.071 Goal=   None    Shift=    0.000
 RMSDP=2.95D-06 MaxDP=4.93D-04 DE=-8.37D-05 OVMax= 8.85D-04

 Cycle  10  Pass 1  IDiag  1:
 RMSU=  1.97D-06    CP:  8.63D-01  4.63D-01  8.82D-01  2.55D-01  6.36D-01
                    CP:  7.06D-01  7.75D-01  7.43D-01  8.10D-01
 E= -2426.24880306041     Delta-E=       -0.000007585721 Rises=F Damp=F
 DIIS: error= 2.83D-05 at cycle  10 NSaved=  10.
 NSaved=10 IEnMin=10 EnMin= -2426.24880306041     IErMin=10 ErrMin= 2.83D-05
 ErrMax= 2.83D-05  0.00D+00 EMaxC= 1.00D-01 BMatC= 1.15D-06 BMatP= 8.29D-06
 IDIUse=1 WtCom= 1.00D+00 WtEn= 0.00D+00
 Coeff-Com:  0.671D-04-0.642D-04 0.164D-02-0.103D-02 0.621D-02 0.926D-02
 Coeff-Com:  0.509D-01 0.100D+00 0.290D+00 0.542D+00
 Coeff:      0.671D-04-0.642D-04 0.164D-02-0.103D-02 0.621D-02 0.926D-02
 Coeff:      0.509D-01 0.100D+00 0.290D+00 0.542D+00
 Gap=     0.071 Goal=   None    Shift=    0.000
 RMSDP=1.20D-06 MaxDP=1.88D-04 DE=-7.59D-06 OVMax= 2.79D-04

 Cycle  11  Pass 1  IDiag  1:
 RMSU=  5.63D-07    CP:  8.63D-01  4.63D-01  8.82D-01  2.54D-01  6.35D-01
                    CP:  7.06D-01  7.90D-01  7.49D-01  8.13D-01  7.00D-01
 E= -2426.24880414690     Delta-E=       -0.000001086493 Rises=F Damp=F
 DIIS: error= 4.83D-06 at cycle  11 NSaved=  11.
 NSaved=11 IEnMin=11 EnMin= -2426.24880414690     IErMin=11 ErrMin= 4.83D-06
 ErrMax= 4.83D-06  0.00D+00 EMaxC= 1.00D-01 BMatC= 6.13D-08 BMatP= 1.15D-06
 IDIUse=1 WtCom= 1.00D+00 WtEn= 0.00D+00
 Coeff-Com:  0.319D-04-0.467D-04 0.484D-03-0.279D-03 0.988D-03 0.874D-04
 Coeff-Com:  0.103D-01 0.276D-01 0.109D+00 0.278D+00 0.575D+00
 Coeff:      0.319D-04-0.467D-04 0.484D-03-0.279D-03 0.988D-03 0.874D-04
 Coeff:      0.103D-01 0.276D-01 0.109D+00 0.278D+00 0.575D+00
 Gap=     0.071 Goal=   None    Shift=    0.000
 RMSDP=3.30D-07 MaxDP=4.54D-05 DE=-1.09D-06 OVMax= 6.26D-05

 Cycle  12  Pass 1  IDiag  1:
 RMSU=  2.05D-07    CP:  8.63D-01  4.63D-01  8.82D-01  2.54D-01  6.36D-01
                    CP:  7.05D-01  7.89D-01  7.54D-01  8.20D-01  7.18D-01
                    CP:  8.01D-01
 E= -2426.24880419012     Delta-E=       -0.000000043219 Rises=F Damp=F
 DIIS: error= 2.20D-06 at cycle  12 NSaved=  12.
 NSaved=12 IEnMin=12 EnMin= -2426.24880419012     IErMin=12 ErrMin= 2.20D-06
 ErrMax= 2.20D-06  0.00D+00 EMaxC= 1.00D-01 BMatC= 1.35D-08 BMatP= 6.13D-08
 IDIUse=1 WtCom= 1.00D+00 WtEn= 0.00D+00
 Coeff-Com:  0.169D-04-0.310D-04 0.167D-03-0.808D-04 0.505D-04-0.881D-03
 Coeff-Com:  0.168D-02 0.769D-02 0.409D-01 0.126D+00 0.387D+00 0.437D+00
 Coeff:      0.169D-04-0.310D-04 0.167D-03-0.808D-04 0.505D-04-0.881D-03
 Coeff:      0.168D-02 0.769D-02 0.409D-01 0.126D+00 0.387D+00 0.437D+00
 Gap=     0.071 Goal=   None    Shift=    0.000
 RMSDP=1.25D-07 MaxDP=2.46D-05 DE=-4.32D-08 OVMax= 3.35D-05

 Cycle  13  Pass 1  IDiag  1:
 RMSU=  9.40D-08    CP:  8.63D-01  4.63D-01  8.82D-01  2.54D-01  6.36D-01
                    CP:  7.05D-01  7.89D-01  7.55D-01  8.26D-01  7.10D-01
                    CP:  8.30D-01  7.87D-01
 E= -2426.24880420201     Delta-E=       -0.000000011894 Rises=F Damp=F
 DIIS: error= 1.01D-06 at cycle  13 NSaved=  13.
 NSaved=13 IEnMin=13 EnMin= -2426.24880420201     IErMin=13 ErrMin= 1.01D-06
 ErrMax= 1.01D-06  0.00D+00 EMaxC= 1.00D-01 BMatC= 1.54D-09 BMatP= 1.35D-08
 IDIUse=1 WtCom= 1.00D+00 WtEn= 0.00D+00
 Coeff-Com:  0.952D-05-0.179D-04 0.732D-04-0.311D-04-0.505D-04-0.601D-03
 Coeff-Com:  0.284D-03 0.279D-02 0.179D-01 0.618D-01 0.216D+00 0.301D+00
 Coeff-Com:  0.401D+00
 Coeff:      0.952D-05-0.179D-04 0.732D-04-0.311D-04-0.505D-04-0.601D-03
 Coeff:      0.284D-03 0.279D-02 0.179D-01 0.618D-01 0.216D+00 0.301D+00
 Coeff:      0.401D+00
 Gap=     0.071 Goal=   None    Shift=    0.000
 RMSDP=5.26D-08 MaxDP=8.61D-06 DE=-1.19D-08 OVMax= 1.05D-05

 Cycle  14  Pass 1  IDiag  1:
 RMSU=  3.01D-08    CP:  8.63D-01  4.63D-01  8.82D-01  2.54D-01  6.36D-01
                    CP:  7.05D-01  7.89D-01  7.55D-01  8.26D-01  7.14D-01
                    CP:  8.23D-01  8.76D-01  6.33D-01
 E= -2426.24880420307     Delta-E=       -0.000000001051 Rises=F Damp=F
 DIIS: error= 4.67D-07 at cycle  14 NSaved=  14.
 NSaved=14 IEnMin=14 EnMin= -2426.24880420307     IErMin=14 ErrMin= 4.67D-07
 ErrMax= 4.67D-07  0.00D+00 EMaxC= 1.00D-01 BMatC= 3.29D-10 BMatP= 1.54D-09
 IDIUse=1 WtCom= 1.00D+00 WtEn= 0.00D+00
 Coeff-Com:  0.405D-05-0.761D-05 0.201D-04-0.687D-05-0.504D-04-0.270D-03
 Coeff-Com: -0.117D-03 0.475D-03 0.484D-02 0.205D-01 0.836D-01 0.137D+00
 Coeff-Com:  0.313D+00 0.441D+00
 Coeff:      0.405D-05-0.761D-05 0.201D-04-0.687D-05-0.504D-04-0.270D-03
 Coeff:     -0.117D-03 0.475D-03 0.484D-02 0.205D-01 0.836D-01 0.137D+00
 Coeff:      0.313D+00 0.441D+00
 Gap=     0.071 Goal=   None    Shift=    0.000
 RMSDP=2.33D-08 MaxDP=3.71D-06 DE=-1.05D-09 OVMax= 4.60D-06

 Cycle  15  Pass 1  IDiag  1:
 RMSU=  1.22D-08    CP:  8.63D-01  4.63D-01  8.82D-01  2.54D-01  6.36D-01
                    CP:  7.05D-01  7.89D-01  7.56D-01  8.26D-01  7.15D-01
                    CP:  8.28D-01  8.55D-01  7.41D-01  6.24D-01
 E= -2426.24880420350     Delta-E=       -0.000000000438 Rises=F Damp=F
 DIIS: error= 8.82D-08 at cycle  15 NSaved=  15.
 NSaved=15 IEnMin=15 EnMin= -2426.24880420350     IErMin=15 ErrMin= 8.82D-08
 ErrMax= 8.82D-08  0.00D+00 EMaxC= 1.00D-01 BMatC= 2.77D-11 BMatP= 3.29D-10
 IDIUse=1 WtCom= 1.00D+00 WtEn= 0.00D+00
 Coeff-Com:  0.139D-05-0.289D-05 0.338D-05-0.105D-05-0.198D-04-0.787D-04
 Coeff-Com: -0.605D-04-0.190D-04 0.758D-03 0.488D-02 0.236D-01 0.438D-01
 Coeff-Com:  0.140D+00 0.282D+00 0.504D+00
 Coeff:      0.139D-05-0.289D-05 0.338D-05-0.105D-05-0.198D-04-0.787D-04
 Coeff:     -0.605D-04-0.190D-04 0.758D-03 0.488D-02 0.236D-01 0.438D-01
 Coeff:      0.140D+00 0.282D+00 0.504D+00
 Gap=     0.071 Goal=   None    Shift=    0.000
 RMSDP=7.30D-09 MaxDP=1.24D-06 DE=-4.38D-10 OVMax= 1.92D-06

 Cycle  16  Pass 1  IDiag  1:
 RMSU=  4.05D-09    CP:  8.63D-01  4.63D-01  8.82D-01  2.54D-01  6.36D-01
                    CP:  7.05D-01  7.89D-01  7.56D-01  8.26D-01  7.15D-01
                    CP:  8.30D-01  8.62D-01  7.35D-01  7.01D-01  8.40D-01
 E= -2426.24880420353     Delta-E=       -0.000000000027 Rises=F Damp=F
 DIIS: error= 3.45D-08 at cycle  16 NSaved=  16.
 NSaved=16 IEnMin=16 EnMin= -2426.24880420353     IErMin=16 ErrMin= 3.45D-08
 ErrMax= 3.45D-08  0.00D+00 EMaxC= 1.00D-01 BMatC= 2.70D-12 BMatP= 2.77D-11
 IDIUse=1 WtCom= 1.00D+00 WtEn= 0.00D+00
 Coeff-Com:  0.349D-06-0.819D-06-0.117D-06 0.723D-07-0.587D-05-0.162D-04
 Coeff-Com: -0.185D-04-0.568D-04-0.649D-04 0.634D-03 0.422D-02 0.945D-02
 Coeff-Com:  0.457D-01 0.116D+00 0.302D+00 0.522D+00
 Coeff:      0.349D-06-0.819D-06-0.117D-06 0.723D-07-0.587D-05-0.162D-04
 Coeff:     -0.185D-04-0.568D-04-0.649D-04 0.634D-03 0.422D-02 0.945D-02
 Coeff:      0.457D-01 0.116D+00 0.302D+00 0.522D+00
 Gap=     0.071 Goal=   None    Shift=    0.000
 RMSDP=2.38D-09 MaxDP=6.31D-07 DE=-2.73D-11 OVMax= 4.69D-07

 Error on total polarization charges =  0.07855
 SCF Done:  E(RTPSS-TPSS) =  -2426.24880420     A.U. after   16 cycles
            NFock= 16  Conv=0.24D-08     -V/T= 2.0041
 KE= 2.416303926026D+03 PE=-1.809563803073D+04 EE= 7.033304589875D+03
 SMD-CDS (non-electrostatic) energy       (kcal/mol) =      -8.52
 (included in total energy above)
 Leave Link  502 at Sat Jul  2 00:05:32 2022, MaxMem=  5242880000 cpu:     29779.7
 (Enter /opt/nce/packages/global/g09/l801.exe)
 ExpMin= 9.52D-02 ExpMax= 6.95D+04 ExpMxC= 2.37D+03 IAcc=3 IRadAn=         5 AccDes= 0.00D+00
 HarFok:  IExCor=  205 AccDes= 0.00D+00 IRadAn=         5 IDoV=-2 UseB2=F ITyADJ=14
 ICtDFT= 12500011 ScaDFX=  1.000000  1.000000  1.000000  1.000000
 Largest valence mixing into a core orbital is  7.87D-05
 Largest core mixing into a valence orbital is  3.19D-05
 Range of M.O.s used for correlation:    55  1700
 NBasis=  1700 NAE=   170 NBE=   170 NFC=    54 NFV=     0
 NROrb=   1646 NOA=   116 NOB=   116 NVA=  1530 NVB=  1530

 **** Warning!!: The largest alpha MO coefficient is  0.67775160D+02


 **** Warning!!: The smallest alpha delta epsilon is  0.71012071D-01

 Leave Link  801 at Sat Jul  2 00:05:32 2022, MaxMem=  5242880000 cpu:         6.6
 (Enter /opt/nce/packages/global/g09/l914.exe)
 RHF ground state
 MDV=  5242880000 DFT=T DoStab=F Mixed=F DoRPA=T DoScal=T NonHer=F
 Would need an additional       1079614100000 words for in-memory AO integral storage.
 NEqPCM:  Using non-equilibrium solvation (IEInf=1, Eps=  35.6880, EpsInf=   1.8069)
 Inv3:  Mode=1 IEnd=   108576768.
 Iteration    1 A*A^-1 deviation from unit magnitude is 7.77D-15 for   6013.
 Iteration    1 A*A^-1 deviation from orthogonality  is 4.38D-15 for   2233   1106.
 Iteration    1 A^-1*A deviation from unit magnitude is 7.99D-15 for   5998.
 Iteration    1 A^-1*A deviation from orthogonality  is 1.01D-14 for   4765   4735.
 Making orbital integer symmetry assigments:
 Orbital symmetries:
       Occupied  (A) (A) (A) (A) (A) (A) (A) (A) (A) (A) (A) (A)
                 (A) (A) (A) (A) (A) (A) (A) (A) (A) (A) (A) (A)
                 (A) (A) (A) (A) (A) (A) (A) (A) (A) (A) (A) (A)
                 (A) (A) (A) (A) (A) (A) (A) (A) (A) (A) (A) (A)
                 (A) (A) (A) (A) (A) (A) (A) (A) (A) (A) (A) (A)
                 (A) (A) (A) (A) (A) (A) (A) (A) (A) (A) (A) (A)
                 (A) (A) (A) (A) (A) (A) (A) (A) (A) (A) (A) (A)
                 (A) (A) (A) (A) (A) (A) (A) (A) (A) (A) (A) (A)
                 (A) (A) (A) (A) (A) (A) (A) (A) (A) (A) (A) (A)
                 (A) (A) (A) (A) (A) (A) (A) (A) (A) (A) (A) (A)
                 (A) (A) (A) (A) (A) (A) (A) (A) (A) (A) (A) (A)
                 (A) (A) (A) (A) (A) (A) (A) (A) (A) (A) (A) (A)
                 (A) (A) (A) (A) (A) (A) (A) (A) (A) (A) (A) (A)
                 (A) (A) (A) (A) (A) (A) (A) (A) (A) (A) (A) (A)
                 (A) (A)
       Virtual   (A) (A) (A) (A) (A) (A) (A) (A) (A) (A) (A) (A)
                 (A) (A) (A) (A) (A) (A) (A) (A) (A) (A) (A) (A)
                 (A) (A) (A) (A) (A) (A) (A) (A) (A) (A) (A) (A)
                 (A) (A) (A) (A) (A) (A) (A) (A) (A) (A) (A) (A)
                 (A) (A) (A) (A) (A) (A) (A) (A) (A) (A) (A) (A)
                 (A) (A) (A) (A) (A) (A) (A) (A) (A) (A) (A) (A)
                 (A) (A) (A) (A) (A) (A) (A) (A) (A) (A) (A) (A)
                 (A) (A) (A) (A) (A) (A) (A) (A) (A) (A) (A) (A)
                 (A) (A) (A) (A) (A) (A) (A) (A) (A) (A) (A) (A)
                 (A) (A) (A) (A) (A) (A) (A) (A) (A) (A) (A) (A)
                 (A) (A) (A) (A) (A) (A) (A) (A) (A) (A) (A) (A)
                 (A) (A) (A) (A) (A) (A) (A) (A) (A) (A) (A) (A)
                 (A) (A) (A) (A) (A) (A) (A) (A) (A) (A) (A) (A)
                 (A) (A) (A) (A) (A) (A) (A) (A) (A) (A) (A) (A)
                 (A) (A) (A) (A) (A) (A) (A) (A) (A) (A) (A) (A)
                 (A) (A) (A) (A) (A) (A) (A) (A) (A) (A) (A) (A)
                 (A) (A) (A) (A) (A) (A) (A) (A) (A) (A) (A) (A)
                 (A) (A) (A) (A) (A) (A) (A) (A) (A) (A) (A) (A)
                 (A) (A) (A) (A) (A) (A) (A) (A) (A) (A) (A) (A)
                 (A) (A) (A) (A) (A) (A) (A) (A) (A) (A) (A) (A)
                 (A) (A) (A) (A) (A) (A) (A) (A) (A) (A) (A) (A)
                 (A) (A) (A) (A) (A) (A) (A) (A) (A) (A) (A) (A)
                 (A) (A) (A) (A) (A) (A) (A) (A) (A) (A) (A) (A)
                 (A) (A) (A) (A) (A) (A) (A) (A) (A) (A) (A) (A)
                 (A) (A) (A) (A) (A) (A) (A) (A) (A) (A) (A) (A)
                 (A) (A) (A) (A) (A) (A) (A) (A) (A) (A) (A) (A)
                 (A) (A) (A) (A) (A) (A) (A) (A) (A) (A) (A) (A)
                 (A) (A) (A) (A) (A) (A) (A) (A) (A) (A) (A) (A)
                 (A) (A) (A) (A) (A) (A) (A) (A) (A) (A) (A) (A)
                 (A) (A) (A) (A) (A) (A) (A) (A) (A) (A) (A) (A)
                 (A) (A) (A) (A) (A) (A) (A) (A) (A) (A) (A) (A)
                 (A) (A) (A) (A) (A) (A) (A) (A) (A) (A) (A) (A)
                 (A) (A) (A) (A) (A) (A) (A) (A) (A) (A) (A) (A)
                 (A) (A) (A) (A) (A) (A) (A) (A) (A) (A) (A) (A)
                 (A) (A) (A) (A) (A) (A) (A) (A) (A) (A) (A) (A)
                 (A) (A) (A) (A) (A) (A) (A) (A) (A) (A) (A) (A)
                 (A) (A) (A) (A) (A) (A) (A) (A) (A) (A) (A) (A)
                 (A) (A) (A) (A) (A) (A) (A) (A) (A) (A) (A) (A)
                 (A) (A) (A) (A) (A) (A) (A) (A) (A) (A) (A) (A)
                 (A) (A) (A) (A) (A) (A) (A) (A) (A) (A) (A) (A)
                 (A) (A) (A) (A) (A) (A) (A) (A) (A) (A) (A) (A)
                 (A) (A) (A) (A) (A) (A) (A) (A) (A) (A) (A) (A)
                 (A) (A) (A) (A) (A) (A) (A) (A) (A) (A) (A) (A)
                 (A) (A) (A) (A) (A) (A) (A) (A) (A) (A) (A) (A)
                 (A) (A) (A) (A) (A) (A) (A) (A) (A) (A) (A) (A)
                 (A) (A) (A) (A) (A) (A) (A) (A) (A) (A) (A) (A)
                 (A) (A) (A) (A) (A) (A) (A) (A) (A) (A) (A) (A)
                 (A) (A) (A) (A) (A) (A) (A) (A) (A) (A) (A) (A)
                 (A) (A) (A) (A) (A) (A) (A) (A) (A) (A) (A) (A)
                 (A) (A) (A) (A) (A) (A) (A) (A) (A) (A) (A) (A)
                 (A) (A) (A) (A) (A) (A) (A) (A) (A) (A) (A) (A)
                 (A) (A) (A) (A) (A) (A) (A) (A) (A) (A) (A) (A)
                 (A) (A) (A) (A) (A) (A) (A) (A) (A) (A) (A) (A)
                 (A) (A) (A) (A) (A) (A) (A) (A) (A) (A) (A) (A)
                 (A) (A) (A) (A) (A) (A) (A) (A) (A) (A) (A) (A)
                 (A) (A) (A) (A) (A) (A) (A) (A) (A) (A) (A) (A)
                 (A) (A) (A) (A) (A) (A) (A) (A) (A) (A) (A) (A)
                 (A) (A) (A) (A) (A) (A) (A) (A) (A) (A) (A) (A)
                 (A) (A) (A) (A) (A) (A) (A) (A) (A) (A) (A) (A)
                 (A) (A) (A) (A) (A) (A) (A) (A) (A) (A) (A) (A)
                 (A) (A) (A) (A) (A) (A) (A) (A) (A) (A) (A) (A)
                 (A) (A) (A) (A) (A) (A) (A) (A) (A) (A) (A) (A)
                 (A) (A) (A) (A) (A) (A) (A) (A) (A) (A) (A) (A)
                 (A) (A) (A) (A) (A) (A) (A) (A) (A) (A) (A) (A)
                 (A) (A) (A) (A) (A) (A) (A) (A) (A) (A) (A) (A)
                 (A) (A) (A) (A) (A) (A) (A) (A) (A) (A) (A) (A)
                 (A) (A) (A) (A) (A) (A) (A) (A) (A) (A) (A) (A)
                 (A) (A) (A) (A) (A) (A) (A) (A) (A) (A) (A) (A)
                 (A) (A) (A) (A) (A) (A) (A) (A) (A) (A) (A) (A)
                 (A) (A) (A) (A) (A) (A) (A) (A) (A) (A) (A) (A)
                 (A) (A) (A) (A) (A) (A) (A) (A) (A) (A) (A) (A)
                 (A) (A) (A) (A) (A) (A) (A) (A) (A) (A) (A) (A)
                 (A) (A) (A) (A) (A) (A) (A) (A) (A) (A) (A) (A)
                 (A) (A) (A) (A) (A) (A) (A) (A) (A) (A) (A) (A)
                 (A) (A) (A) (A) (A) (A) (A) (A) (A) (A) (A) (A)
                 (A) (A) (A) (A) (A) (A) (A) (A) (A) (A) (A) (A)
                 (A) (A) (A) (A) (A) (A) (A) (A) (A) (A) (A) (A)
                 (A) (A) (A) (A) (A) (A) (A) (A) (A) (A) (A) (A)
                 (A) (A) (A) (A) (A) (A) (A) (A) (A) (A) (A) (A)
                 (A) (A) (A) (A) (A) (A) (A) (A) (A) (A) (A) (A)
                 (A) (A) (A) (A) (A) (A) (A) (A) (A) (A) (A) (A)
                 (A) (A) (A) (A) (A) (A) (A) (A) (A) (A) (A) (A)
                 (A) (A) (A) (A) (A) (A) (A) (A) (A) (A) (A) (A)
                 (A) (A) (A) (A) (A) (A) (A) (A) (A) (A) (A) (A)
                 (A) (A) (A) (A) (A) (A) (A) (A) (A) (A) (A) (A)
                 (A) (A) (A) (A) (A) (A) (A) (A) (A) (A) (A) (A)
                 (A) (A) (A) (A) (A) (A) (A) (A) (A) (A) (A) (A)
                 (A) (A) (A) (A) (A) (A) (A) (A) (A) (A) (A) (A)
                 (A) (A) (A) (A) (A) (A) (A) (A) (A) (A) (A) (A)
                 (A) (A) (A) (A) (A) (A) (A) (A) (A) (A) (A) (A)
                 (A) (A) (A) (A) (A) (A) (A) (A) (A) (A) (A) (A)
                 (A) (A) (A) (A) (A) (A) (A) (A) (A) (A) (A) (A)
                 (A) (A) (A) (A) (A) (A) (A) (A) (A) (A) (A) (A)
                 (A) (A) (A) (A) (A) (A) (A) (A) (A) (A) (A) (A)
                 (A) (A) (A) (A) (A) (A) (A) (A) (A) (A) (A) (A)
                 (A) (A) (A) (A) (A) (A) (A) (A) (A) (A) (A) (A)
                 (A) (A) (A) (A) (A) (A) (A) (A) (A) (A) (A) (A)
                 (A) (A) (A) (A) (A) (A) (A) (A) (A) (A) (A) (A)
                 (A) (A) (A) (A) (A) (A) (A) (A) (A) (A) (A) (A)
                 (A) (A) (A) (A) (A) (A) (A) (A) (A) (A) (A) (A)
                 (A) (A) (A) (A) (A) (A) (A) (A) (A) (A) (A) (A)
                 (A) (A) (A) (A) (A) (A) (A) (A) (A) (A) (A) (A)
                 (A) (A) (A) (A) (A) (A) (A) (A) (A) (A) (A) (A)
                 (A) (A) (A) (A) (A) (A) (A) (A) (A) (A) (A) (A)
                 (A) (A) (A) (A) (A) (A) (A) (A) (A) (A) (A) (A)
                 (A) (A) (A) (A) (A) (A) (A) (A) (A) (A) (A) (A)
                 (A) (A) (A) (A) (A) (A) (A) (A) (A) (A) (A) (A)
                 (A) (A) (A) (A) (A) (A) (A) (A) (A) (A) (A) (A)
                 (A) (A) (A) (A) (A) (A) (A) (A) (A) (A) (A) (A)
                 (A) (A) (A) (A) (A) (A) (A) (A) (A) (A) (A) (A)
                 (A) (A) (A) (A) (A) (A) (A) (A) (A) (A) (A) (A)
                 (A) (A) (A) (A) (A) (A) (A) (A) (A) (A) (A) (A)
                 (A) (A) (A) (A) (A) (A) (A) (A) (A) (A) (A) (A)
                 (A) (A) (A) (A) (A) (A) (A) (A) (A) (A) (A) (A)
                 (A) (A) (A) (A) (A) (A) (A) (A) (A) (A) (A) (A)
                 (A) (A) (A) (A) (A) (A) (A) (A) (A) (A) (A) (A)
                 (A) (A) (A) (A) (A) (A) (A) (A) (A) (A) (A) (A)
                 (A) (A) (A) (A) (A) (A) (A) (A) (A) (A) (A) (A)
                 (A) (A) (A) (A) (A) (A) (A) (A) (A) (A) (A) (A)
                 (A) (A) (A) (A) (A) (A) (A) (A) (A) (A) (A) (A)
                 (A) (A) (A) (A) (A) (A) (A) (A) (A) (A) (A) (A)
                 (A) (A) (A) (A) (A) (A) (A) (A) (A) (A) (A) (A)
                 (A) (A) (A) (A) (A) (A) (A) (A) (A) (A) (A) (A)
                 (A) (A) (A) (A) (A) (A) (A) (A) (A) (A) (A) (A)
                 (A) (A) (A) (A) (A) (A) (A) (A) (A) (A) (A) (A)
                 (A) (A) (A) (A) (A) (A) (A) (A) (A) (A) (A) (A)
                 (A) (A) (A) (A) (A) (A) (A) (A) (A) (A) (A) (A)
                 (A) (A) (A) (A) (A) (A)
   200 initial guesses have been made.
 Convergence on wavefunction:    0.001000000000000
 Davidson Disk Diagonalization:  ConvIn= 1.00D-03 SkipCon=T Conv= 1.00D-03.
 Max sub-space:   800 roots to seek:   200 dimension of matrix:       354960
 Iteration     1 Dimension   200 NMult     0 NNew    200
 CISAX will form    72 AO SS matrices at one time.
 NMat=    72 NSing=    72 JSym2X= 0.
 FoFJK:  IHMeth= 1 ICntrl=     500 DoSepK=F KAlg= 0 I1Cent=   0 FoldK=F
 IRaf=         0 NMat=  72 IRICut=       1 DoRegI=T DoRafI=F ISym2E= 0.
 NMat=    72 NSing=    72 JSym2X= 0.
 NMat=    56 NSing=    56 JSym2X= 0.
 New state      2 was old state      3
 New state      3 was old state      2
 New state     22 was old state     25
 New state     23 was old state     26
 New state     24 was old state     27
 New state     25 was old state     29
 New state     26 was old state     31
 New state     27 was old state     30
 New state     28 was old state     34
 New state     29 was old state     36
 New state     30 was old state     37
 New state     31 was old state     40
 New state     32 was old state     38
 New state     33 was old state     39
 New state     34 was old state     22
 New state     35 was old state     24
 New state     36 was old state     23
 New state     37 was old state     41
 New state     38 was old state     28
 New state     39 was old state     44
 New state     40 was old state     45
 New state     41 was old state     48
 New state     42 was old state     46
 New state     43 was old state     47
 New state     44 was old state     52
 New state     45 was old state     51
 New state     46 was old state     53
 New state     47 was old state     49
 New state     48 was old state     50
 New state     49 was old state     54
 New state     50 was old state     55
 Excitation Energies [eV] at current iteration:
 Root      1 :     1.979146280352677
 Root      2 :     2.113860990435586
 Root      3 :     2.161509864153702
 Root      4 :     2.261242475482659
 Root      5 :     2.269359312644916
 Root      6 :     2.274588155941283
 Root      7 :     2.459395318240932
 Root      8 :     2.573923763834624
 Root      9 :     2.628425207933248
 Root     10 :     2.711966315138681
 Root     11 :     2.719974990445123
 Root     12 :     2.737901107633366
 Root     13 :     3.148177712176313
 Root     14 :     3.177890883589459
 Root     15 :     3.188599089122228
 Root     16 :     3.474712942760902
 Root     17 :     3.488544704106555
 Root     18 :     3.508791065899053
 Root     19 :     3.586603211667852
 Root     20 :     3.597684247408581
 Root     21 :     3.598028847651566
 Root     22 :     3.612691232366285
 Root     23 :     3.629030306035675
 Root     24 :     3.644507183070776
 Root     25 :     3.761350445040780
 Root     26 :     3.770358648729361
 Root     27 :     3.777827148562475
 Root     28 :     3.780033319042632
 Root     29 :     3.790176363650162
 Root     30 :     3.803386880093596
 Root     31 :     3.818516415468744
 Root     32 :     3.856223573318617
 Root     33 :     3.860454220504536
 Root     34 :     3.973693060211220
 Root     35 :     3.991020306335007
 Root     36 :     4.005001080173559
 Root     37 :     4.038315228389878
 Root     38 :     4.141590289586264
 Root     39 :     4.176275173411586
 Root     40 :     4.184305215993168
 Root     41 :     4.285190371343639
 Root     42 :     4.320720724511006
 Root     43 :     4.331923035419743
 Root     44 :     4.333401977202273
 Root     45 :     4.337541118719872
 Root     46 :     4.346697342601213
 Root     47 :     4.357294828957133
 Root     48 :     4.365432708028711
 Root     49 :     4.384259855249260
 Root     50 :     4.454191416127413
 Root     51 :     4.465584460988551
 Root     52 :     4.475159854643948
 Root     53 :     4.491121376596392
 Root     54 :     4.495032829276791
 Root     55 :     4.497414196323758
 Root     56 :     4.521510981815375
 Root     57 :     4.626110561947485
 Root     58 :     4.634028483326325
 Root     59 :     4.640012168258201
 Root     60 :     4.644542560622184
 Root     61 :     4.647194694498735
 Root     62 :     4.650801438500070
 Root     63 :     4.652097237558510
 Root     64 :     4.658258761641572
 Root     65 :     4.661011979916640
 Root     66 :     4.670440273049552
 Root     67 :     4.678399851357371
 Root     68 :     4.682041888546992
 Root     69 :     4.687172861528609
 Root     70 :     4.705425164810816
 Root     71 :     4.714492078875621
 Root     72 :     4.755810293248670
 Root     73 :     4.771919110712308
 Root     74 :     4.791993870996952
 Root     75 :     4.814097733047702
 Root     76 :     4.819333881528934
 Root     77 :     4.822888834209187
 Root     78 :     4.832300397151394
 Root     79 :     4.841814437106548
 Root     80 :     4.874321531233901
 Root     81 :     4.881533136444776
 Root     82 :     4.892181108238869
 Root     83 :     4.903205140961180
 Root     84 :     4.928226430173169
 Root     85 :     4.942631311641420
 Root     86 :     4.944530835097635
 Root     87 :     4.950149548076921
 Root     88 :     4.962969372913369
 Root     89 :     4.968391628752916
 Root     90 :     4.978318056694839
 Root     91 :     5.003304524567100
 Root     92 :     5.004455470640745
 Root     93 :     5.011493915521013
 Root     94 :     5.012857495632166
 Root     95 :     5.022897211283143
 Root     96 :     5.028010999937051
 Root     97 :     5.049425582449918
 Root     98 :     5.063272405560813
 Root     99 :     5.068054184012161
 Root    100 :     5.071132938543013
 Root    101 :     5.086519116436789
 Root    102 :     5.091907182097088
 Root    103 :     5.102572139099131
 Root    104 :     5.109010357424925
 Root    105 :     5.114004222897496
 Root    106 :     5.118057728296938
 Root    107 :     5.128039825934416
 Root    108 :     5.133632277195836
 Root    109 :     5.144826662382761
 Root    110 :     5.147916124428331
 Root    111 :     5.152194306654375
 Root    112 :     5.157520125348870
 Root    113 :     5.164254987463387
 Root    114 :     5.169156456932599
 Root    115 :     5.217407028439816
 Root    116 :     5.228999765872914
 Root    117 :     5.232092273549523
 Root    118 :     5.238619817255588
 Root    119 :     5.247243583640639
 Root    120 :     5.258950341693908
 Root    121 :     5.259866761435254
 Root    122 :     5.266458763842285
 Root    123 :     5.273900643421884
 Root    124 :     5.288174273988443
 Root    125 :     5.301937809820617
 Root    126 :     5.326421608609095
 Root    127 :     5.339589820360943
 Root    128 :     5.345184362387843
 Root    129 :     5.353499982962612
 Root    130 :     5.355177073917914
 Root    131 :     5.362652412176808
 Root    132 :     5.366330579691888
 Root    133 :     5.368664645338703
 Root    134 :     5.370803247534386
 Root    135 :     5.382400190757518
 Root    136 :     5.393447006721500
 Root    137 :     5.406041907825717
 Root    138 :     5.407813144862951
 Root    139 :     5.412439295349802
 Root    140 :     5.427921827969999
 Root    141 :     5.443402513503357
 Root    142 :     5.455775898497258
 Root    143 :     5.463308043671666
 Root    144 :     5.483520745069272
 Root    145 :     5.496685750319094
 Root    146 :     5.508822207887479
 Root    147 :     5.516066246240693
 Root    148 :     5.520329587946935
 Root    149 :     5.526521296923404
 Root    150 :     5.532658454953652
 Root    151 :     5.535229867773784
 Root    152 :     5.538214509489128
 Root    153 :     5.541828767237652
 Root    154 :     5.545366281543401
 Root    155 :     5.545639430546875
 Root    156 :     5.547276634415452
 Root    157 :     5.551828536449752
 Root    158 :     5.555550596283357
 Root    159 :     5.555787759413175
 Root    160 :     5.560019024510363
 Root    161 :     5.561651144487666
 Root    162 :     5.566370016013240
 Root    163 :     5.567190443396034
 Root    164 :     5.575404280707399
 Root    165 :     5.581488990321422
 Root    166 :     5.592500115738569
 Root    167 :     5.639062885613645
 Root    168 :     5.646993125226595
 Root    169 :     5.676098757758633
 Root    170 :     5.677125781720552
 Root    171 :     5.696934375717813
 Root    172 :     5.708295595383341
 Root    173 :     5.713015615658430
 Root    174 :     5.745687886000685
 Root    175 :     5.751724323453858
 Root    176 :     5.767399175066398
 Root    177 :     5.784255062875800
 Root    178 :     5.814179399209073
 Root    179 :     5.819998670142692
 Root    180 :     5.839781538859936
 Root    181 :     5.847633198033910
 Root    182 :     5.887354461069130
 Root    183 :     5.917936736844200
 Root    184 :     6.018835557868923
 Root    185 :     6.083755300130958
 Root    186 :     6.272411429481053
 Root    187 :     6.460726630533442
 Root    188 :     6.665090453647421
 Root    189 :     6.676560803814875
 Root    190 :     6.724332775828008
 Root    191 :     6.794840504033253
 Root    192 :     6.885735119785257
 Root    193 :     6.891530210148567
 Root    194 :     6.955535121288015
 Root    195 :     6.967631105182680
 Root    196 :     7.023298113789719
 Root    197 :     7.065464008708257
 Root    198 :     8.374391424075817
 Root    199 :     8.391177253676686
 Root    200 :     8.443160474870725
 Iteration     2 Dimension   400 NMult   200 NNew    200
 CISAX will form    72 AO SS matrices at one time.
 NMat=    72 NSing=    72 JSym2X= 0.
 NMat=    72 NSing=    72 JSym2X= 0.
 NMat=    56 NSing=    56 JSym2X= 0.
 Root      1 not converged, maximum delta is    0.011497409318219
 Root      2 not converged, maximum delta is    0.023000571197498
 Root      3 not converged, maximum delta is    0.044169178976364
 Root      4 not converged, maximum delta is    0.022608886526620
 Root      5 not converged, maximum delta is    0.124548000923356
 Root      6 not converged, maximum delta is    0.124726733782420
 Root      7 not converged, maximum delta is    0.072873410630198
 Root      8 not converged, maximum delta is    0.058662099806029
 Root      9 not converged, maximum delta is    0.092813945819692
 Root     10 not converged, maximum delta is    0.046061761461583
 Root     11 not converged, maximum delta is    0.045432823637959
 Root     12 not converged, maximum delta is    0.021316365960617
 Root     13 not converged, maximum delta is    0.006642972888210
 Root     14 not converged, maximum delta is    0.022215498602341
 Root     15 not converged, maximum delta is    0.022308398510495
 Root     16 not converged, maximum delta is    0.030490109092591
 Root     17 not converged, maximum delta is    0.027941515001195
 Root     18 not converged, maximum delta is    0.035959958000828
 Root     19 not converged, maximum delta is    0.009653079515819
 New state     20 was old state     21
 Root     20 not converged, maximum delta is    0.007612154458324
 New state     21 was old state     20
 Root     21 not converged, maximum delta is    0.012850268803107
 Root     22 not converged, maximum delta is    0.015856745010573
 Root     23 not converged, maximum delta is    0.024226171804125
 Root     24 not converged, maximum delta is    0.023475292177657
 Root     25 not converged, maximum delta is    0.027717820567320
 Root     26 not converged, maximum delta is    0.029372439349363
 Root     27 not converged, maximum delta is    0.040557064889718
 Root     28 not converged, maximum delta is    0.037845894600428
 Root     29 not converged, maximum delta is    0.021586781612526
 New state     30 was old state     31
 Root     30 not converged, maximum delta is    0.246917185952902
 New state     31 was old state     30
 Root     31 not converged, maximum delta is    0.223899452427786
 Root     32 not converged, maximum delta is    0.294461807446406
 New state     33 was old state     34
 Root     33 not converged, maximum delta is    0.069962069049901
 New state     34 was old state     35
 Root     34 not converged, maximum delta is    0.422338076008573
 New state     35 was old state     33
 Root     35 not converged, maximum delta is    0.491052725698199
 Root     36 not converged, maximum delta is    0.351891616946298
 Root     37 not converged, maximum delta is    0.203391162229670
 Root     38 not converged, maximum delta is    0.275002674533592
 Root     39 not converged, maximum delta is    0.190191175641136
 Root     40 not converged, maximum delta is    0.203449404374313
 New state     41 was old state     45
 Root     41 not converged, maximum delta is    0.440720482306385
 New state     42 was old state     43
 Root     42 not converged, maximum delta is    0.235613176513567
 New state     43 was old state     41
 Root     43 not converged, maximum delta is    0.085501703988306
 New state     44 was old state     55
 Root     44 not converged, maximum delta is    0.349756979104067
 New state     45 was old state     42
 Root     45 not converged, maximum delta is    0.127925930229938
 New state     46 was old state     44
 Root     46 not converged, maximum delta is    0.138828585512586
 New state     47 was old state     48
 Root     47 not converged, maximum delta is    0.398101933655442
 New state     48 was old state     47
 Root     48 not converged, maximum delta is    0.175320681413767
 New state     49 was old state     53
 Root     49 not converged, maximum delta is    0.350968966622478
 New state     50 was old state     49
 Root     50 not converged, maximum delta is    0.123981997207616
 Excitation Energies [eV] at current iteration:
 Root      1 :     1.964074769120839   Change is   -0.015071511231838
 Root      2 :     2.099061765321196   Change is   -0.014799225114391
 Root      3 :     2.128678477747554   Change is   -0.032831386406148
 Root      4 :     2.258396738423842   Change is   -0.002845737058817
 Root      5 :     2.266564404420041   Change is   -0.002794908224876
 Root      6 :     2.272110357263972   Change is   -0.002477798677310
 Root      7 :     2.428521529263928   Change is   -0.030873788977005
 Root      8 :     2.558208220350453   Change is   -0.015715543484170
 Root      9 :     2.586573691082099   Change is   -0.041851516851149
 Root     10 :     2.709942019930432   Change is   -0.002024295208249
 Root     11 :     2.718076618696391   Change is   -0.001898371748733
 Root     12 :     2.731797226068760   Change is   -0.006103881564606
 Root     13 :     3.143347378127491   Change is   -0.004830334048822
 Root     14 :     3.174368404982756   Change is   -0.003522478606702
 Root     15 :     3.181341723406351   Change is   -0.007257365715877
 Root     16 :     3.469852232799200   Change is   -0.004860709961701
 Root     17 :     3.482505824723347   Change is   -0.006038879383208
 Root     18 :     3.504355363309759   Change is   -0.004435702589294
 Root     19 :     3.586406059202053   Change is   -0.000197152465800
 Root     20 :     3.594232131483656   Change is   -0.003796716167909
 Root     21 :     3.597345752798228   Change is   -0.000338494610354
 Root     22 :     3.612175857582082   Change is   -0.000515374784203
 Root     23 :     3.626719985453857   Change is   -0.002310320581818
 Root     24 :     3.635657442399302   Change is   -0.008849740671474
 Root     25 :     3.761065901461034   Change is   -0.000284543579746
 Root     26 :     3.770093024442366   Change is   -0.000265624286995
 Root     27 :     3.777629098829665   Change is   -0.000198049732810
 Root     28 :     3.779326407770868   Change is   -0.000706911271764
 Root     29 :     3.789946380473525   Change is   -0.000229983176637
 Root     30 :     3.795620957558385   Change is   -0.022895457910359
 Root     31 :     3.803186208681837   Change is   -0.000200671411759
 Root     32 :     3.825074026825262   Change is   -0.031149546493354
 Root     33 :     3.831869570701398   Change is   -0.141823489509822
 Root     34 :     3.836421612346216   Change is   -0.154598693988791
 Root     35 :     3.867231021270470   Change is    0.006776800765934
 Root     36 :     3.879345413551022   Change is   -0.125655666622538
 Root     37 :     4.027035112577028   Change is   -0.011280115812851
 Root     38 :     4.040317982370475   Change is   -0.101272307215790
 Root     39 :     4.169390993389966   Change is   -0.006884180021620
 Root     40 :     4.176103071531968   Change is   -0.008202144461200
 Root     41 :     4.252982123641727   Change is   -0.084558995078145
 Root     42 :     4.253902562527506   Change is   -0.078020472892237
 Root     43 :     4.274625653611713   Change is   -0.010564717731927
 Root     44 :     4.276365036008023   Change is   -0.221049160315735
 Root     45 :     4.313809182771506   Change is   -0.006911541739500
 Root     46 :     4.322515748570589   Change is   -0.010886228631685
 Root     47 :     4.349534699430798   Change is   -0.015898008597912
 Root     48 :     4.352342729715825   Change is   -0.004952099241308
 Root     49 :     4.369204258249299   Change is   -0.121917118347093
 Root     50 :     4.373976870989564   Change is   -0.010282984259696
 Root     51 :     4.381295123027095   Change is   -0.113737706249697
 Root     52 :     4.389953560452995   Change is    0.043256217851782
 Root     53 :     4.456124071500911   Change is    0.001932655373498
 Root     54 :     4.466843273451467   Change is    0.001258812462916
 Root     55 :     4.476364461859569   Change is    0.001204607215621
 Root     56 :     4.493123473386598   Change is   -0.028387508428776
 Root     57 :     4.625835322185212   Change is   -0.000275239762272
 Root     58 :     4.626339196943220   Change is   -0.007689286383105
 Root     59 :     4.639525677525694   Change is   -0.000486490732507
 Root     60 :     4.640521221859231   Change is   -0.006673472639504
 Root     61 :     4.644211857160822   Change is   -0.000330703461362
 Root     62 :     4.649817591608337   Change is   -0.000983846891734
 Root     63 :     4.651331051637589   Change is   -0.251874089323591
 Root     64 :     4.651812797518070   Change is   -0.000284440040440
 Root     65 :     4.657527981514792   Change is   -0.000730780126780
 Root     66 :     4.660769435638250   Change is   -0.000242544278389
 Root     67 :     4.668977802845024   Change is   -0.001462470204528
 Root     68 :     4.678283880014482   Change is   -0.000115971342889
 Root     69 :     4.681954709739735   Change is   -0.000087178807258
 Root     70 :     4.685673115315640   Change is   -0.001499746212968
 Root     71 :     4.705147112743535   Change is   -0.000278052067281
 Root     72 :     4.706737044987151   Change is   -0.007755033888470
 Root     73 :     4.740926960360134   Change is   -0.014883332888536
 Root     74 :     4.762177515637439   Change is   -0.009741595074869
 Root     75 :     4.784269373577180   Change is   -0.007724497419771
 Root     76 :     4.801213584242197   Change is   -0.012884148805505
 Root     77 :     4.807249557259045   Change is   -0.012084324269889
 Root     78 :     4.810641578040652   Change is   -0.012247256168535
 Root     79 :     4.820094866662898   Change is   -0.021719570443650
 Root     80 :     4.829315899396386   Change is   -0.002984497755008
 Root     81 :     4.832378179795463   Change is   -0.270193959303668
 Root     82 :     4.837606251080228   Change is   -0.211819331369690
 Root     83 :     4.845708582317073   Change is   -0.046472525921797
 Root     84 :     4.857328369749930   Change is   -0.234578812347157
 Root     85 :     4.867164259910297   Change is   -0.007157271323605
 Root     86 :     4.868918636814628   Change is   -0.012614499630148
 Root     87 :     4.885535836628221   Change is   -0.057095475013199
 Root     88 :     4.910330117248326   Change is   -0.017896312924843
 Root     89 :     4.924831808080968   Change is   -0.025317739995953
 Root     90 :     4.930185067833257   Change is   -0.014345767264378
 Root     91 :     4.938114325000325   Change is   -0.024855047913044
 Root     92 :     4.943851804045134   Change is   -0.024539824707782
 Root     93 :     4.955949862361166   Change is   -0.191966262067165
 Root     94 :     4.958699161314658   Change is   -0.019618895380180
 Root     95 :     4.964750759207713   Change is   -0.149253463689783
 Root     96 :     4.973828109046828   Change is   -0.396975138487559
 Root     97 :     4.976206103977139   Change is   -0.157426173218697
 Root     98 :     4.983296544548620   Change is   -0.079975861012193
 Root     99 :     4.993442174790039   Change is   -0.164077950558831
 Root    100 :     4.999897967769427   Change is   -0.003406556797673
 Root    101 :     5.002293451773534   Change is   -0.010564043858633
 Root    102 :     5.005601839518737   Change is   -0.017295371764407
 Root    103 :     5.009313174778343   Change is    0.004857704137599
 Root    104 :     5.014103537456214   Change is    0.002609621935201
 Root    105 :     5.019256128024220   Change is   -0.198150900415595
 Root    106 :     5.029951472146661   Change is    0.001940472209610
 Root    107 :     5.043934492859655   Change is   -0.024119691152506
 Root    108 :     5.073565459289491   Change is   -0.078628847364883
 Root    109 :     5.077154056704615   Change is   -0.031856300720310
 Root    110 :     5.078718657187363   Change is    0.007585718644349
 Root    111 :     5.099454457147267   Change is   -0.069701999785332
 Root    112 :     5.111328671415770   Change is   -0.006729056881167
 Root    113 :     5.119656855598707   Change is   -0.025169806784055
 Root    114 :     5.122725322699335   Change is   -0.232451751218580
 Root    115 :     5.129947275015830   Change is    0.001907449081414
 Root    116 :     5.158686423260741   Change is   -0.143251386559876
 Root    117 :     5.166653685490369   Change is   -0.062346080382546
 Root    118 :     5.179249162458186   Change is   -0.187081417233702
 Root    119 :     5.185496020879682   Change is   -0.046596252669842
 Root    120 :     5.190303034796965   Change is   -0.068647306896944
 Root    121 :     5.203362136492849   Change is   -0.204451008370102
 Root    122 :     5.209523636082577   Change is   -0.116897972526519
 Root    123 :     5.227352264559682   Change is   -0.019891319080956
 Root    124 :     5.230320895696614   Change is   -0.008298921558974
 Root    125 :     5.250273919016358   Change is   -0.016184844825926
 Root    126 :     5.252947588152764   Change is   -0.035226685835680
 Root    127 :     5.259237102480667   Change is   -0.014663540941217
 Root    128 :     5.262955496198424   Change is    0.003088734763170
 Root    129 :     5.268264137509846   Change is    0.104009150046460
 Root    130 :     5.325887693761964   Change is   -0.182934514125515
 Root    131 :     5.333493526284379   Change is   -0.163192224034715
 Root    132 :     5.341861145228616   Change is   -0.003323217159227
 Root    133 :     5.345271151545853   Change is    0.005681331184909
 Root    134 :     5.347771066966159   Change is   -0.014881345210649
 Root    135 :     5.355612578305894   Change is    0.002112595343282
 Root    136 :     5.366316373389229   Change is   -0.002348271949475
 Root    137 :     5.368151044264696
 Root    138 :     5.376570525733675   Change is   -0.005829665023842
 Root    139 :     5.388615223443582   Change is   -0.004831783277917
 Root    140 :     5.394359284301085   Change is   -0.018080011048717
 Root    141 :     5.397480394381343   Change is   -0.045922119122014
 Root    142 :     5.406246975032399   Change is    0.000205067206682
 Root    143 :     5.428566920449839   Change is    0.000645092479840
 Root    144 :     5.434784827944803   Change is   -0.048735917124469
 Root    145 :     5.440562072004164   Change is   -0.015213826493093
 Root    146 :     5.463518481245224   Change is    0.000210437573557
 Root    147 :     5.465696131354243   Change is   -0.318558931521557
 Root    148 :     5.477047059688460   Change is   -0.337132339520613
 Root    149 :     5.478556055189469   Change is   -0.088634388206565
 Root    150 :     5.495057041695612   Change is   -0.040172826078171
 Root    151 :     5.508837927161565   Change is   -0.409098809682636
 Root    152 :     5.515938290938502   Change is   -0.004391297008433
 Root    153 :     5.516102602295051   Change is    0.000036356054358
 Root    154 :     5.525987283189846   Change is   -0.000534013733559
 Root    155 :     5.528644362710391   Change is   -0.023184173739361
 Root    156 :     5.532702905520129   Change is    0.000044450566476
 Root    157 :     5.538128438005961   Change is   -0.000086071483167
 Root    158 :     5.539378339342902   Change is   -0.006261091203973
 Root    159 :     5.541528157854060   Change is   -0.000300609383591
 Root    160 :     5.543779874982535   Change is   -0.001586406560865
 Root    161 :     5.545363584031125
 Root    162 :     5.547101108201009   Change is   -0.000175526214443
 Root    163 :     5.548223204064280   Change is   -0.011795820446083
 Root    164 :     5.551545854874253   Change is   -0.004004741409104
 Root    165 :     5.552904180897741   Change is   -0.013465835115499
 Root    166 :     5.556027437738812   Change is    0.000239678325636
 Root    167 :     5.559925160772573   Change is   -0.001725983715093
 Root    168 :     5.563830290764143
 Root    169 :     5.569990546342241   Change is   -0.005413734365159
 Root    170 :     5.572899541305388   Change is   -0.008589449016035
 Root    171 :     5.622383016069264   Change is   -0.053715741689369
 Root    172 :     5.627192043943785   Change is   -0.011870841669859
 Root    173 :     5.644288411508467   Change is   -0.002704713718127
 Root    174 :     5.658736747649944   Change is   -1.065596028178065
 Root    175 :     5.661135967569730   Change is   -1.015424836245145
 Root    176 :     5.663687232030373   Change is   -0.013438549690179
 Root    177 :     5.677831767813216   Change is   -0.035183847845214
 Root    178 :     5.685742124854152   Change is   -0.011192250863661
[...]
 Alpha virt. eigenvalues --    2.31543   2.31662   2.31989   2.32454   2.32789
 Alpha virt. eigenvalues --    2.33030   2.33416   2.33819   2.35012   2.35374
 Alpha virt. eigenvalues --    2.35681   2.36098   2.36337   2.37124   2.37573
 Alpha virt. eigenvalues --    2.39076   2.39085   2.39749   2.41061   2.41180
 Alpha virt. eigenvalues --    2.41278   2.41536   2.41743   2.42855   2.43081
 Alpha virt. eigenvalues --    2.43355   2.44155   2.45041   2.45730   2.45985
 Alpha virt. eigenvalues --    2.46346   2.46401   2.46870   2.47479   2.47812
 Alpha virt. eigenvalues --    2.48038   2.48956   2.49038   2.49243   2.49315
 Alpha virt. eigenvalues --    2.51006   2.51292   2.52126   2.52858   2.53183
 Alpha virt. eigenvalues --    2.53323   2.53970   2.54742   2.54758   2.54968
 Alpha virt. eigenvalues --    2.55387   2.55905   2.56084   2.56851   2.58711
 Alpha virt. eigenvalues --    2.58853   2.59086   2.59230   2.59702   2.60007
 Alpha virt. eigenvalues --    2.60126   2.60490   2.60732   2.60984   2.61157
 Alpha virt. eigenvalues --    2.61294   2.61483   2.61957   2.62198   2.62439
 Alpha virt. eigenvalues --    2.62548   2.62672   2.62779   2.63114   2.63245
 Alpha virt. eigenvalues --    2.63300   2.63874   2.63922   2.63974   2.64520
 Alpha virt. eigenvalues --    2.64929   2.65267   2.65386   2.65710   2.65906
 Alpha virt. eigenvalues --    2.66144   2.66312   2.66522   2.67077   2.67482
 Alpha virt. eigenvalues --    2.68148   2.68270   2.68361   2.68669   2.69034
 Alpha virt. eigenvalues --    2.69408   2.69470   2.69593   2.69704   2.69903
 Alpha virt. eigenvalues --    2.70349   2.70386   2.70671   2.70899   2.71133
 Alpha virt. eigenvalues --    2.71499   2.71655   2.71723   2.71795   2.72374
 Alpha virt. eigenvalues --    2.72506   2.72639   2.72871   2.73433   2.73649
 Alpha virt. eigenvalues --    2.73802   2.73887   2.74483   2.74604   2.74944
 Alpha virt. eigenvalues --    2.75688   2.76028   2.76352   2.76722   2.77005
 Alpha virt. eigenvalues --    2.77173   2.77270   2.77366   2.78032   2.78517
 Alpha virt. eigenvalues --    2.78694   2.79266   2.79387   2.79735   2.80060
 Alpha virt. eigenvalues --    2.80542   2.80796   2.80897   2.81731   2.81823
 Alpha virt. eigenvalues --    2.81967   2.82123   2.82656   2.83032   2.83369
 Alpha virt. eigenvalues --    2.83481   2.83766   2.83925   2.84193   2.84544
 Alpha virt. eigenvalues --    2.84799   2.85103   2.85548   2.85837   2.86297
 Alpha virt. eigenvalues --    2.86503   2.86575   2.86693   2.87374   2.87454
 Alpha virt. eigenvalues --    2.88673   2.88884   2.89848   2.90023   2.90378
 Alpha virt. eigenvalues --    2.90425   2.90935   2.91437   2.91614   2.91664
 Alpha virt. eigenvalues --    2.91926   2.92363   2.92488   2.92588   2.92624
 Alpha virt. eigenvalues --    2.93064   2.93229   2.93346   2.93871   2.93965
 Alpha virt. eigenvalues --    2.94639   2.95336   2.95387   2.95810   2.96488
 Alpha virt. eigenvalues --    2.96567   2.96917   2.97119   2.97315   2.97542
 Alpha virt. eigenvalues --    2.98017   2.98212   2.99556   2.99599   2.99801
 Alpha virt. eigenvalues --    3.00059   3.00458   3.00516   3.01041   3.01494
 Alpha virt. eigenvalues --    3.01955   3.02049   3.02328   3.02991   3.03632
 Alpha virt. eigenvalues --    3.03886   3.04012   3.04224   3.04322   3.04648
 Alpha virt. eigenvalues --    3.04828   3.05524   3.05634   3.05791   3.06199
 Alpha virt. eigenvalues --    3.06717   3.06907   3.07308   3.07715   3.08457
 Alpha virt. eigenvalues --    3.09156   3.09374   3.10281   3.10821   3.11311
 Alpha virt. eigenvalues --    3.11599   3.11875   3.12169   3.12352   3.12714
 Alpha virt. eigenvalues --    3.12933   3.13101   3.13469   3.13563   3.13779
 Alpha virt. eigenvalues --    3.14019   3.14486   3.14579   3.14701   3.14799
 Alpha virt. eigenvalues --    3.15253   3.15353   3.15700   3.15957   3.16251
 Alpha virt. eigenvalues --    3.16410   3.16444   3.16524   3.16978   3.17189
 Alpha virt. eigenvalues --    3.17446   3.17993   3.18205   3.18218   3.18502
 Alpha virt. eigenvalues --    3.18543   3.18764   3.18866   3.19181   3.19373
 Alpha virt. eigenvalues --    3.19619   3.20007   3.21025   3.21230   3.21652
 Alpha virt. eigenvalues --    3.21932   3.22612   3.22737   3.22895   3.23443
 Alpha virt. eigenvalues --    3.23474   3.23744   3.23967   3.24269   3.24629
 Alpha virt. eigenvalues --    3.25029   3.25303   3.25521   3.25898   3.25926
 Alpha virt. eigenvalues --    3.26545   3.26791   3.27269   3.27487   3.28046
 Alpha virt. eigenvalues --    3.28138   3.28624   3.28845   3.29147   3.29333
 Alpha virt. eigenvalues --    3.29700   3.30032   3.30168   3.30534   3.30917
 Alpha virt. eigenvalues --    3.31086   3.31439   3.31706   3.31960   3.32079
 Alpha virt. eigenvalues --    3.32397   3.32582   3.32622   3.32847   3.33177
 Alpha virt. eigenvalues --    3.33557   3.33768   3.33929   3.33994   3.34543
 Alpha virt. eigenvalues --    3.34634   3.35503   3.35559   3.35828   3.36061
 Alpha virt. eigenvalues --    3.36724   3.36827   3.37254   3.37510   3.37917
 Alpha virt. eigenvalues --    3.38370   3.38459   3.38843   3.39251   3.39515
 Alpha virt. eigenvalues --    3.39770   3.39884   3.40123   3.40724   3.41236
 Alpha virt. eigenvalues --    3.41392   3.41821   3.42032   3.42285   3.42498
 Alpha virt. eigenvalues --    3.42951   3.43067   3.43850   3.44025   3.44666
 Alpha virt. eigenvalues --    3.45070   3.45620   3.45781   3.45951   3.46200
 Alpha virt. eigenvalues --    3.46413   3.46535   3.47194   3.47258   3.47309
 Alpha virt. eigenvalues --    3.48290   3.48395   3.48542   3.48659   3.48795
 Alpha virt. eigenvalues --    3.49045   3.49549   3.49944   3.50174   3.50462
 Alpha virt. eigenvalues --    3.50661   3.50796   3.50984   3.51164   3.51319
 Alpha virt. eigenvalues --    3.51487   3.51568   3.51831   3.51927   3.52049
 Alpha virt. eigenvalues --    3.53130   3.53421   3.54010   3.54091   3.54770
 Alpha virt. eigenvalues --    3.55037   3.55413   3.55683   3.56078   3.56461
 Alpha virt. eigenvalues --    3.56687   3.57155   3.57306   3.58280   3.58612
 Alpha virt. eigenvalues --    3.58700   3.58783   3.59074   3.59244   3.59695
 Alpha virt. eigenvalues --    3.60546   3.60854   3.60888   3.61111   3.61794
 Alpha virt. eigenvalues --    3.62536   3.62859   3.62976   3.63295   3.63542
 Alpha virt. eigenvalues --    3.64015   3.64063   3.64704   3.64981   3.65063
 Alpha virt. eigenvalues --    3.65174   3.65882   3.66177   3.66811   3.67128
 Alpha virt. eigenvalues --    3.68123   3.68641   3.69232   3.72752   3.73888
 Alpha virt. eigenvalues --    3.74997   3.75299   3.76374   3.77044   3.78225
 Alpha virt. eigenvalues --    3.78769   3.78805   3.79694   3.79946   3.80188
 Alpha virt. eigenvalues --    3.80580   3.81133   3.81537   3.82063   3.82316
 Alpha virt. eigenvalues --    3.82775   3.83156   3.84038   3.84613   3.85138
 Alpha virt. eigenvalues --    3.86074   3.86481   3.87032   3.88217   3.88824
 Alpha virt. eigenvalues --    3.88967   3.90108   3.90926   3.91035   3.91562
 Alpha virt. eigenvalues --    3.91684   3.92782   3.93458   3.94238   3.94329
 Alpha virt. eigenvalues --    3.94821   3.95073   3.95490   3.95772   3.95847
 Alpha virt. eigenvalues --    3.96261   3.96289   3.96351   3.96595   3.97318
 Alpha virt. eigenvalues --    3.97393   3.97782   3.98311   3.98598   3.99133
 Alpha virt. eigenvalues --    3.99480   3.99819   4.00089   4.01547   4.01665
 Alpha virt. eigenvalues --    4.02512   4.03278   4.04665   4.04809   4.06246
 Alpha virt. eigenvalues --    4.07168   4.07377   4.07576   4.07845   4.08198
 Alpha virt. eigenvalues --    4.08558   4.08842   4.09582   4.09792   4.09964
 Alpha virt. eigenvalues --    4.10209   4.10343   4.10728   4.10966   4.11160
 Alpha virt. eigenvalues --    4.11657   4.13231   4.13617   4.14372   4.14596
 Alpha virt. eigenvalues --    4.14977   4.15081   4.15670   4.15835   4.15980
 Alpha virt. eigenvalues --    4.16204   4.16758   4.17588   4.18009   4.18081
 Alpha virt. eigenvalues --    4.18175   4.18894   4.19036   4.19049   4.19340
 Alpha virt. eigenvalues --    4.19460   4.19755   4.20261   4.20560   4.20782
 Alpha virt. eigenvalues --    4.20961   4.21640   4.21862   4.22131   4.22354
 Alpha virt. eigenvalues --    4.22677   4.23198   4.24751   4.24922   4.25001
 Alpha virt. eigenvalues --    4.25809   4.26417   4.26647   4.26849   4.27348
 Alpha virt. eigenvalues --    4.27491   4.28157   4.28457   4.28626   4.29606
 Alpha virt. eigenvalues --    4.30129   4.30783   4.30823   4.31084   4.31426
 Alpha virt. eigenvalues --    4.31848   4.32398   4.32720   4.33121   4.33324
 Alpha virt. eigenvalues --    4.33634   4.34525   4.35133   4.36473   4.36737
 Alpha virt. eigenvalues --    4.38731   4.39625   4.39680   4.39987   4.41857
 Alpha virt. eigenvalues --    4.42439   4.42648   4.42677   4.43179   4.45719
 Alpha virt. eigenvalues --    4.45928   4.47061   4.47690   4.48911   4.50673
 Alpha virt. eigenvalues --    4.51887   4.52094   4.52925   4.54438   4.54662
 Alpha virt. eigenvalues --    4.54670   4.55234   4.55307   4.55594   4.56432
 Alpha virt. eigenvalues --    4.56635   4.57749   4.58048   4.59286   4.60251
 Alpha virt. eigenvalues --    4.60696   4.61146   4.61693   4.63777   4.63889
 Alpha virt. eigenvalues --    4.66385   4.66788   4.67310   4.69207   4.69379
 Alpha virt. eigenvalues --    4.70507   4.70634   4.70954   4.71533   4.72084
 Alpha virt. eigenvalues --    4.72264   4.73648   4.73842   4.74477   4.74983
 Alpha virt. eigenvalues --    4.75172   4.76610   4.76676   4.77953   4.80486
 Alpha virt. eigenvalues --    4.80767   4.80946   4.81899   4.81944   4.82065
 Alpha virt. eigenvalues --    4.82431   4.83215   4.83376   4.84471   4.85133
 Alpha virt. eigenvalues --    4.85706   4.86158   4.86280   4.86893   4.88768
 Alpha virt. eigenvalues --    4.90831   4.91391   4.92413   4.94314   4.95002
 Alpha virt. eigenvalues --    4.95579   4.95803   4.96406   4.96693   4.97022
 Alpha virt. eigenvalues --    4.97949   4.99393   4.99965   5.00270   5.00992
 Alpha virt. eigenvalues --    5.02972   5.03299   5.05149   5.06406   5.06529
 Alpha virt. eigenvalues --    5.08398   5.08489   5.08701   5.09939   5.10733
 Alpha virt. eigenvalues --    5.12819   5.13364   5.13808   5.17080   5.17187
 Alpha virt. eigenvalues --    5.17577   5.17992   5.18246   5.18861   5.19927
 Alpha virt. eigenvalues --    5.21000   5.22818   5.23288   5.24960   5.25350
 Alpha virt. eigenvalues --    5.27088   5.29533   5.31016   5.31911   5.32575
 Alpha virt. eigenvalues --    5.33593   5.33789   5.34617   5.35009   5.35327
 Alpha virt. eigenvalues --    5.35506   5.35560   5.36199   5.36322   5.36511
 Alpha virt. eigenvalues --    5.39126   5.40909   5.43987   5.44265   5.46813
 Alpha virt. eigenvalues --    5.47138   5.51394   5.53836   5.55252   5.56368
 Alpha virt. eigenvalues --    5.57013   5.57794   5.58310   5.58784   5.59175
 Alpha virt. eigenvalues --    5.60967   5.61047   5.62370   5.63148   5.63964
 Alpha virt. eigenvalues --    5.64157   5.66653   5.69022   5.70519   5.72827
 Alpha virt. eigenvalues --    5.74180   5.75171   5.75902   5.76059   5.76314
 Alpha virt. eigenvalues --    5.78491   5.79328   5.80530   5.81658   5.83049
 Alpha virt. eigenvalues --    5.86214   5.90071   5.90581   5.91566   5.94569
 Alpha virt. eigenvalues --    6.04778   6.10160   6.15091   6.16443   6.17622
 Alpha virt. eigenvalues --    6.27101   6.28555   6.31665   6.41261   6.43662
 Alpha virt. eigenvalues --    6.44490   6.48335  10.68328  10.89179  11.33940
 Alpha virt. eigenvalues --   22.16964  22.17837  22.20401  22.40222  22.40608
 Alpha virt. eigenvalues --   22.41143  22.51170  22.52470  22.52760  22.52780
 Alpha virt. eigenvalues --   22.56562  22.57061  22.58315  22.58514  22.59104
 Alpha virt. eigenvalues --   22.60139  22.65867  22.65986  22.66861  22.68066
 Alpha virt. eigenvalues --   22.68781  22.69312  22.84445  22.84796  22.85094
 Alpha virt. eigenvalues --   22.86749  22.92606  22.93291  22.93519  23.02978
 Alpha virt. eigenvalues --   23.10005  23.11075  23.14030  23.14315  23.14762
 Alpha virt. eigenvalues --   23.44441  23.44552  23.44687  23.46513  23.69443
 Alpha virt. eigenvalues --   23.70105  23.70288  23.72849  23.82948  26.37422
 Alpha virt. eigenvalues --   32.19458  32.20228  33.31327  33.34149  33.36056
          Condensed to atoms (all electrons):
 Mulliken charges:
               1
     1  C    0.096424
     2  C   -0.060408
     3  C    0.119379
     4  C    0.176448
     5  C    0.043931
     6  C    0.193157
     7  C   -0.212285
     8  C   -0.221764
     9  N   -0.018501
    10  N   -0.018338
    11  N    0.096709
    12  C    0.104334
    13  C    0.117322
    14  C   -0.255596
    15  C    0.014807
    16  C   -0.261487
    17  C    0.009808
    18  C   -0.114137
    19  H    0.139951
    20  C   -0.231549
    21  C   -0.117887
    22  H    0.151250
    23  C   -0.233174
    24  C   -0.137191
    25  H    0.142460
    26  H    0.137953
    27  C   -0.137960
    28  H    0.141232
    29  H    0.137951
    30  H    0.138652
    31  H    0.138312
    32  N    0.099299
    33  C    0.115022
    34  C    0.098852
    35  C   -0.258587
    36  C    0.006763
    37  C   -0.248137
    38  C    0.007574
    39  C   -0.116333
    40  H    0.150183
    41  C   -0.230997
    42  C   -0.113595
    43  H    0.142846
    44  C   -0.229239
    45  C   -0.138635
    46  H    0.141382
    47  H    0.138184
    48  C   -0.138153
    49  H    0.142652
    50  H    0.138070
    51  H    0.138336
    52  H    0.138727
    53  N    0.112634
    54  C    0.106993
    55  C    0.105982
    56  C   -0.259854
    57  C    0.001069
    58  C   -0.258323
    59  C    0.001402
    60  C   -0.107433
    61  H    0.145852
    62  C   -0.226441
    63  C   -0.108907
    64  H    0.146524
    65  C   -0.225930
    66  C   -0.141660
    67  H    0.141998
    68  H    0.138300
    69  C   -0.141164
    70  H    0.141807
    71  H    0.138402
    72  H    0.138403
    73  H    0.138389
    74  Cl  -0.052058
 Sum of Mulliken charges =  -0.00000
 Mulliken charges with hydrogens summed into heavy atoms:
               1
     1  C    0.096424
     2  C   -0.060408
     3  C    0.119379
     4  C    0.176448
     5  C    0.043931
     6  C    0.193157
     7  C   -0.212285
     8  C   -0.221764
     9  N   -0.018501
    10  N   -0.018338
    11  N    0.096709
    12  C    0.104334
    13  C    0.117322
    14  C   -0.115646
    15  C    0.014807
    16  C   -0.110237
    17  C    0.009808
    18  C    0.028323
    20  C   -0.093596
    21  C    0.023345
    23  C   -0.095222
    24  C    0.001460
    27  C    0.000351
    32  N    0.099299
    33  C    0.115022
    34  C    0.098852
    35  C   -0.108405
    36  C    0.006763
    37  C   -0.105292
    38  C    0.007574
    39  C    0.025049
    41  C   -0.092813
    42  C    0.029058
    44  C   -0.091169
    45  C   -0.000299
    48  C    0.000574
    53  N    0.112634
    54  C    0.106993
    55  C    0.105982
    56  C   -0.114002
    57  C    0.001069
    58  C   -0.111799
    59  C    0.001402
    60  C    0.034564
    62  C   -0.088141
    63  C    0.032901
    65  C   -0.087528
    66  C   -0.003257
    69  C   -0.002775
    74  Cl  -0.052058
 Electronic spatial extent (au):  <R**2>=          28156.1489
 Charge=             -0.0000 electrons
 Dipole moment (field-independent basis, Debye):
    X=              0.4801    Y=             -3.6749    Z=              0.0371  Tot=              3.7063
 Quadrupole moment (field-independent basis, Debye-Ang):
   XX=           -305.7124   YY=           -288.5733   ZZ=           -261.8865
   XY=             -3.4715   XZ=            -19.6435   YZ=             -2.3988
 Traceless Quadrupole moment (field-independent basis, Debye-Ang):
   XX=            -20.3216   YY=             -3.1826   ZZ=             23.5042
   XY=             -3.4715   XZ=            -19.6435   YZ=             -2.3988
 Octapole moment (field-independent basis, Debye-Ang**2):
  XXX=            106.0203  YYY=            101.0530  ZZZ=              1.0055  XYY=            -99.2221
  XXY=           -201.4743  XXZ=             32.7519  XZZ=              7.5997  YZZ=            -26.0656
  YYZ=            -33.2524  XYZ=            -77.9531
 Hexadecapole moment (field-independent basis, Debye-Ang**3):
 XXXX=         -16152.7106 YYYY=         -15137.8344 ZZZZ=          -5920.9867 XXXY=              1.5649
 XXXZ=           -310.4374 YYYX=           -107.1908 YYYZ=             -5.9425 ZZZX=           -209.9219
 ZZZY=            -28.7304 XXYY=          -5309.8616 XXZZ=          -3563.5690 YYZZ=          -3512.4060
 XXYZ=            -34.1646 YYXZ=            -26.8643 ZZXY=             -6.4123
 N-N= 6.219780710621D+03 E-N=-1.809563803868D+04  KE= 2.416303926026D+03
 Leave Link  601 at Sat Jul  2 15:02:56 2022, MaxMem=  5242880000 cpu:        11.9
 (Enter /opt/nce/packages/global/g09/l9999.exe)
 1\1\GINC-CN083\SP\RTPSSTPSS TD-FC\def2TZVP\C44H24Cl1N5\PNG4RJV\02-Jul-
 2022\0\\#p TPSSTPSS/def2TZVP td=(NStates=50) int=ultrafine scrf=(SMD,s
 olvent=Acetonitrile)\\Title\\0,1\C,0,1.317187,-0.477139,0.160609\C,0,0
 .242705,-1.370199,0.021936\C,0,-1.070901,-0.897341,-0.136485\C,0,-1.29
 9065,0.495852,-0.166957\C,0,-0.242107,1.411804,-0.007207\C,0,1.062723,
 0.911375,0.162169\C,0,-2.613596,0.978851,-0.441196\C,0,2.139088,1.8142
 87,0.410845\N,0,-3.67839,1.373071,-0.686239\N,0,3.010337,2.549805,0.63
 2667\N,0,2.636877,-0.943543,0.341578\C,0,3.150114,-1.513224,1.519138\C
 ,0,3.649558,-0.937313,-0.634072\C,0,2.520222,-1.709834,2.748557\C,0,4.
 505005,-1.866679,1.295878\C,0,3.59569,-0.499904,-1.957869\C,0,4.82101,
 -1.503844,-0.070262\C,0,3.275726,-2.288318,3.768341\H,0,1.484985,-1.42
 3926,2.910438\C,0,5.241387,-2.442831,2.340023\C,0,4.757273,-0.623836,-
 2.720215\H,0,2.688668,-0.081063,-2.383293\C,0,5.973004,-1.617984,-0.86
 0362\C,0,4.619243,-2.652465,3.568813\H,0,2.813642,-2.457537,4.737218\H
 ,0,6.282047,-2.719198,2.192555\C,0,5.933341,-1.173301,-2.180052\H,0,4.
 748348,-0.289424,-3.754125\H,0,6.881548,-2.050007,-0.449252\H,0,5.1777
 6,-3.099831,4.386424\H,0,6.819529,-1.255083,-2.803419\N,0,-2.151579,-1
 .785521,-0.3109\C,0,-3.154896,-2.058597,0.637019\C,0,-2.399008,-2.5545
 95,-1.46137\C,0,-3.308326,-1.554422,1.928736\C,0,-4.047894,-3.011507,0
 .084739\C,0,-1.691104,-2.591899,-2.663055\C,0,-3.570839,-3.322906,-1.2
 47141\C,0,-4.397359,-2.013893,2.66958\H,0,-2.611194,-0.834297,2.346042
 \C,0,-5.131578,-3.458079,0.852996\C,0,-2.172918,-3.437296,-3.662386\H,
 0,-0.803102,-1.986971,-2.821064\C,0,-4.03442,-4.16121,-2.270148\C,0,-5
 .300258,-2.952544,2.140206\H,0,-4.546039,-1.63775,3.678168\H,0,-5.8269
 57,-4.189747,0.450318\C,0,-3.32853,-4.214993,-3.470078\H,0,-1.642952,-
 3.491175,-4.609546\H,0,-4.932599,-4.756648,-2.129499\H,0,-6.136724,-3.
 289491,2.746289\H,0,-3.676383,-4.860984,-4.271479\N,0,-0.485692,2.7993
 22,-0.019162\C,0,-0.05877,3.703356,-1.011509\C,0,-1.206623,3.514263,0.
 956979\C,0,0.65251,3.453654,-2.185531\C,0,-0.512204,5.00057,-0.664151\
 C,0,-1.789575,3.0515,2.136964\C,0,-1.236231,4.881307,0.584556\C,0,0.92
 5927,4.543182,-3.012469\H,0,0.981438,2.454395,-2.453652\C,0,-0.225892,
 6.076816,-1.514774\C,0,-2.431151,3.990245,2.944903\H,0,-1.746629,2.005
 295,2.423395\C,0,-1.885284,5.803625,1.416392\C,0,0.496006,5.840213,-2.
 682359\H,0,1.481376,4.380879,-3.932198\H,0,-0.566327,7.078842,-1.26774
 \C,0,-2.482635,5.349537,2.590026\H,0,-2.897787,3.659899,3.868941\H,0,-
 1.917708,6.856763,1.150268\H,0,0.726158,6.665315,-3.350782\H,0,-2.9903
 9,6.053094,3.244028\Cl,0,0.539358,-3.068765,0.051048\\Version=ES64L-G0
 9RevE.01\State=1-A\HF=-2426.2488042\RMSD=2.377e-09\PG=C01 [X(C44H24Cl1
 N5)]\\@


 Everywhere is walking distance if you have the time.
                                    -- Steven Wright
 Job cpu time:       7 days 19 hours 19 minutes 12.4 seconds.
 File lengths (MBytes):  RWF=  17504 Int=      0 D2E=      0 Chk=   4019 Scr=      1
 Normal termination of Gaussian 09 at Sat Jul  2 15:03:03 2022.
