
                                 *****************
                                 * O   R   C   A *
                                 *****************

                                            #,                                       
                                            ###                                      
                                            ####                                     
                                            #####                                    
                                            ######                                   
                                           ########,                                 
                                     ,,################,,,,,                         
                               ,,#################################,,                 
                          ,,##########################################,,             
                       ,#########################################, ''#####,          
                    ,#############################################,,   '####,        
                  ,##################################################,,,,####,       
                ,###########''''           ''''###############################       
              ,#####''   ,,,,##########,,,,          '''####'''          '####       
            ,##' ,,,,###########################,,,                        '##       
           ' ,,###''''                  '''############,,,                           
         ,,##''                                '''############,,,,        ,,,,,,###''
      ,#''                                            '''#######################'''  
     '                                                          ''''####''''         
             ,#######,   #######,   ,#######,      ##                                
            ,#'     '#,  ##    ##  ,#'     '#,    #''#        ######   ,####,        
            ##       ##  ##   ,#'  ##            #'  '#       #        #'  '#        
            ##       ##  #######   ##           ,######,      #####,   #    #        
            '#,     ,#'  ##    ##  '#,     ,#' ,#      #,         ##   #,  ,#        
             '#######'   ##     ##  '#######'  #'      '#     #####' # '####'        



                  #######################################################
                  #                        -***-                        #
                  #          Department of theory and spectroscopy      #
                  #    Directorship and core code : Frank Neese         #
                  #        Max Planck Institute fuer Kohlenforschung    #
                  #                Kaiser Wilhelm Platz 1               #
                  #                 D-45470 Muelheim/Ruhr               #
                  #                      Germany                        #
                  #                                                     #
                  #                  All rights reserved                #
                  #                        -***-                        #
                  #######################################################


                         Program Version 5.0.2 -  RELEASE  -


 With contributions from (in alphabetic order):
   Daniel Aravena         : Magnetic Suceptibility
   Michael Atanasov       : Ab Initio Ligand Field Theory (pilot matlab implementation)
   Alexander A. Auer      : GIAO ZORA, VPT2 properties, NMR spectrum
   Ute Becker             : Parallelization
   Giovanni Bistoni       : ED, misc. LED, open-shell LED, HFLD
   Martin Brehm           : Molecular dynamics
   Dmytro Bykov           : SCF Hessian
   Vijay G. Chilkuri      : MRCI spin determinant printing, contributions to CSF-ICE
   Dipayan Datta          : RHF DLPNO-CCSD density
   Achintya Kumar Dutta   : EOM-CC, STEOM-CC
   Dmitry Ganyushin       : Spin-Orbit,Spin-Spin,Magnetic field MRCI
   Miquel Garcia          : C-PCM and meta-GGA Hessian, CC/C-PCM, Gaussian charge scheme
   Yang Guo               : DLPNO-NEVPT2, F12-NEVPT2, CIM, IAO-localization
   Andreas Hansen         : Spin unrestricted coupled pair/coupled cluster methods
   Benjamin Helmich-Paris : MC-RPA, TRAH-SCF, COSX integrals
   Lee Huntington         : MR-EOM, pCC
   Robert Izsak           : Overlap fitted RIJCOSX, COSX-SCS-MP3, EOM
   Marcus Kettner         : VPT2
   Christian Kollmar      : KDIIS, OOCD, Brueckner-CCSD(T), CCSD density, CASPT2, CASPT2-K
   Simone Kossmann        : Meta GGA functionals, TD-DFT gradient, OOMP2, MP2 Hessian
   Martin Krupicka        : Initial AUTO-CI
   Lucas Lang             : DCDCAS
   Marvin Lechner         : AUTO-CI (C++ implementation), FIC-MRCC
   Dagmar Lenk            : GEPOL surface, SMD
   Dimitrios Liakos       : Extrapolation schemes; Compound Job, initial MDCI parallelization
   Dimitrios Manganas     : Further ROCIS development; embedding schemes
   Dimitrios Pantazis     : SARC Basis sets
   Anastasios Papadopoulos: AUTO-CI, single reference methods and gradients
   Taras Petrenko         : DFT Hessian,TD-DFT gradient, ASA, ECA, R-Raman, ABS, FL, XAS/XES, NRVS
   Peter Pinski           : DLPNO-MP2, DLPNO-MP2 Gradient
   Christoph Reimann      : Effective Core Potentials
   Marius Retegan         : Local ZFS, SOC
   Christoph Riplinger    : Optimizer, TS searches, QM/MM, DLPNO-CCSD(T), (RO)-DLPNO pert. Triples
   Tobias Risthaus        : Range-separated hybrids, TD-DFT gradient, RPA, STAB
   Michael Roemelt        : Original ROCIS implementation
   Masaaki Saitow         : Open-shell DLPNO-CCSD energy and density
   Barbara Sandhoefer     : DKH picture change effects
   Avijit Sen             : IP-ROCIS
   Kantharuban Sivalingam : CASSCF convergence, NEVPT2, FIC-MRCI
   Bernardo de Souza      : ESD, SOC TD-DFT
   Georgi Stoychev        : AutoAux, RI-MP2 NMR, DLPNO-MP2 response
   Willem Van den Heuvel  : Paramagnetic NMR
   Boris Wezisla          : Elementary symmetry handling
   Frank Wennmohs         : Technical directorship


 We gratefully acknowledge several colleagues who have allowed us to
 interface, adapt or use parts of their codes:
   Stefan Grimme, W. Hujo, H. Kruse, P. Pracht,  : VdW corrections, initial TS optimization,
                  C. Bannwarth, S. Ehlert          DFT functionals, gCP, sTDA/sTD-DF
   Ed Valeev, F. Pavosevic, A. Kumar             : LibInt (2-el integral package), F12 methods
   Garnet Chan, S. Sharma, J. Yang, R. Olivares  : DMRG
   Ulf Ekstrom                                   : XCFun DFT Library
   Mihaly Kallay                                 : mrcc  (arbitrary order and MRCC methods)
   Jiri Pittner, Ondrej Demel                    : Mk-CCSD
   Frank Weinhold                                : gennbo (NPA and NBO analysis)
   Christopher J. Cramer and Donald G. Truhlar   : smd solvation model
   Lars Goerigk                                  : TD-DFT with DH, B97 family of functionals
   V. Asgeirsson, H. Jonsson                     : NEB implementation
   FAccTs GmbH                                   : IRC, NEB, NEB-TS, DLPNO-Multilevel, CI-OPT
                                                   MM, QMMM, 2- and 3-layer-ONIOM, Crystal-QMMM,
                                                   LR-CPCM, SF, NACMEs, symmetry and pop. for TD-DFT,
                                                   nearIR, NL-DFT gradient (VV10), updates on ESD,
                                                   ML-optimized integration grids
   S Lehtola, MJT Oliveira, MAL Marques          : LibXC Library
   Liviu Ungur et al                             : ANISO software


 Your calculation uses the libint2 library for the computation of 2-el integrals
 For citations please refer to: http://libint.valeyev.net

 Your ORCA version has been built with support for libXC version: 5.1.0
 For citations please refer to: https://tddft.org/programs/libxc/

 This ORCA versions uses:
   CBLAS   interface :  Fast vector & matrix operations
   LAPACKE interface :  Fast linear algebra routines
   SCALAPACK package :  Parallel linear algebra routines
   Shared memory     :  Shared parallel matrices
   BLAS/LAPACK       :  OpenBLAS 0.3.15  USE64BITINT DYNAMIC_ARCH NO_AFFINITY Zen SINGLE_THREADED
        Core in use  :  Zen
   Copyright (c) 2011-2014, The OpenBLAS Project


Your calculation utilizes the SMD solvation module
Please cite in your paper:
A.V. Marenich, C.J. Cramer, D.G. Truhlar J. Phys. Chem. B, 113, (2009), 6378 

================================================================================

----- Orbital basis set information -----
Your calculation utilizes the basis: def2-TZVP
   F. Weigend and R. Ahlrichs, Phys. Chem. Chem. Phys. 7, 3297 (2005).

----- AuxJ basis set information -----
Your calculation utilizes the auxiliary basis: def2/J
   F. Weigend, Phys. Chem. Chem. Phys. 8, 1057 (2006).

----- AuxC basis set information -----
Your calculation utilizes the auxiliary basis: def2-TZVP/C
  H-La, Hf-Rn : A. Hellweg, C. Hattig, S. Hofener and W. Klopper, Theor. Chem. Acc. 117, 587 (2007).
        Ce-Lu : J. Chmela and M. E. Harding, Mol. Phys. (2018).

================================================================================
                                        WARNINGS
                       Please study these warnings very carefully!
================================================================================


WARNING: Post HF methods need fully converged wavefunctions
  ===> : Setting SCFConvForced true
         You can overwrite this default with %scf ConvForced false 


WARNING: MDCI localization with Augmented Hessian Foster-Boys
  ===> : Switching off randomization!

INFO   : the flag for use of the SHARK integral package has been found!

================================================================================
                                       INPUT FILE
================================================================================
NAME = PA_1_STEOM-DLPNO-CCSD_DEF2-TZVP_RIJCOSX_SMD_suretoconv.inp
|  1> %maxcore 32000
|  2> %pal
|  3>  nprocs= 4
|  4> end
|  5> !STEOM-DLPNO-CCSD DEF2-TZVP DEF2-TZVP/C def2/J TightSCF TightPNO CPCM
|  6> %MDCI
|  7>    Dorootwise true
|  8>    OTHRESH 0.005
|  9>    VTHRESH 0.005
| 10>    TCutPNOSingles 1e-11
| 11>    DTol 1e-5
| 12>    NROOTS  25
| 13>    DOSOLV  TRUE
| 14>    MAXITER 500
| 15> END
| 16> %CPCM
| 17>    SMD          TRUE
| 18>    SMDsolvent   "N,N-DIMETHYLFORMAMIDE"
| 19> END
| 20> 
| 21> 
| 22> * xyz 0 1
| 23> C                   0.68932400   -3.64378400    0.00004200
| 24> C                   1.38003700   -2.43359300    0.00004800
| 25> C                   0.70476900   -1.21932900    0.00003100
| 26> C                  -0.70477600   -1.21932500    0.00005900
| 27> C                  -1.38005700   -2.43358000    0.00003100
| 28> C                  -0.68935600   -3.64377700    0.00001900
| 29> C                  -0.70476900    1.21932900   -0.00000200
| 30> C                   0.70477700    1.21932400   -0.00009000
| 31> C                   1.38005600    2.43358200   -0.00030700
| 32> H                   2.46138000    2.43402900   -0.00042300
| 33> C                   0.68935500    3.64377800   -0.00036700
| 34> C                  -0.68932600    3.64378300   -0.00022100
| 35> C                  -1.38003800    2.43359200   -0.00005200
| 36> H                   2.46136100   -2.43405500    0.00007000
| 37> H                  -2.46138100   -2.43402700    0.00003600
| 38> H                  -1.24454000   -4.57263300   -0.00000100
| 39> H                   1.24453800    4.57263400   -0.00052600
| 40> H                  -1.24450200    4.57264300   -0.00024400
| 41> N                   1.38907800   -0.00000400    0.00003800
| 42> C                  -2.81718700    0.00000400    0.00008900
| 43> C                  -3.50829500   -0.00010200    1.20463900
| 44> C                  -3.50818700    0.00011100   -1.20452700
| 45> C                  -4.89502400   -0.00010300    1.20212500
| 46> C                  -4.89491500    0.00011400   -1.20213700
| 47> C                  -5.58872000    0.00000700   -0.00003600
| 48> H                  -5.43460900   -0.00018700    2.14065000
| 49> H                  -5.43441600    0.00019900   -2.14071000
| 50> H                  -2.95224600   -0.00018600    2.13431600
| 51> H                  -2.95205700    0.00019300   -2.13415600
| 52> H                  -6.67129700    0.00000800   -0.00008600
| 53> H                   1.24449900   -4.57264400    0.00005700
| 54> N                  -1.38907700    0.00000400    0.00016300
| 55> C                   2.81718700   -0.00000400    0.00005600
| 56> C                   3.50821800    0.00061200    1.20465200
| 57> C                   3.50826600   -0.00062100   -1.20451300
| 58> C                   4.89494600    0.00062000    1.20222900
| 59> H                   2.95210800    0.00109100    2.13429300
| 60> C                   4.89499500   -0.00063200   -1.20203300
| 61> H                   2.95219700   -0.00109900   -2.13417800
| 62> C                   5.58872100   -0.00000700    0.00011200
| 63> H                   5.43447100    0.00110500    2.14078800
| 64> H                   5.43455600   -0.00111800   -2.14057100
| 65> H                   6.67129800   -0.00000800    0.00013500
| 66> H                  -2.46136100    2.43405200    0.00004800
| 67> *
| 68> 
| 69> 
| 70>                          ****END OF INPUT****
================================================================================

                       ****************************
                       * Single Point Calculation *
                       ****************************

---------------------------------
CARTESIAN COORDINATES (ANGSTROEM)
---------------------------------
  C      0.689324   -3.643784    0.000042
  C      1.380037   -2.433593    0.000048
  C      0.704769   -1.219329    0.000031
  C     -0.704776   -1.219325    0.000059
  C     -1.380057   -2.433580    0.000031
  C     -0.689356   -3.643777    0.000019
  C     -0.704769    1.219329   -0.000002
  C      0.704777    1.219324   -0.000090
  C      1.380056    2.433582   -0.000307
  H      2.461380    2.434029   -0.000423
  C      0.689355    3.643778   -0.000367
  C     -0.689326    3.643783   -0.000221
  C     -1.380038    2.433592   -0.000052
  H      2.461361   -2.434055    0.000070
  H     -2.461381   -2.434027    0.000036
  H     -1.244540   -4.572633   -0.000001
  H      1.244538    4.572634   -0.000526
  H     -1.244502    4.572643   -0.000244
  N      1.389078   -0.000004    0.000038
  C     -2.817187    0.000004    0.000089
  C     -3.508295   -0.000102    1.204639
  C     -3.508187    0.000111   -1.204527
  C     -4.895024   -0.000103    1.202125
  C     -4.894915    0.000114   -1.202137
  C     -5.588720    0.000007   -0.000036
  H     -5.434609   -0.000187    2.140650
  H     -5.434416    0.000199   -2.140710
  H     -2.952246   -0.000186    2.134316
  H     -2.952057    0.000193   -2.134156
  H     -6.671297    0.000008   -0.000086
  H      1.244499   -4.572644    0.000057
  N     -1.389077    0.000004    0.000163
  C      2.817187   -0.000004    0.000056
  C      3.508218    0.000612    1.204652
  C      3.508266   -0.000621   -1.204513
  C      4.894946    0.000620    1.202229
  H      2.952108    0.001091    2.134293
  C      4.894995   -0.000632   -1.202033
  H      2.952197   -0.001099   -2.134178
  C      5.588721   -0.000007    0.000112
  H      5.434471    0.001105    2.140788
  H      5.434556   -0.001118   -2.140571
  H      6.671298   -0.000008    0.000135
  H     -2.461361    2.434052    0.000048

----------------------------
CARTESIAN COORDINATES (A.U.)
----------------------------
  NO LB      ZA    FRAG     MASS         X           Y           Z
   0 C     6.0000    0    12.011    1.302634   -6.885754    0.000079
   1 C     6.0000    0    12.011    2.607892   -4.598824    0.000091
   2 C     6.0000    0    12.011    1.331820   -2.304198    0.000059
   3 C     6.0000    0    12.011   -1.331834   -2.304190    0.000111
   4 C     6.0000    0    12.011   -2.607930   -4.598800    0.000059
   5 C     6.0000    0    12.011   -1.302694   -6.885741    0.000036
   6 C     6.0000    0    12.011   -1.331820    2.304198   -0.000004
   7 C     6.0000    0    12.011    1.331836    2.304188   -0.000170
   8 C     6.0000    0    12.011    2.607928    4.598804   -0.000580
   9 H     1.0000    0     1.008    4.651334    4.599648   -0.000799
  10 C     6.0000    0    12.011    1.302692    6.885743   -0.000694
  11 C     6.0000    0    12.011   -1.302637    6.885752   -0.000418
  12 C     6.0000    0    12.011   -2.607894    4.598822   -0.000098
  13 H     1.0000    0     1.008    4.651298   -4.599697    0.000132
  14 H     1.0000    0     1.008   -4.651336   -4.599644    0.000068
  15 H     1.0000    0     1.008   -2.351840   -8.641024   -0.000002
  16 H     1.0000    0     1.008    2.351836    8.641026   -0.000994
  17 H     1.0000    0     1.008   -2.351768    8.641043   -0.000461
  18 N     7.0000    0    14.007    2.624977   -0.000008    0.000072
  19 C     6.0000    0    12.011   -5.323712    0.000008    0.000168
  20 C     6.0000    0    12.011   -6.629717   -0.000193    2.276438
  21 C     6.0000    0    12.011   -6.629513    0.000210   -2.276226
  22 C     6.0000    0    12.011   -9.250255   -0.000195    2.271687
  23 C     6.0000    0    12.011   -9.250049    0.000215   -2.271710
  24 C     6.0000    0    12.011  -10.561150    0.000013   -0.000068
  25 H     1.0000    0     1.008  -10.269923   -0.000353    4.045242
  26 H     1.0000    0     1.008  -10.269558    0.000376   -4.045356
  27 H     1.0000    0     1.008   -5.578936   -0.000351    4.033273
  28 H     1.0000    0     1.008   -5.578579    0.000365   -4.032970
  29 H     1.0000    0     1.008  -12.606924    0.000015   -0.000163
  30 H     1.0000    0     1.008    2.351762   -8.641045    0.000108
  31 N     7.0000    0    14.007   -2.624975    0.000008    0.000308
  32 C     6.0000    0    12.011    5.323712   -0.000008    0.000106
  33 C     6.0000    0    12.011    6.629571    0.001157    2.276462
  34 C     6.0000    0    12.011    6.629662   -0.001174   -2.276200
  35 C     6.0000    0    12.011    9.250107    0.001172    2.271884
  36 H     1.0000    0     1.008    5.578676    0.002062    4.033229
  37 C     6.0000    0    12.011    9.250200   -0.001194   -2.271513
  38 H     1.0000    0     1.008    5.578844   -0.002077   -4.033012
  39 C     6.0000    0    12.011   10.561152   -0.000013    0.000212
  40 H     1.0000    0     1.008   10.269662    0.002088    4.045503
  41 H     1.0000    0     1.008   10.269822   -0.002113   -4.045093
  42 H     1.0000    0     1.008   12.606926   -0.000015    0.000255
  43 H     1.0000    0     1.008   -4.651298    4.599692    0.000091

--------------------------------
INTERNAL COORDINATES (ANGSTROEM)
--------------------------------
 C      0   0   0     0.000000000000     0.00000000     0.00000000
 C      1   0   0     1.393429834935     0.00000000     0.00000000
 C      2   1   0     1.389396967684   121.20555687     0.00000000
 C      3   2   1     1.409545000284   119.07916742     0.00000000
 C      4   3   2     1.389395420595   119.07949112     0.00000000
 C      1   2   3     1.378680000210   119.71514736     0.00000000
 C      4   3   2     2.438654000773    89.99999810   179.99999809
 C      7   4   3     1.409546002756    89.99996131     0.00000000
 C      8   7   4     1.389397087047   119.07931849   179.99318316
 H      9   8   7     1.081324098613   119.10320712   180.00293674
 C      9   8   7     1.393428230451   121.20557062     0.00000000
 C     11   9   8     1.378681007740   119.71511510     0.00000000
 C      7   4   3     1.389396580545   150.92077461   179.99719655
 H      2   1   3     1.081324098919   119.69095842   179.99976786
 H      5   4   3     1.081324092402   119.10333879   180.00099847
 H      6   1   2     1.082128801480   120.86677766   179.99907615
 H     11   9   8     1.082128299928   119.41806910   179.99930573
 H     12  11   9     1.082128130632   120.86680376   179.99874166
 N      8   7   4     1.398223389366   119.30184788     0.00000000
 C      4   3   2     2.439066100798   150.00569729   179.99912700
 C     20   4   3     1.388729988659   115.52965226   253.99055214
 C     20   4   3     1.388733494557   115.52882027   105.99583828
 C     21  20   4     1.386731278813   119.74108549   213.64250199
 C     22  20   4     1.386730059562   119.74098876   146.35797341
 C     23  21  20     1.387950007182   120.09057297     0.00000000
 H     23  21  20     1.082580784471   119.79196208   179.99991406
 H     24  22  20     1.082580533981   119.79196499   179.99990068
 H     21  20   4     1.083277352198   119.27098242    33.64231117
 H     22  20   4     1.083277739670   119.27122252   326.35785538
 H     25  23  21     1.082577001155   119.98934789   180.00011957
 H      1   2   3     1.082127617451   119.41801085   180.00008182
 N      7   4   3     1.398224202950    29.30179145   180.01012333
 C     19   8   7     1.428109000113   119.30164515   180.00493002
 C     33  19   8     1.388731703978   119.84197588    89.97630956
 C     33  19   8     1.388732170251   119.84280364   269.97626177
 C     34  33  19     1.386730116849   119.74114232   180.00044007
 H     34  33  19     1.083277873134   119.27094253     0.00000000
 C     35  33  19     1.386731217634   119.74105946   180.00058346
 H     35  33  19     1.083277422210   119.27118308     0.00000000
 C     38  35  33     1.387951279666   120.09056746     0.00000000
 H     36  34  33     1.082580462290   119.79206898   179.99969280
 H     38  35  33     1.082580198582   119.79191977   179.99967948
 H     40  38  35     1.082577000245   119.98931839   180.00052501
 H     13   7   4     1.081323102467   119.10343446     0.00000000

---------------------------
INTERNAL COORDINATES (A.U.)
---------------------------
 C      0   0   0     0.000000000000     0.00000000     0.00000000
 C      1   0   0     2.633200774862     0.00000000     0.00000000
 C      2   1   0     2.625579760223   121.20555687     0.00000000
 C      3   2   1     2.663654023974   119.07916742     0.00000000
 C      4   3   2     2.625576836649   119.07949112     0.00000000
 C      1   2   3     2.605327626711   119.71514736     0.00000000
 C      4   3   2     4.608388196852    89.99999810   179.99999809
 C      7   4   3     2.663655918372    89.99996131     0.00000000
 C      8   7   4     2.625579985786   119.07931849   179.99318316
 H      9   8   7     2.043406408388   119.10320712   180.00293674
 C      9   8   7     2.633197742826   121.20557062     0.00000000
 C     11   9   8     2.605329530666   119.71511510     0.00000000
 C      7   4   3     2.625579028637   150.92077461   179.99719655
 H      2   1   3     2.043406408967   119.69095842   179.99976786
 H      5   4   3     2.043406396652   119.10333879   180.00099847
 H      6   1   2     2.044927076425   120.86677766   179.99907615
 H     11   9   8     2.044926128631   119.41806910   179.99930573
 H     12  11   9     2.044925808707   120.86680376   179.99874166
 N      8   7   4     2.642259279944   119.30184788     0.00000000
 C      4   3   2     4.609166953039   150.00569729   179.99912700
 C     20   4   3     2.624319352529   115.52965226   253.99055214
 C     20   4   3     2.624325977716   115.52882027   105.99583828
 C     21  20   4     2.620542338299   119.74108549   213.64250199
 C     22  20   4     2.620540034249   119.74098876   146.35797341
 C     23  21  20     2.622845401148   120.09057297     0.00000000
 H     23  21  20     2.045781200496   119.79196208   179.99991406
 H     24  22  20     2.045780727139   119.79196499   179.99990068
 H     21  20   4     2.047097522734   119.27098242    33.64231117
 H     22  20   4     2.047098254950   119.27122252   326.35785538
 H     25  23  21     2.045774051065   119.98934789   180.00011957
 H      1   2   3     2.044924838935   119.41801085   180.00008182
 N      7   4   3     2.642260817395    29.30179145   180.01012333
 C     19   8   7     2.698734899603   119.30164515   180.00493002
 C     33  19   8     2.624322594012   119.84197588    89.97630956
 C     33  19   8     2.624323475141   119.84280364   269.97626177
 C     34  33  19     2.620540142506   119.74114232   180.00044007
 H     34  33  19     2.047098507160   119.27094253     0.00000000
 C     35  33  19     2.620542222688   119.74105946   180.00058346
 H     35  33  19     2.047097655037   119.27118308     0.00000000
 C     38  35  33     2.622847805794   120.09056746     0.00000000
 H     36  34  33     2.045780591661   119.79206898   179.99969280
 H     38  35  33     2.045780093325   119.79191977   179.99967948
 H     40  38  35     2.045774049345   119.98931839   180.00052501
 H     13   7   4     2.043404525945   119.10343446     0.00000000

---------------------
BASIS SET INFORMATION
---------------------
There are 3 groups of distinct atoms

 Group   1 Type C   : 11s6p2d1f contracted to 5s3p2d1f pattern {62111/411/11/1}
 Group   2 Type H   : 5s1p contracted to 3s1p pattern {311/1}
 Group   3 Type N   : 11s6p2d1f contracted to 5s3p2d1f pattern {62111/411/11/1}

Atom   0C    basis set group =>   1
Atom   1C    basis set group =>   1
Atom   2C    basis set group =>   1
Atom   3C    basis set group =>   1
Atom   4C    basis set group =>   1
Atom   5C    basis set group =>   1
Atom   6C    basis set group =>   1
Atom   7C    basis set group =>   1
Atom   8C    basis set group =>   1
Atom   9H    basis set group =>   2
Atom  10C    basis set group =>   1
Atom  11C    basis set group =>   1
Atom  12C    basis set group =>   1
Atom  13H    basis set group =>   2
Atom  14H    basis set group =>   2
Atom  15H    basis set group =>   2
Atom  16H    basis set group =>   2
Atom  17H    basis set group =>   2
Atom  18N    basis set group =>   3
Atom  19C    basis set group =>   1
Atom  20C    basis set group =>   1
Atom  21C    basis set group =>   1
Atom  22C    basis set group =>   1
Atom  23C    basis set group =>   1
Atom  24C    basis set group =>   1
Atom  25H    basis set group =>   2
Atom  26H    basis set group =>   2
Atom  27H    basis set group =>   2
Atom  28H    basis set group =>   2
Atom  29H    basis set group =>   2
Atom  30H    basis set group =>   2
Atom  31N    basis set group =>   3
Atom  32C    basis set group =>   1
Atom  33C    basis set group =>   1
Atom  34C    basis set group =>   1
Atom  35C    basis set group =>   1
Atom  36H    basis set group =>   2
Atom  37C    basis set group =>   1
Atom  38H    basis set group =>   2
Atom  39C    basis set group =>   1
Atom  40H    basis set group =>   2
Atom  41H    basis set group =>   2
Atom  42H    basis set group =>   2
Atom  43H    basis set group =>   2
---------------------------------
AUXILIARY/J BASIS SET INFORMATION
---------------------------------
There are 3 groups of distinct atoms

 Group   1 Type C   : 12s5p4d2f1g contracted to 6s4p3d1f1g pattern {711111/2111/211/2/1}
 Group   2 Type H   : 5s2p1d contracted to 3s1p1d pattern {311/2/1}
 Group   3 Type N   : 12s5p4d2f1g contracted to 6s4p3d1f1g pattern {711111/2111/211/2/1}

Atom   0C    basis set group =>   1
Atom   1C    basis set group =>   1
Atom   2C    basis set group =>   1
Atom   3C    basis set group =>   1
Atom   4C    basis set group =>   1
Atom   5C    basis set group =>   1
Atom   6C    basis set group =>   1
Atom   7C    basis set group =>   1
Atom   8C    basis set group =>   1
Atom   9H    basis set group =>   2
Atom  10C    basis set group =>   1
Atom  11C    basis set group =>   1
Atom  12C    basis set group =>   1
Atom  13H    basis set group =>   2
Atom  14H    basis set group =>   2
Atom  15H    basis set group =>   2
Atom  16H    basis set group =>   2
Atom  17H    basis set group =>   2
Atom  18N    basis set group =>   3
Atom  19C    basis set group =>   1
Atom  20C    basis set group =>   1
Atom  21C    basis set group =>   1
Atom  22C    basis set group =>   1
Atom  23C    basis set group =>   1
Atom  24C    basis set group =>   1
Atom  25H    basis set group =>   2
Atom  26H    basis set group =>   2
Atom  27H    basis set group =>   2
Atom  28H    basis set group =>   2
Atom  29H    basis set group =>   2
Atom  30H    basis set group =>   2
Atom  31N    basis set group =>   3
Atom  32C    basis set group =>   1
Atom  33C    basis set group =>   1
Atom  34C    basis set group =>   1
Atom  35C    basis set group =>   1
Atom  36H    basis set group =>   2
Atom  37C    basis set group =>   1
Atom  38H    basis set group =>   2
Atom  39C    basis set group =>   1
Atom  40H    basis set group =>   2
Atom  41H    basis set group =>   2
Atom  42H    basis set group =>   2
Atom  43H    basis set group =>   2
---------------------------------
AUXILIARY/C BASIS SET INFORMATION
---------------------------------
There are 3 groups of distinct atoms

 Group   1 Type C   : 8s6p5d3f1g contracted to 8s6p4d3f1g pattern {11111111/111111/2111/111/1}
 Group   2 Type H   : 4s3p2d contracted to 4s2p1d pattern {1111/21/2}
 Group   3 Type N   : 8s6p5d3f1g contracted to 8s6p4d3f1g pattern {11111111/111111/2111/111/1}

Atom   0C    basis set group =>   1
Atom   1C    basis set group =>   1
Atom   2C    basis set group =>   1
Atom   3C    basis set group =>   1
Atom   4C    basis set group =>   1
Atom   5C    basis set group =>   1
Atom   6C    basis set group =>   1
Atom   7C    basis set group =>   1
Atom   8C    basis set group =>   1
Atom   9H    basis set group =>   2
Atom  10C    basis set group =>   1
Atom  11C    basis set group =>   1
Atom  12C    basis set group =>   1
Atom  13H    basis set group =>   2
Atom  14H    basis set group =>   2
Atom  15H    basis set group =>   2
Atom  16H    basis set group =>   2
Atom  17H    basis set group =>   2
Atom  18N    basis set group =>   3
Atom  19C    basis set group =>   1
Atom  20C    basis set group =>   1
Atom  21C    basis set group =>   1
Atom  22C    basis set group =>   1
Atom  23C    basis set group =>   1
Atom  24C    basis set group =>   1
Atom  25H    basis set group =>   2
Atom  26H    basis set group =>   2
Atom  27H    basis set group =>   2
Atom  28H    basis set group =>   2
Atom  29H    basis set group =>   2
Atom  30H    basis set group =>   2
Atom  31N    basis set group =>   3
Atom  32C    basis set group =>   1
Atom  33C    basis set group =>   1
Atom  34C    basis set group =>   1
Atom  35C    basis set group =>   1
Atom  36H    basis set group =>   2
Atom  37C    basis set group =>   1
Atom  38H    basis set group =>   2
Atom  39C    basis set group =>   1
Atom  40H    basis set group =>   2
Atom  41H    basis set group =>   2
Atom  42H    basis set group =>   2
Atom  43H    basis set group =>   2


           ************************************************************
           *        Program running with 4 parallel MPI-processes     *
           *              working on a common directory               *
           ************************************************************
------------------------------------------------------------------------------
                           ORCA GTO INTEGRAL CALCULATION
------------------------------------------------------------------------------
------------------------------------------------------------------------------
                   ___                                                        
                  /   \      - P O W E R E D   B Y -                         
                 /     \                                                     
                 |  |  |   _    _      __       _____    __    __             
                 |  |  |  | |  | |    /  \     |  _  \  |  |  /  |          
                  \  \/   | |  | |   /    \    | | | |  |  | /  /          
                 / \  \   | |__| |  /  /\  \   | |_| |  |  |/  /          
                |  |  |   |  __  | /  /__\  \  |    /   |      \           
                |  |  |   | |  | | |   __   |  |    \   |  |\   \          
                \     /   | |  | | |  |  |  |  | |\  \  |  | \   \       
                 \___/    |_|  |_| |__|  |__|  |_| \__\ |__|  \__/        
                                                                              
                      - O R C A' S   B I G   F R I E N D -                    
                                      &                                       
                       - I N T E G R A L  F E E D E R -                       
                                                                              
 v1 FN, 2020, v2 2021                                                         
------------------------------------------------------------------------------


Reading SHARK input file PA_1_STEOM-DLPNO-CCSD_DEF2-TZVP_RIJCOSX_SMD_suretoconv.SHARKINP.tmp ... ok
----------------------
SHARK INTEGRAL PACKAGE
----------------------

Number of atoms                             ...     44
Number of basis functions                   ...    914
Number of shells                            ...    358
Maximum angular momentum                    ...      3
Integral batch strategy                     ... SHARK/LIBINT Hybrid
RI-J (if used) integral strategy            ... SPLIT-RIJ (Revised 2003 algorithm where possible)
Printlevel                                  ...      1
Contraction scheme used                     ... SEGMENTED contraction
Coulomb Range Separation                    ... NOT USED
Exchange Range Separation                   ... NOT USED
Finite Nucleus Model                        ... NOT USED
Auxiliary Coulomb fitting basis             ... AVAILABLE
   # of basis functions in Aux-J            ...   1472
   # of shells in Aux-J                     ...    480
   Maximum angular momentum in Aux-J        ...      4
Auxiliary J/K fitting basis                 ... NOT available
Auxiliary Correlation fitting basis         ... AVAILABLE
   # of basis functions in Aux-C            ...   2246
   # of shells in Aux-C                     ...    698
   Maximum angular momentum in Aux-C        ...      4
Auxiliary 'external' fitting basis          ... NOT available
Integral threshold                          ...     2.500000e-11
Primitive cut-off                           ...     2.500000e-12
Primitive pair pre-selection threshold      ...     2.500000e-12

Calculating pre-screening integrals         ... done (  0.1 sec) Dimension = 358
Organizing shell pair data                  ... done (  0.5 sec)
Shell pair information
Total number of shell pairs                 ...     64261
Shell pairs after pre-screening             ...     45040
Total number of primitive shell pairs       ...    198132
Primitive shell pairs kept                  ...     91262
          la=0 lb=0:  11290 shell pairs
          la=1 lb=0:  12886 shell pairs
          la=1 lb=1:   3670 shell pairs
          la=2 lb=0:   6512 shell pairs
          la=2 lb=1:   3744 shell pairs
          la=2 lb=2:    999 shell pairs
          la=3 lb=0:   3038 shell pairs
          la=3 lb=1:   1768 shell pairs
          la=3 lb=2:    906 shell pairs
          la=3 lb=3:    227 shell pairs

Calculating one electron integrals          ... done (  0.1 sec)
Calculating RI/J V-Matrix + Cholesky decomp.... done (  0.1 sec)
Calculating RI/C V-Matrix + Cholesky decomp.... done (  0.2 sec)
Calculating Nuclear repulsion               ... done (  0.0 sec) ENN=   2153.626086483224 Eh

SHARK setup successfully completed in   1.6 seconds

Maximum memory used throughout the entire GTOINT-calculation: 85.9 MB


           ************************************************************
           *        Program running with 4 parallel MPI-processes     *
           *              working on a common directory               *
           ************************************************************
-------------------------------------------------------------------------------
                                 ORCA SCF
-------------------------------------------------------------------------------

------------
SCF SETTINGS
------------
Hamiltonian:
 Ab initio Hamiltonian  Method          .... Hartree-Fock(GTOs)


General Settings:
 Integral files         IntName         .... PA_1_STEOM-DLPNO-CCSD_DEF2-TZVP_RIJCOSX_SMD_suretoconv
 Hartree-Fock type      HFTyp           .... RHF
 Total Charge           Charge          ....    0
 Multiplicity           Mult            ....    1
 Number of Electrons    NEL             ....  176
 Basis Dimension        Dim             ....  914
 Nuclear Repulsion      ENuc            ....   2153.6260864832 Eh

Convergence Acceleration:
 DIIS                   CNVDIIS         .... on
   Start iteration      DIISMaxIt       ....    12
   Startup error        DIISStart       ....  0.200000
   # of expansion vecs  DIISMaxEq       ....     5
   Bias factor          DIISBfac        ....   1.050
   Max. coefficient     DIISMaxC        ....  10.000
 Trust-Rad. Augm. Hess. CNVTRAH         .... auto
   Auto Start mean grad. ratio tolernc. ....  1.125000
   Auto Start start iteration           ....    20
   Auto Start num. interpolation iter.  ....    10
   Max. Number of Micro iterations      ....    16
   Max. Number of Macro iterations      .... Maxiter - #DIIS iter
   Number of Davidson start vectors     ....     2
   Converg. threshold I  (grad. norm)   ....   1.000e-05
   Converg. threshold II (energy diff.) ....   1.000e-08
   Grad. Scal. Fac. for Micro threshold ....   0.100
   Minimum threshold for Micro iter.    ....   0.010
   NR start threshold (gradient norm)   ....   0.001
   Initial trust radius                 ....   0.400
   Minimum AH scaling param. (alpha)    ....   1.000
   Maximum AH scaling param. (alpha)    .... 1000.000
   Orbital update algorithm             .... Taylor
   White noise on init. David. guess    .... on
   Maximum white noise                  ....   0.010
   Quad. conv. algorithm                .... NR
 SOSCF                  CNVSOSCF        .... on
   Start iteration      SOSCFMaxIt      ....   150
   Startup grad/error   SOSCFStart      ....  0.003300
 Level Shifting         CNVShift        .... on
   Level shift para.    LevelShift      ....    0.2500
   Turn off err/grad.   ShiftErr        ....    0.0010
 Zerner damping         CNVZerner       .... off
 Static damping         CNVDamp         .... on
   Fraction old density DampFac         ....    0.7000
   Max. Damping (<1)    DampMax         ....    0.9800
   Min. Damping (>=0)   DampMin         ....    0.0000
   Turn off err/grad.   DampErr         ....    0.1000
 Fernandez-Rico         CNVRico         .... off

SCF Procedure:
 Maximum # iterations   MaxIter         ....   125
 SCF integral mode      SCFMode         .... Direct
   Integral package                     .... SHARK and LIBINT hybrid scheme
 Reset frequency        DirectResetFreq ....    20
 Integral Threshold     Thresh          ....  2.500e-11 Eh
 Primitive CutOff       TCut            ....  2.500e-12 Eh

Convergence Tolerance:
 Convergence Check Mode ConvCheckMode   .... Total+1el-Energy
 Convergence forced     ConvForced      .... 1
 Energy Change          TolE            ....  1.000e-08 Eh
 1-El. energy change                    ....  1.000e-05 Eh
 Orbital Gradient       TolG            ....  1.000e-05
 Orbital Rotation angle TolX            ....  1.000e-05
 DIIS Error             TolErr          ....  5.000e-07


Diagonalization of the overlap matrix:
Smallest eigenvalue                        ... 3.489e-06
Time for diagonalization                   ...    0.208 sec
Threshold for overlap eigenvalues          ... 1.000e-08
Number of eigenvalues below threshold      ... 0
Time for construction of square roots      ...    0.073 sec
Total time needed                          ...    0.284 sec

Time for model grid setup =    0.415 sec

------------------------------
INITIAL GUESS: MODEL POTENTIAL
------------------------------
Loading Hartree-Fock densities                     ... done
Calculating cut-offs                               ... done
Initializing the effective Hamiltonian             ... done
Setting up the integral package (SHARK)            ... done
Starting the Coulomb interaction                   ... done (   1.2 sec)
Reading the grid                                   ... done
Mapping shells                                     ... done
Starting the XC term evaluation                    ... done (   0.3 sec)
Transforming the Hamiltonian                       ... done (   0.1 sec)
Diagonalizing the Hamiltonian                      ... done (   0.1 sec)
Back transforming the eigenvectors                 ... done (   0.0 sec)
Now organizing SCF variables                       ... done
                      ------------------
                      INITIAL GUESS DONE (   2.2 sec)
                      ------------------

--------------------
CPCM SOLVATION MODEL
--------------------
CPCM parameters:
  Epsilon                                         ...      37.2190
  Refrac                                          ...       1.4305
  Rsolv                                           ...       1.3000
  Surface type                                    ... GAUSSIAN VDW
  Epsilon function type                           ...         CPCM
Solvent:                                     ... N,N-DIMETHYLFORMAMIDE
SMD-CDS solvent descriptors:
  Soln                                       ...    1.4305
  Soln25                                     ...    1.4280
  Sola                                       ...    0.0000
  Solb                                       ...    0.7400
  Solg                                       ...   49.5600
  Solc                                       ...    0.0000
  Solh                                       ...    0.0000
Radii:
 Radius for C  used is    3.4960 Bohr (=   1.8500 Ang.)
 Radius for H  used is    2.2677 Bohr (=   1.2000 Ang.)
 Radius for N  used is    3.5716 Bohr (=   1.8900 Ang.)
Calculating surface                               ...        done! (  0.0s)
GEPOL surface points                              ...         2374
GEPOL Volume                                      ...    2291.2550
GEPOL Surface-area                                ...    1234.2780
Calculating surface distance matrix               ...        done! (  0.0s)
Performing Cholesky decomposition & store         ...        done! (  0.1s)
Overall time for CPCM initialization              ...                 0.2s
--------------
SCF ITERATIONS
--------------
ITER       Energy         Delta-E        Max-DP      RMS-DP      [F,P]     Damp
               ***  Starting incremental Fock matrix formation  ***
  0  -1027.5946915653   0.000000000000 0.04400998  0.00062142  0.2637350 0.7000
  1  -1027.9209882410  -0.326296675680 0.03653202  0.00051187  0.1920708 0.7000
                               ***Turning on DIIS***
  2  -1028.1297752240  -0.208786982994 0.02574694  0.00037973  0.1396283 0.7000
  3  -1030.7189718600  -2.589196635973 0.01846021  0.00029593  0.1014706 0.7000
  4  -1030.5421644595   0.176807400532 0.04650092  0.00076277  0.0723376 0.0000
  5  -1028.6514401277   1.890724331755 0.00422401  0.00008695  0.0037591 0.0000
                      *** Initiating the SOSCF procedure ***
                           *** Shutting down DIIS ***
                      *** Re-Reading the Fockian *** 
                      *** Removing any level shift *** 
ITER      Energy       Delta-E        Grad      Rot      Max-DP    RMS-DP
  6  -1028.57783234   0.0736077914  0.002965  0.002965  0.002468  0.000040
               *** Restarting incremental Fock matrix formation ***
  7  -1028.58096598  -0.0031336428  0.002345  0.006328  0.001534  0.000027
  8  -1028.58103060  -0.0000646175  0.000751  0.005662  0.001498  0.000025
  9  -1028.58105505  -0.0000244547  0.000211  0.000361  0.000837  0.000009
 10  -1028.58105733  -0.0000022795  0.000106  0.000322  0.000485  0.000005
 11  -1028.58105788  -0.0000005478  0.000042  0.000169  0.000056  0.000001
 12  -1028.58105796  -0.0000000809  0.000017  0.000059  0.000062  0.000001
 13  -1028.58105797  -0.0000000084  0.000003  0.000013  0.000033  0.000000
                  ***Gradient check signals convergence***
              ***Rediagonalizing the Fockian in SOSCF/NRSCF***

               *****************************************************
               *                     SUCCESS                       *
               *           SCF CONVERGED AFTER  14 CYCLES          *
               *****************************************************


SMD CDS free energy correction energy :                -4.06609     Kcal/mol
Total Energy after SMD CDS correction =             -1028.587537694 Eh

----------------
TOTAL SCF ENERGY
----------------

Total Energy       :        -1028.58753769 Eh          -27989.28985 eV

Components:
Nuclear Repulsion  :         2153.62608648 Eh           58603.14514 eV
Electronic Energy  :        -3182.21362418 Eh          -86592.43499 eV
One Electron Energy:        -5677.19389323 Eh         -154484.29966 eV
Two Electron Energy:         2494.98026905 Eh           67891.86468 eV
CPCM Dielectric    :           -0.02218188 Eh              -0.60360 eV
SMD CDS (Gcds)     :           -0.00647972 Eh              -0.17632 eV

Virial components:
Potential Energy   :        -2056.40702268 Eh          -55957.67992 eV
Kinetic Energy     :         1027.81948498 Eh           27968.39007 eV
Virial Ratio       :            2.00074726

CPCM Solvation Model Properties:
Surface-charge          :           -0.07054318
Charge-correction       :            0.00002383 Eh               0.00065 eV
Free-energy (cav+disp)  :           -0.00647972 Eh              -0.17632 eV

---------------
SCF CONVERGENCE
---------------

  Last Energy change         ...   -3.2369e-09  Tolerance :   1.0000e-08
  Last MAX-Density change    ...    1.4098e-05  Tolerance :   1.0000e-07
  Last RMS-Density change    ...    2.0073e-07  Tolerance :   5.0000e-09
  Last Orbital Gradient      ...    1.0301e-06  Tolerance :   1.0000e-05
  Last Orbital Rotation      ...    3.0627e-06  Tolerance :   1.0000e-05

             **** THE GBW FILE WAS UPDATED (PA_1_STEOM-DLPNO-CCSD_DEF2-TZVP_RIJCOSX_SMD_suretoconv.gbw) ****
             **** DENSITY PA_1_STEOM-DLPNO-CCSD_DEF2-TZVP_RIJCOSX_SMD_suretoconv.scfp WAS UPDATED ****
             **** ENERGY FILE WAS UPDATED (PA_1_STEOM-DLPNO-CCSD_DEF2-TZVP_RIJCOSX_SMD_suretoconv.en.tmp) ****
             **** THE GBW FILE WAS UPDATED (PA_1_STEOM-DLPNO-CCSD_DEF2-TZVP_RIJCOSX_SMD_suretoconv.gbw) ****
             **** DENSITY PA_1_STEOM-DLPNO-CCSD_DEF2-TZVP_RIJCOSX_SMD_suretoconv.scfp WAS UPDATED ****
----------------
ORBITAL ENERGIES
----------------

  NO   OCC          E(Eh)            E(eV) 
   0   2.0000     -15.587144      -424.1478 
   1   2.0000     -15.587142      -424.1477 
   2   2.0000     -11.282813      -307.0209 
   3   2.0000     -11.282786      -307.0202 
   4   2.0000     -11.281678      -306.9901 
   5   2.0000     -11.281668      -306.9898 
   6   2.0000     -11.270183      -306.6773 
   7   2.0000     -11.270183      -306.6773 
   8   2.0000     -11.233343      -305.6748 
   9   2.0000     -11.233343      -305.6748 
  10   2.0000     -11.232947      -305.6640 
  11   2.0000     -11.232947      -305.6640 
  12   2.0000     -11.232072      -305.6402 
  13   2.0000     -11.232072      -305.6402 
  14   2.0000     -11.231618      -305.6279 
  15   2.0000     -11.231618      -305.6279 
  16   2.0000     -11.231133      -305.6147 
  17   2.0000     -11.231133      -305.6147 
  18   2.0000     -11.224767      -305.4414 
  19   2.0000     -11.224767      -305.4414 
  20   2.0000     -11.224729      -305.4404 
  21   2.0000     -11.224729      -305.4404 
  22   2.0000     -11.222447      -305.3783 
  23   2.0000     -11.222447      -305.3783 
  24   2.0000     -11.221182      -305.3439 
  25   2.0000     -11.221182      -305.3439 
  26   2.0000      -1.317592       -35.8535 
  27   2.0000      -1.267650       -34.4945 
  28   2.0000      -1.161729       -31.6123 
  29   2.0000      -1.160947       -31.5910 
  30   2.0000      -1.147907       -31.2361 
  31   2.0000      -1.120610       -30.4934 
  32   2.0000      -1.036925       -28.2162 
  33   2.0000      -1.030737       -28.0478 
  34   2.0000      -1.026271       -27.9263 
  35   2.0000      -1.020624       -27.7726 
  36   2.0000      -1.020600       -27.7719 
  37   2.0000      -1.012720       -27.5575 
  38   2.0000      -0.987468       -26.8704 
  39   2.0000      -0.946045       -25.7432 
  40   2.0000      -0.875073       -23.8119 
  41   2.0000      -0.862533       -23.4707 
  42   2.0000      -0.834983       -22.7211 
  43   2.0000      -0.834470       -22.7071 
  44   2.0000      -0.828973       -22.5575 
  45   2.0000      -0.818700       -22.2780 
  46   2.0000      -0.789327       -21.4787 
  47   2.0000      -0.767492       -20.8845 
  48   2.0000      -0.749618       -20.3981 
  49   2.0000      -0.720873       -19.6160 
  50   2.0000      -0.716928       -19.5086 
  51   2.0000      -0.680266       -18.5110 
  52   2.0000      -0.670019       -18.2322 
  53   2.0000      -0.660235       -17.9659 
  54   2.0000      -0.654991       -17.8232 
  55   2.0000      -0.644045       -17.5253 
  56   2.0000      -0.642187       -17.4748 
  57   2.0000      -0.638067       -17.3627 
  58   2.0000      -0.620977       -16.8976 
  59   2.0000      -0.604246       -16.4424 
  60   2.0000      -0.601727       -16.3738 
  61   2.0000      -0.597585       -16.2611 
  62   2.0000      -0.595626       -16.2078 
  63   2.0000      -0.591788       -16.1034 
  64   2.0000      -0.588690       -16.0191 
  65   2.0000      -0.581636       -15.8271 
  66   2.0000      -0.579685       -15.7740 
  67   2.0000      -0.531258       -14.4563 
  68   2.0000      -0.521060       -14.1787 
  69   2.0000      -0.518151       -14.0996 
  70   2.0000      -0.515780       -14.0351 
  71   2.0000      -0.515087       -14.0162 
  72   2.0000      -0.511929       -13.9303 
  73   2.0000      -0.506993       -13.7960 
  74   2.0000      -0.498954       -13.5772 
  75   2.0000      -0.497714       -13.5435 
  76   2.0000      -0.495666       -13.4878 
  77   2.0000      -0.481296       -13.0967 
  78   2.0000      -0.473865       -12.8945 
  79   2.0000      -0.445412       -12.1203 
  80   2.0000      -0.357626        -9.7315 
  81   2.0000      -0.349039        -9.4978 
  82   2.0000      -0.342013        -9.3066 
  83   2.0000      -0.341368        -9.2891 
  84   2.0000      -0.340251        -9.2587 
  85   2.0000      -0.334976        -9.1152 
  86   2.0000      -0.308807        -8.4031 
  87   2.0000      -0.238569        -6.4918 
  88   0.0000       0.104290         2.8379 
  89   0.0000       0.106952         2.9103 
  90   0.0000       0.117049         3.1851 
  91   0.0000       0.119298         3.2463 
  92   0.0000       0.132853         3.6151 
  93   0.0000       0.133733         3.6391 
  94   0.0000       0.142670         3.8823 
  95   0.0000       0.149926         4.0797 
  96   0.0000       0.165790         4.5114 
  97   0.0000       0.167188         4.5494 
  98   0.0000       0.173094         4.7101 
  99   0.0000       0.177835         4.8391 
 100   0.0000       0.178218         4.8496 
 101   0.0000       0.181031         4.9261 
 102   0.0000       0.186264         5.0685 
 103   0.0000       0.194227         5.2852 
 104   0.0000       0.200677         5.4607 
 105   0.0000       0.201178         5.4743 
 106   0.0000       0.202260         5.5038 
 107   0.0000       0.214821         5.8456 
 108   0.0000       0.215286         5.8582 
 109   0.0000       0.220393         5.9972 
 110   0.0000       0.223129         6.0716 
 111   0.0000       0.226602         6.1662 
 112   0.0000       0.226852         6.1730 
 113   0.0000       0.235159         6.3990 
 114   0.0000       0.240223         6.5368 
 115   0.0000       0.252446         6.8694 
 116   0.0000       0.280910         7.6439 
 117   0.0000       0.288867         7.8605 
 118   0.0000       0.297523         8.0960 
 119   0.0000       0.298912         8.1338 
 120   0.0000       0.299753         8.1567 
 121   0.0000       0.308429         8.3928 
 122   0.0000       0.314468         8.5571 
 123   0.0000       0.316323         8.6076 
 124   0.0000       0.328674         8.9437 
 125   0.0000       0.329431         8.9643 
 126   0.0000       0.329600         8.9689 
 127   0.0000       0.329835         8.9753 
 128   0.0000       0.329876         8.9764 
 129   0.0000       0.330885         9.0038 
 130   0.0000       0.338195         9.2028 
 131   0.0000       0.344644         9.3782 
 132   0.0000       0.352061         9.5801 
 133   0.0000       0.355999         9.6872 
 134   0.0000       0.360867         9.8197 
 135   0.0000       0.361738         9.8434 
 136   0.0000       0.364667         9.9231 
 137   0.0000       0.369083        10.0433 
 138   0.0000       0.369872        10.0647 
 139   0.0000       0.371268        10.1027 
 140   0.0000       0.371512        10.1094 
 141   0.0000       0.377746        10.2790 
 142   0.0000       0.381176        10.3723 
 143   0.0000       0.391574        10.6553 
 144   0.0000       0.399054        10.8588 
 145   0.0000       0.401290        10.9196 
 146   0.0000       0.403281        10.9738 
 147   0.0000       0.418554        11.3894 
 148   0.0000       0.422397        11.4940 
 149   0.0000       0.423846        11.5334 
 150   0.0000       0.425958        11.5909 
 151   0.0000       0.426626        11.6091 
 152   0.0000       0.428756        11.6670 
 153   0.0000       0.431598        11.7444 
 154   0.0000       0.433566        11.7979 
 155   0.0000       0.441629        12.0173 
 156   0.0000       0.444493        12.0953 
 157   0.0000       0.448120        12.1940 
 158   0.0000       0.455274        12.3886 
 159   0.0000       0.458965        12.4891 
 160   0.0000       0.470586        12.8053 
 161   0.0000       0.480834        13.0842 
 162   0.0000       0.487174        13.2567 
 163   0.0000       0.490820        13.3559 
 164   0.0000       0.496969        13.5232 
 165   0.0000       0.504884        13.7386 
 166   0.0000       0.508979        13.8500 
 167   0.0000       0.514223        13.9927 
 168   0.0000       0.514311        13.9951 
 169   0.0000       0.517032        14.0692 
 170   0.0000       0.521408        14.1882 
 171   0.0000       0.522824        14.2268 
 172   0.0000       0.529773        14.4159 
 173   0.0000       0.531815        14.4714 
 174   0.0000       0.540216        14.7000 
 175   0.0000       0.546543        14.8722 
 176   0.0000       0.546763        14.8782 
 177   0.0000       0.547530        14.8991 
 178   0.0000       0.548430        14.9235 
 179   0.0000       0.551903        15.0181 
 180   0.0000       0.552945        15.0464 
 181   0.0000       0.567388        15.4394 
 182   0.0000       0.567832        15.4515 
 183   0.0000       0.568432        15.4678 
 184   0.0000       0.569227        15.4895 
 185   0.0000       0.569242        15.4899 
 186   0.0000       0.573094        15.5947 
 187   0.0000       0.574735        15.6393 
 188   0.0000       0.578848        15.7513 
 189   0.0000       0.580925        15.8078 
 190   0.0000       0.581339        15.8190 
 191   0.0000       0.589106        16.0304 
 192   0.0000       0.597216        16.2511 
 193   0.0000       0.601961        16.3802 
 194   0.0000       0.602735        16.4013 
 195   0.0000       0.602789        16.4027 
 196   0.0000       0.617980        16.8161 
 197   0.0000       0.618179        16.8215 
 198   0.0000       0.623129        16.9562 
 199   0.0000       0.627929        17.0868 
 200   0.0000       0.628074        17.0908 
 201   0.0000       0.629315        17.1245 
 202   0.0000       0.630019        17.1437 
 203   0.0000       0.644721        17.5437 
 204   0.0000       0.648343        17.6423 
 205   0.0000       0.652834        17.7645 
 206   0.0000       0.655370        17.8335 
 207   0.0000       0.661738        18.0068 
 208   0.0000       0.667142        18.1539 
 209   0.0000       0.667600        18.1663 
 210   0.0000       0.671333        18.2679 
 211   0.0000       0.672503        18.2997 
 212   0.0000       0.675391        18.3783 
 213   0.0000       0.677393        18.4328 
 214   0.0000       0.680261        18.5109 
 215   0.0000       0.686308        18.6754 
 216   0.0000       0.687804        18.7161 
 217   0.0000       0.690174        18.7806 
 218   0.0000       0.696984        18.9659 
 219   0.0000       0.715816        19.4783 
 220   0.0000       0.716945        19.5091 
 221   0.0000       0.733474        19.9588 
 222   0.0000       0.739836        20.1320 
 223   0.0000       0.742898        20.2153 
 224   0.0000       0.748770        20.3751 
 225   0.0000       0.767959        20.8972 
 226   0.0000       0.771542        20.9947 
 227   0.0000       0.772686        21.0259 
 228   0.0000       0.777506        21.1570 
 229   0.0000       0.790158        21.5013 
 230   0.0000       0.797098        21.6901 
 231   0.0000       0.814732        22.1700 
 232   0.0000       0.818042        22.2601 
 233   0.0000       0.821416        22.3519 
 234   0.0000       0.825505        22.4631 
 235   0.0000       0.830264        22.5926 
 236   0.0000       0.832081        22.6421 
 237   0.0000       0.841639        22.9022 
 238   0.0000       0.847724        23.0678 
 239   0.0000       0.850509        23.1435 
 240   0.0000       0.851766        23.1777 
 241   0.0000       0.856698        23.3119 
 242   0.0000       0.857181        23.3251 
 243   0.0000       0.863447        23.4956 
 244   0.0000       0.888066        24.1655 
 245   0.0000       0.889594        24.2071 
 246   0.0000       0.893065        24.3015 
 247   0.0000       0.895450        24.3664 
 248   0.0000       0.904540        24.6138 
 249   0.0000       0.907786        24.7021 
 250   0.0000       0.911534        24.8041 
 251   0.0000       0.913149        24.8480 
 252   0.0000       0.913963        24.8702 
 253   0.0000       0.915854        24.9216 
 254   0.0000       0.933663        25.4062 
 255   0.0000       0.936812        25.4919 
 256   0.0000       0.938019        25.5248 
 257   0.0000       0.946080        25.7441 
 258   0.0000       0.947419        25.7806 
 259   0.0000       0.949622        25.8405 
 260   0.0000       0.951010        25.8783 
 261   0.0000       0.952827        25.9277 
 262   0.0000       0.954574        25.9753 
 263   0.0000       0.954748        25.9800 
 264   0.0000       0.962830        26.1999 
 265   0.0000       0.966696        26.3051 
 266   0.0000       0.971545        26.4371 
 267   0.0000       0.972583        26.4653 
 268   0.0000       0.978202        26.6182 
 269   0.0000       0.983904        26.7734 
 270   0.0000       1.004178        27.3251 
 271   0.0000       1.012945        27.5636 
 272   0.0000       1.013264        27.5723 
 273   0.0000       1.013975        27.5917 
 274   0.0000       1.026728        27.9387 
 275   0.0000       1.049366        28.5547 
 276   0.0000       1.050840        28.5948 
 277   0.0000       1.057115        28.7656 
 278   0.0000       1.059879        28.8408 
 279   0.0000       1.061027        28.8720 
 280   0.0000       1.066269        29.0147 
 281   0.0000       1.072316        29.1792 
 282   0.0000       1.075071        29.2542 
 283   0.0000       1.081785        29.4369 
 284   0.0000       1.084537        29.5118 
 285   0.0000       1.086128        29.5550 
 286   0.0000       1.090038        29.6614 
 287   0.0000       1.095241        29.8030 
 288   0.0000       1.098482        29.8912 
 289   0.0000       1.104281        30.0490 
 290   0.0000       1.107898        30.1474 
 291   0.0000       1.120056        30.4783 
 292   0.0000       1.122187        30.5363 
 293   0.0000       1.122936        30.5566 
 294   0.0000       1.143033        31.1035 
 295   0.0000       1.159134        31.5416 
 296   0.0000       1.160976        31.5918 
 297   0.0000       1.168469        31.7957 
 298   0.0000       1.169295        31.8181 
 299   0.0000       1.170494        31.8508 
 300   0.0000       1.173431        31.9307 
 301   0.0000       1.206456        32.8293 
 302   0.0000       1.208849        32.8945 
 303   0.0000       1.218366        33.1534 
 304   0.0000       1.229160        33.4471 
 305   0.0000       1.242281        33.8042 
 306   0.0000       1.244422        33.8625 
 307   0.0000       1.250322        34.0230 
 308   0.0000       1.256258        34.1845 
 309   0.0000       1.267877        34.5007 
 310   0.0000       1.272248        34.6196 
 311   0.0000       1.281751        34.8782 
 312   0.0000       1.283054        34.9137 
 313   0.0000       1.296803        35.2878 
 314   0.0000       1.299868        35.3712 
 315   0.0000       1.303382        35.4668 
 316   0.0000       1.315351        35.7925 
 317   0.0000       1.320969        35.9454 
 318   0.0000       1.331401        36.2293 
 319   0.0000       1.341193        36.4957 
 320   0.0000       1.346127        36.6300 
 321   0.0000       1.353808        36.8390 
 322   0.0000       1.368837        37.2479 
 323   0.0000       1.381220        37.5849 
 324   0.0000       1.390013        37.8242 
 325   0.0000       1.393371        37.9156 
 326   0.0000       1.397032        38.0152 
 327   0.0000       1.398810        38.0635 
 328   0.0000       1.404604        38.2212 
 329   0.0000       1.409442        38.3529 
 330   0.0000       1.411398        38.4061 
 331   0.0000       1.428539        38.8725 
 332   0.0000       1.431778        38.9607 
 333   0.0000       1.437766        39.1236 
 334   0.0000       1.445745        39.3407 
 335   0.0000       1.459122        39.7047 
 336   0.0000       1.460229        39.7348 
 337   0.0000       1.463120        39.8135 
 338   0.0000       1.464127        39.8409 
 339   0.0000       1.468222        39.9524 
 340   0.0000       1.479417        40.2570 
 341   0.0000       1.493617        40.6434 
 342   0.0000       1.498186        40.7677 
 343   0.0000       1.503239        40.9052 
 344   0.0000       1.505441        40.9651 
 345   0.0000       1.506604        40.9968 
 346   0.0000       1.507376        41.0178 
 347   0.0000       1.511550        41.1314 
 348   0.0000       1.515334        41.2343 
 349   0.0000       1.528425        41.5906 
 350   0.0000       1.529435        41.6180 
 351   0.0000       1.543186        41.9922 
 352   0.0000       1.545155        42.0458 
 353   0.0000       1.568960        42.6936 
 354   0.0000       1.569690        42.7134 
 355   0.0000       1.571564        42.7644 
 356   0.0000       1.582733        43.0683 
 357   0.0000       1.584969        43.1292 
 358   0.0000       1.602302        43.6009 
 359   0.0000       1.624928        44.2165 
 360   0.0000       1.628678        44.3186 
 361   0.0000       1.638489        44.5856 
 362   0.0000       1.641469        44.6666 
 363   0.0000       1.643200        44.7137 
 364   0.0000       1.668345        45.3980 
 365   0.0000       1.681031        45.7432 
 366   0.0000       1.690900        46.0117 
 367   0.0000       1.692685        46.0603 
 368   0.0000       1.693606        46.0854 
 369   0.0000       1.711933        46.5841 
 370   0.0000       1.719118        46.7796 
 371   0.0000       1.720885        46.8277 
 372   0.0000       1.729381        47.0589 
 373   0.0000       1.730270        47.0830 
 374   0.0000       1.737682        47.2847 
 375   0.0000       1.739433        47.3324 
 376   0.0000       1.748463        47.5781 
 377   0.0000       1.761853        47.9424 
 378   0.0000       1.765913        48.0529 
 379   0.0000       1.766140        48.0591 
 380   0.0000       1.777190        48.3598 
 381   0.0000       1.783714        48.5373 
 382   0.0000       1.787746        48.6470 
 383   0.0000       1.802897        49.0593 
 384   0.0000       1.804037        49.0903 
 385   0.0000       1.805596        49.1328 
 386   0.0000       1.812604        49.3235 
 387   0.0000       1.815098        49.3913 
 388   0.0000       1.820392        49.5354 
 389   0.0000       1.830640        49.8142 
 390   0.0000       1.840318        50.0776 
 391   0.0000       1.842676        50.1418 
 392   0.0000       1.850255        50.3480 
 393   0.0000       1.851751        50.3887 
 394   0.0000       1.863609        50.7114 
 395   0.0000       1.878583        51.1188 
 396   0.0000       1.882743        51.2321 
 397   0.0000       1.885816        51.3157 
 398   0.0000       1.888787        51.3965 
 399   0.0000       1.894712        51.5577 
 400   0.0000       1.894985        51.5652 
 401   0.0000       1.897261        51.6271 
 402   0.0000       1.912798        52.0499 
 403   0.0000       1.918673        52.2097 
 404   0.0000       1.920209        52.2515 
 405   0.0000       1.921026        52.2738 
 406   0.0000       1.928078        52.4657 
 407   0.0000       1.931305        52.5535 
 408   0.0000       1.950218        53.0681 
 409   0.0000       1.958513        53.2938 
 410   0.0000       1.960513        53.3483 
 411   0.0000       1.974395        53.7260 
 412   0.0000       1.994007        54.2597 
 413   0.0000       1.999112        54.3986 
 414   0.0000       2.002749        54.4976 
 415   0.0000       2.002814        54.4993 
 416   0.0000       2.004666        54.5497 
 417   0.0000       2.006197        54.5914 
 418   0.0000       2.006857        54.6094 
 419   0.0000       2.008509        54.6543 
 420   0.0000       2.011716        54.7416 
 421   0.0000       2.019197        54.9451 
 422   0.0000       2.031908        55.2910 
 423   0.0000       2.038095        55.4594 
 424   0.0000       2.040823        55.5336 
 425   0.0000       2.048645        55.7465 
 426   0.0000       2.052732        55.8577 
 427   0.0000       2.054821        55.9145 
 428   0.0000       2.061386        56.0932 
 429   0.0000       2.066510        56.2326 
 430   0.0000       2.074959        56.4625 
 431   0.0000       2.076972        56.5173 
 432   0.0000       2.077071        56.5200 
 433   0.0000       2.094775        57.0017 
 434   0.0000       2.108170        57.3662 
 435   0.0000       2.121034        57.7163 
 436   0.0000       2.129515        57.9470 
 437   0.0000       2.143440        58.3260 
 438   0.0000       2.147530        58.4373 
 439   0.0000       2.167469        58.9798 
 440   0.0000       2.168666        59.0124 
 441   0.0000       2.173387        59.1409 
 442   0.0000       2.185959        59.4830 
 443   0.0000       2.197992        59.8104 
 444   0.0000       2.199994        59.8649 
 445   0.0000       2.209125        60.1134 
 446   0.0000       2.211170        60.1690 
 447   0.0000       2.212247        60.1983 
 448   0.0000       2.220745        60.4295 
 449   0.0000       2.221043        60.4376 
 450   0.0000       2.244136        61.0660 
 451   0.0000       2.253614        61.3240 
 452   0.0000       2.259095        61.4731 
 453   0.0000       2.294743        62.4431 
 454   0.0000       2.298101        62.5345 
 455   0.0000       2.302235        62.6470 
 456   0.0000       2.303734        62.6878 
 457   0.0000       2.308012        62.8042 
 458   0.0000       2.310551        62.8733 
 459   0.0000       2.311802        62.9073 
 460   0.0000       2.322063        63.1865 
 461   0.0000       2.335674        63.5569 
 462   0.0000       2.342755        63.7496 
 463   0.0000       2.346287        63.8457 
 464   0.0000       2.348011        63.8926 
 465   0.0000       2.376306        64.6626 
 466   0.0000       2.385634        64.9164 
 467   0.0000       2.401418        65.3459 
 468   0.0000       2.411834        65.6293 
 469   0.0000       2.420621        65.8684 
 470   0.0000       2.421441        65.8908 
 471   0.0000       2.430545        66.1385 
 472   0.0000       2.437216        66.3200 
 473   0.0000       2.440336        66.4049 
 474   0.0000       2.443320        66.4861 
 475   0.0000       2.470402        67.2230 
 476   0.0000       2.491990        67.8105 
 477   0.0000       2.492163        67.8152 
 478   0.0000       2.496677        67.9380 
 479   0.0000       2.497150        67.9509 
 480   0.0000       2.501098        68.0583 
 481   0.0000       2.506043        68.1929 
 482   0.0000       2.522712        68.6465 
 483   0.0000       2.525595        68.7249 
 484   0.0000       2.541108        69.1471 
 485   0.0000       2.550902        69.4136 
 486   0.0000       2.555619        69.5419 
 487   0.0000       2.562305        69.7239 
 488   0.0000       2.565502        69.8109 
 489   0.0000       2.575242        70.0759 
 490   0.0000       2.581232        70.2389 
 491   0.0000       2.605105        70.8885 
 492   0.0000       2.605890        70.9099 
 493   0.0000       2.624682        71.4212 
 494   0.0000       2.626196        71.4624 
 495   0.0000       2.626434        71.4689 
 496   0.0000       2.642199        71.8979 
 497   0.0000       2.655417        72.2576 
 498   0.0000       2.655865        72.2698 
 499   0.0000       2.665597        72.5346 
 500   0.0000       2.716107        73.9090 
 501   0.0000       2.718850        73.9837 
 502   0.0000       2.719785        74.0091 
 503   0.0000       2.725502        74.1647 
 504   0.0000       2.751637        74.8758 
 505   0.0000       2.762730        75.1777 
 506   0.0000       2.766073        75.2687 
 507   0.0000       2.778985        75.6200 
 508   0.0000       2.785314        75.7922 
 509   0.0000       2.795032        76.0567 
 510   0.0000       2.795068        76.0577 
 511   0.0000       2.802646        76.2639 
 512   0.0000       2.804208        76.3064 
 513   0.0000       2.829449        76.9932 
 514   0.0000       2.851454        77.5920 
 515   0.0000       2.858047        77.7714 
 516   0.0000       2.859107        77.8003 
 517   0.0000       2.862327        77.8879 
 518   0.0000       2.871323        78.1327 
 519   0.0000       2.885099        78.5075 
 520   0.0000       2.900186        78.9181 
 521   0.0000       2.903288        79.0025 
 522   0.0000       2.903412        79.0059 
 523   0.0000       2.910064        79.1869 
 524   0.0000       2.919380        79.4404 
 525   0.0000       2.921843        79.5074 
 526   0.0000       2.929208        79.7078 
 527   0.0000       2.933209        79.8167 
 528   0.0000       2.939694        79.9931 
 529   0.0000       2.941242        80.0353 
 530   0.0000       2.942912        80.0807 
 531   0.0000       2.952770        80.3489 
 532   0.0000       2.964763        80.6753 
 533   0.0000       2.966014        80.7094 
 534   0.0000       2.967739        80.7563 
 535   0.0000       2.969398        80.8014 
 536   0.0000       2.973085        80.9017 
 537   0.0000       2.989441        81.3468 
 538   0.0000       2.993685        81.4623 
 539   0.0000       2.995586        81.5140 
 540   0.0000       2.998290        81.5876 
 541   0.0000       2.999546        81.6218 
 542   0.0000       3.002090        81.6910 
 543   0.0000       3.008001        81.8519 
 544   0.0000       3.021940        82.2312 
 545   0.0000       3.030710        82.4698 
 546   0.0000       3.033726        82.5519 
 547   0.0000       3.037879        82.6649 
 548   0.0000       3.040245        82.7293 
 549   0.0000       3.040469        82.7354 
 550   0.0000       3.041633        82.7670 
 551   0.0000       3.045684        82.8773 
 552   0.0000       3.047390        82.9237 
 553   0.0000       3.050802        83.0166 
 554   0.0000       3.058104        83.2152 
 555   0.0000       3.058871        83.2361 
 556   0.0000       3.060570        83.2823 
 557   0.0000       3.070364        83.5489 
 558   0.0000       3.070368        83.5490 
 559   0.0000       3.074884        83.6718 
 560   0.0000       3.080301        83.8193 
 561   0.0000       3.082525        83.8798 
 562   0.0000       3.085007        83.9473 
 563   0.0000       3.099078        84.3302 
 564   0.0000       3.099474        84.3410 
 565   0.0000       3.102250        84.4165 
 566   0.0000       3.106987        84.5454 
 567   0.0000       3.107910        84.5705 
 568   0.0000       3.116726        84.8104 
 569   0.0000       3.119404        84.8833 
 570   0.0000       3.121687        84.9454 
 571   0.0000       3.127984        85.1168 
 572   0.0000       3.135657        85.3256 
 573   0.0000       3.148403        85.6724 
 574   0.0000       3.161264        86.0224 
 575   0.0000       3.165935        86.1495 
 576   0.0000       3.168582        86.2215 
 577   0.0000       3.170339        86.2693 
 578   0.0000       3.175999        86.4233 
 579   0.0000       3.176593        86.4395 
 580   0.0000       3.179331        86.5140 
 581   0.0000       3.190810        86.8263 
 582   0.0000       3.199840        87.0721 
 583   0.0000       3.201070        87.1055 
 584   0.0000       3.205042        87.2136 
 585   0.0000       3.205556        87.2276 
 586   0.0000       3.215631        87.5018 
 587   0.0000       3.218741        87.5864 
 588   0.0000       3.225463        87.7693 
 589   0.0000       3.226954        87.8099 
 590   0.0000       3.237440        88.0952 
 591   0.0000       3.241143        88.1960 
 592   0.0000       3.243679        88.2650 
 593   0.0000       3.246662        88.3462 
 594   0.0000       3.249018        88.4103 
 595   0.0000       3.254574        88.5615 
 596   0.0000       3.267004        88.8997 
 597   0.0000       3.278934        89.2243 
 598   0.0000       3.280046        89.2546 
 599   0.0000       3.283795        89.3566 
 600   0.0000       3.285800        89.4112 
 601   0.0000       3.324913        90.4755 
 602   0.0000       3.350907        91.1828 
 603   0.0000       3.352857        91.2359 
 604   0.0000       3.354706        91.2862 
 605   0.0000       3.359804        91.4249 
 606   0.0000       3.375206        91.8440 
 607   0.0000       3.382388        92.0394 
 608   0.0000       3.388984        92.2189 
 609   0.0000       3.391122        92.2771 
 610   0.0000       3.394034        92.3564 
 611   0.0000       3.399123        92.4948 
 612   0.0000       3.423992        93.1716 
 613   0.0000       3.426530        93.2406 
 614   0.0000       3.432385        93.4000 
 615   0.0000       3.435829        93.4937 
 616   0.0000       3.439131        93.5835 
 617   0.0000       3.452547        93.9486 
 618   0.0000       3.452564        93.9490 
 619   0.0000       3.457558        94.0849 
 620   0.0000       3.458075        94.0990 
 621   0.0000       3.459997        94.1513 
 622   0.0000       3.461813        94.2007 
 623   0.0000       3.464438        94.2721 
 624   0.0000       3.465606        94.3039 
 625   0.0000       3.471733        94.4707 
 626   0.0000       3.480000        94.6956 
 627   0.0000       3.481679        94.7413 
 628   0.0000       3.483548        94.7921 
 629   0.0000       3.485638        94.8490 
 630   0.0000       3.486871        94.8826 
 631   0.0000       3.490775        94.9888 
 632   0.0000       3.503316        95.3301 
 633   0.0000       3.511529        95.5536 
 634   0.0000       3.521866        95.8348 
 635   0.0000       3.522696        95.8574 
 636   0.0000       3.528057        96.0033 
 637   0.0000       3.529287        96.0368 
 638   0.0000       3.534793        96.1866 
 639   0.0000       3.547907        96.5435 
 640   0.0000       3.562479        96.9400 
 641   0.0000       3.566488        97.0491 
 642   0.0000       3.569080        97.1196 
 643   0.0000       3.570506        97.1584 
 644   0.0000       3.576236        97.3143 
 645   0.0000       3.591260        97.7231 
 646   0.0000       3.592556        97.7584 
 647   0.0000       3.593252        97.7774 
 648   0.0000       3.597482        97.8925 
 649   0.0000       3.607005        98.1516 
 650   0.0000       3.608293        98.1866 
 651   0.0000       3.611160        98.2647 
 652   0.0000       3.612110        98.2905 
 653   0.0000       3.627617        98.7125 
 654   0.0000       3.642604        99.1203 
 655   0.0000       3.643767        99.1519 
 656   0.0000       3.643947        99.1568 
 657   0.0000       3.655733        99.4775 
 658   0.0000       3.656551        99.4998 
 659   0.0000       3.659456        99.5789 
 660   0.0000       3.675713       100.0212 
 661   0.0000       3.677617       100.0730 
 662   0.0000       3.692225       100.4706 
 663   0.0000       3.694937       100.5444 
 664   0.0000       3.708817       100.9220 
 665   0.0000       3.714319       101.0717 
 666   0.0000       3.715578       101.1060 
 667   0.0000       3.719551       101.2141 
 668   0.0000       3.726588       101.4056 
 669   0.0000       3.728081       101.4463 
 670   0.0000       3.729471       101.4841 
 671   0.0000       3.732077       101.5550 
 672   0.0000       3.733364       101.5900 
 673   0.0000       3.738578       101.7319 
 674   0.0000       3.740487       101.7838 
 675   0.0000       3.761456       102.3544 
 676   0.0000       3.765359       102.4606 
 677   0.0000       3.765390       102.4615 
 678   0.0000       3.767024       102.5059 
 679   0.0000       3.767856       102.5286 
 680   0.0000       3.768343       102.5418 
 681   0.0000       3.771253       102.6210 
 682   0.0000       3.774912       102.7206 
 683   0.0000       3.782475       102.9264 
 684   0.0000       3.786295       103.0303 
 685   0.0000       3.798596       103.3651 
 686   0.0000       3.812473       103.7427 
 687   0.0000       3.822352       104.0115 
 688   0.0000       3.824967       104.0826 
 689   0.0000       3.826576       104.1264 
 690   0.0000       3.828195       104.1705 
 691   0.0000       3.834321       104.3372 
 692   0.0000       3.851097       104.7937 
 693   0.0000       3.854777       104.8938 
 694   0.0000       3.856156       104.9313 
 695   0.0000       3.859639       105.0261 
 696   0.0000       3.860509       105.0498 
 697   0.0000       3.875894       105.4684 
 698   0.0000       3.878212       105.5315 
 699   0.0000       3.879626       105.5700 
 700   0.0000       3.881386       105.6179 
 701   0.0000       3.887736       105.7907 
 702   0.0000       3.899787       106.1186 
 703   0.0000       3.901441       106.1636 
 704   0.0000       3.905727       106.2802 
 705   0.0000       3.908501       106.3557 
 706   0.0000       3.910528       106.4109 
 707   0.0000       3.911657       106.4416 
 708   0.0000       3.916555       106.5749 
 709   0.0000       3.916639       106.5772 
 710   0.0000       3.933153       107.0265 
 711   0.0000       3.947298       107.4114 
 712   0.0000       3.950713       107.5044 
 713   0.0000       3.966287       107.9282 
 714   0.0000       3.983129       108.3864 
 715   0.0000       3.996804       108.7586 
 716   0.0000       4.002521       108.9141 
 717   0.0000       4.009930       109.1158 
 718   0.0000       4.019539       109.3772 
 719   0.0000       4.025758       109.5465 
 720   0.0000       4.027995       109.6073 
 721   0.0000       4.032922       109.7414 
 722   0.0000       4.034628       109.7878 
 723   0.0000       4.049265       110.1861 
 724   0.0000       4.076468       110.9263 
 725   0.0000       4.077636       110.9581 
 726   0.0000       4.079681       111.0138 
 727   0.0000       4.103799       111.6701 
 728   0.0000       4.110841       111.8617 
 729   0.0000       4.131837       112.4330 
 730   0.0000       4.134101       112.4946 
 731   0.0000       4.135460       112.5316 
 732   0.0000       4.147859       112.8690 
 733   0.0000       4.169002       113.4443 
 734   0.0000       4.185284       113.8874 
 735   0.0000       4.189880       114.0124 
 736   0.0000       4.208445       114.5176 
 737   0.0000       4.232627       115.1756 
[...]
  -0.289608    87 -> 107
  -0.123954    87 -> 121

IROOT= 23:  0.251938 au     6.856 eV   55294.1 cm**-1
  Amplitude    Excitation
   0.412056    81 ->  88
   0.269322    81 ->  93
   0.284832    82 ->  90
   0.294157    83 ->  91
   0.650414    84 ->  88
  -0.225118    85 ->  89
  -0.139166    85 ->  94
   0.201535    86 ->  92
  Ground state amplitude:  0.000306

Percentage Active Character     97.03

Warning:: the state may have not converged with respect to active space 
-------------------- Handle with Care -------------------- 

  Amplitude    Excitation in Canonical Basis
   0.416079    81 ->  88
   0.257960    81 ->  93
  -0.284224    82 ->  90
   0.293412    83 ->  91
  -0.650020    84 ->  88
  -0.224386    85 ->  89
  -0.139387    85 ->  94
   0.200456    86 ->  92

IROOT= 24:  0.259370 au     7.058 eV   56925.1 cm**-1
  Amplitude    Excitation
   0.108323    81 ->  91
  -0.411819    82 ->  89
   0.560669    83 ->  88
  -0.367521    84 ->  91
  -0.566488    85 ->  90
  Ground state amplitude: -0.000044

Percentage Active Character     96.59

Warning:: the state may have not converged with respect to active space 
-------------------- Handle with Care -------------------- 

  Amplitude    Excitation in Canonical Basis
   0.108772    81 ->  91
  -0.410821    82 ->  89
   0.557922    83 ->  88
   0.366077    84 ->  91
   0.563570    85 ->  90

IROOT= 25:  0.263299 au     7.165 eV   57787.4 cm**-1
  Amplitude    Excitation
   0.138339    80 ->  91
   0.164693    82 ->  88
  -0.101465    83 ->  89
  -0.158108    84 ->  90
   0.800001    86 ->  95
   0.335267    86 ->  97
  -0.224215    87 ->  98
   0.207631    87 -> 104
  Ground state amplitude: -0.000018

Percentage Active Character     88.59

Warning:: the state may have not converged with respect to active space 
-------------------- Handle with Care -------------------- 

  Amplitude    Excitation in Canonical Basis
   0.115047    78 ->  95
   0.135819    80 ->  91
   0.164590    82 ->  88
  -0.101250    83 ->  89
  -0.157362    84 ->  90
   0.795652    86 ->  95
  -0.253772    86 ->  97
  -0.166496    86 ->  99
   0.140198    86 -> 115
  -0.243804    87 ->  96
  -0.209572    87 -> 101



-------------------
CPCM SOLVENT SHIFT
-------------------

Reading the CPCM data                  ... done
Making difference densities            ... done
Computing the potentials               ... done
Calculating charges                    ... done

---------------------------------
     CALCULATED SOLVENT SHIFTS   
            CPCM  MODEL          
---------------------------------

Contributions of the 'fast' term to the solvent shift

 State Shift(Eh) Shift(eV) Shift(cm**-1) Shift(nm) Esteom(eV)  Esteom+SHIFT(eV)
-------------------------------------------------------------------------------
   0: -0.0010955 -0.030     -240.4        4.0      3.063          3.033
   1: -0.0012176 -0.033     -267.2        3.4      3.477          3.444
   2: -0.0004284 -0.012      -94.0        1.0      3.856          3.844
   3: -0.0110934 -0.302    -2434.7       25.8      3.961          3.659
   4: -0.0113408 -0.309    -2489.0       25.6      4.021          3.712
   5: -0.0122933 -0.335    -2698.1       22.9      4.428          4.094
   6: -0.0091813 -0.250    -2015.1       16.3      4.489          4.239
   7: -0.0000770 -0.002      -16.9        0.1      4.856          4.854
   8: -0.0000770 -0.002      -16.9        0.1      4.856          4.854
   9: -0.0021004 -0.057     -461.0        2.8      5.033          4.976
  10: -0.0003878 -0.011      -85.1        0.5      5.294          5.284
  11: -0.0024157 -0.066     -530.2        2.8      5.426          5.360
  12: -0.0001603 -0.004      -35.2        0.2      5.811          5.806
  13: -0.0008797 -0.024     -193.1        0.9      5.871          5.847
  14: -0.0079817 -0.217    -1751.8        7.9      5.949          5.732
  15: -0.0000919 -0.003      -20.2        0.1      6.152          6.150
  16: -0.0113700 -0.309    -2495.4       10.4      6.234          5.924
  17: -0.0092440 -0.252    -2028.8        8.3      6.271          6.020
  18: -0.0000988 -0.003      -21.7        0.1      6.383          6.381
  19: -0.0000890 -0.002      -19.5        0.1      6.395          6.392
  20: -0.0102851 -0.280    -2257.3        8.6      6.478          6.198
  21: -0.0062485 -0.170    -1371.4        4.7      6.781          6.611
  22: -0.0001997 -0.005      -43.8        0.1      6.856          6.850
  23: -0.0001518 -0.004      -33.3        0.1      7.058          7.054
  24: -0.0028971 -0.079     -635.8        1.9      7.165          7.086

-------------------
CPCM SOLVENT SHIFT
-------------------

Reading the CPCM data                  ... done
Making difference densities            ... done
Computing the potentials               ... done
Calculating charges                    ... done

R0 correction
 State Shift(Eh) Shift(eV)
--------------------------
   0: -0.0010955 -0.030
   1: -0.0012176 -0.033
   2: -0.0004633 -0.013
   3: -0.0110934 -0.302
   4: -0.0113408 -0.309
   5: -0.0122933 -0.335
   6: -0.0091813 -0.250
   7: -0.0000770 -0.002
   8: -0.0000770 -0.002
   9: -0.0021004 -0.057
  10: -0.0003878 -0.011
  11: -0.0024157 -0.066
  12: -0.0001946 -0.005
  13: -0.0008797 -0.024
  14: -0.0079817 -0.217
  15: -0.0000919 -0.003
  16: -0.0113700 -0.309
  17: -0.0092440 -0.252
  18: -0.0000983 -0.003
  19: -0.0000890 -0.002
  20: -0.0102851 -0.280
  21: -0.0062454 -0.170
  22: -0.0001997 -0.005
  23: -0.0001518 -0.004
  24: -0.0028971 -0.079

STEOM-CCSD done (10307.8 sec)
Calculating the Dipole integrals                  ... done
Transforming integrals                            ... done
Calculating the Linear Momentum integrals         ... done
Transforming integrals                            ... done
Calculating angular momentum integrals            ... done
Transforming integrals                            ... done

--------------------------------------------------------------------
               UNRELAXED EXCITED STATE DIPOLE MOMENTS
--------------------------------------------------------------------
               E(eV)     DX(au)      DY(au)      DZ(au)      |D|(D)
IROOT=  0:     0.000   -0.000001   -0.000008    0.001601    0.004070
IROOT=  1:     3.033   -0.015291   -0.011256   -0.009739    0.054239
IROOT=  2:     3.444    0.002242    0.000338   -0.004066    0.011833
IROOT=  3:     3.844   -0.000566    0.000098    0.002541    0.006622
IROOT=  4:     3.659    0.004308   -0.003822   -0.006827    0.022702
IROOT=  5:     3.712    0.002222    0.000299   -0.007447    0.019768
IROOT=  6:     4.094    0.025400    0.000098   -0.003245    0.065088
IROOT=  7:     4.239    0.005690   -0.000098   -0.000050    0.014466
IROOT=  8:     4.854    0.036837   -0.000011    0.002630    0.093870
IROOT=  9:     4.854   -0.036857   -0.000011    0.004463    0.094366
IROOT= 10:     4.976   -0.000601   -0.001016   -0.061519    0.156398
IROOT= 11:     5.284    0.003164   -0.000241   -0.002996    0.011093
IROOT= 12:     5.360    0.001896    0.010035   -0.001942    0.026423
IROOT= 13:     5.806    0.005820   -0.000541    0.000708    0.014965
IROOT= 14:     5.847   -0.019030    0.002604    0.002395    0.049199
IROOT= 15:     5.732    0.002089    0.001416   -0.004548    0.013221
IROOT= 16:     6.150   -0.000096    0.000431    0.003415    0.008752
IROOT= 17:     5.924   -1.126809   -0.000112   -0.003429    2.864135
IROOT= 18:     6.020   -0.001692    0.005044   -0.009151    0.026907
IROOT= 19:     6.381    0.006506    0.000143    0.002341    0.017579
IROOT= 20:     6.392   -0.007214   -0.000394    0.003885    0.020850
IROOT= 21:     6.198    0.006247   -0.001098   -0.005706    0.021686
IROOT= 22:     6.611   -0.006383    0.000369    0.058915    0.150629
IROOT= 23:     6.850    0.000881    0.003435    0.001713    0.010011
IROOT= 24:     7.054   -0.003419   -0.001981    0.008093    0.022891
IROOT= 25:     7.086   -0.003767    0.000160    0.004482    0.014888
--------------------------------------------------------------------

-----------------------------------------------------------------------------
         ABSORPTION SPECTRUM VIA TRANSITION ELECTRIC DIPOLE MOMENTS
-----------------------------------------------------------------------------
State   Energy  Wavelength   fosc         T2         TX        TY        TZ  
        (cm-1)    (nm)                  (au**2)     (au)      (au)      (au) 
-----------------------------------------------------------------------------
   1   24464.1    408.8   0.000000294   0.00000   0.00009   0.00154   0.00030
   2   27778.6    360.0   0.121783344   1.44329   0.00013   1.20137   0.00016
   3   31006.1    322.5   0.000000490   0.00001   0.00071   0.00006   0.00215
   4   29515.5    338.8   0.000000098   0.00000   0.00100   0.00019   0.00003
   5   29941.6    334.0   0.000003452   0.00004   0.00220   0.00380   0.00027
   6   33018.3    302.9   0.000000602   0.00001   0.00047   0.00088   0.00127
   7   34190.6    292.5   0.002660065   0.02561   0.00032   0.16001   0.00067
   8   39151.5    255.4   0.000020799   0.00017   0.01317   0.00004   0.00086
   9   39152.1    255.4   0.000467724   0.00393   0.00022   0.00006   0.06271
  10   40135.8    249.2   0.003272737   0.02684   0.00055   0.00046   0.16380
  11   42617.9    234.6   1.190163097   9.19369   0.00005   3.03211   0.00039
  12   43235.3    231.3   0.293790949   2.23705   1.49568   0.00006   0.00011
  13   46830.5    213.5   0.000007961   0.00006   0.00453   0.00009   0.00430
  14   47156.6    212.1   0.000081967   0.00057   0.00177   0.01163   0.00057
  15   46228.7    216.3   0.000836012   0.00595   0.00029   0.00112   0.07701
  16   49600.4    201.6   0.238186511   1.58091   1.25734   0.00016   0.00024
  17   47783.8    209.3   0.000000322   0.00000   0.00022   0.00012   0.00078
  18   48553.0    206.0   0.000004083   0.00003   0.00173   0.00272   0.00114
  19   51462.3    194.3   0.000036091   0.00023   0.00315   0.00010   0.01418
  20   51556.3    194.0   0.012098233   0.07725   0.27794   0.00009   0.00020
  21   49994.1    200.0   0.000000258   0.00000   0.00025   0.00089   0.00060
  22   53321.8    187.5   0.000004610   0.00003   0.00123   0.00086   0.00136
  23   55250.3    181.0   1.741110476  10.37451   3.22095   0.00015   0.00025
  24   56891.8    175.8   0.574616693   3.32509   0.00016   0.00152   1.82348
  25   57151.6    175.0   0.000008979   0.00005   0.00205   0.00562   0.00275

-------------------------------------------------------------------
                             CD SPECTRUM
-------------------------------------------------------------------
State   Energy Wavelength       R         MX        MY        MZ   
        (cm-1)   (nm)       (1e40*cgs)   (au)      (au)      (au)  
-------------------------------------------------------------------
   1     408.8   24464.1     -0.01471   0.00005   0.00004   1.20095
   2     360.0   27778.6      0.00021   0.00073  -0.00000  -0.00179
   3     322.5   31006.1      0.00003  -0.00023  -0.00002   0.00004
   4     338.8   29515.5     -0.00004  -0.00048  -0.00000   0.00450
   5     334.0   29941.6      0.01046   0.16777   0.00000   0.00001
   6     302.9   33018.3      0.01522  -0.00001  -0.00001   0.09646
   7     292.5   34190.6      0.00003   0.00005   0.00001   0.01008
   8     255.4   39151.5      0.00001  -0.00000  -0.00047   0.00006
   9     255.4   39152.1     -0.00085   0.00000   0.00008  -0.00009
  10     249.2   40135.8      0.03220  -0.00003   0.00021  -0.00110
  11     234.6   42617.9      0.00593   0.00072  -0.00005  -0.00102
  12     231.3   43235.3     -0.00062  -0.00001   0.00221   0.00243
  13     213.5   46830.5     -0.00003  -0.00021  -0.00002   0.00078
  14     212.1   47156.6     -0.02140  -0.00002   0.00002  -0.85335
  15     216.3   46228.7     -0.04861  -0.00032  -0.00008  -0.00190
  16     201.6   49600.4     -0.00214  -0.00103   0.00156  -0.00020
  17     209.3   47783.8      0.03391   0.15741   0.00006  -0.00863
  18     206.0   48553.0      0.00314  -0.00043   0.01625   0.00224
  19     194.3   51462.3      0.00006  -0.00028   0.00003  -0.00016
  20     194.0   51556.3     -0.01100  -0.00035   0.00097   0.00033
  21     200.0   49994.1      0.00550   0.27400   0.00002   0.00213
  22     187.5   53321.8      0.00005  -0.00048   0.00002   0.00006
  23     181.0   55250.3     -0.01998  -0.00011   0.00862  -0.00574
  24     175.8   56891.8      0.02392  -0.00035  -0.00000   0.00118
  25     175.0   57151.6     -0.04127   0.00016   0.21823  -0.00120

TDM done (10437.0 sec)
STEOM-CCSD done in (10437.3)


--------------------------------------------------------------------------------
                                    TIMINGS
--------------------------------------------------------------------------------


Total execution time                   ...    27639.160 sec

Localization of occupied MO's          ...        2.437 sec (  0.0%)
Fock Matrix Formation                  ...      235.651 sec (  0.9%)
Global overlap, Fock, MKN matrices     ...        0.995 sec (  0.0%)
Differential overlap integrals         ...        4.306 sec (  0.0%)
Organizing maps                        ...        0.092 sec (  0.0%)
RI 3-index integral generations        ...       67.067 sec (  0.2%)
RI-PNO integral transformation         ...     4564.123 sec ( 16.5%)
Initial Guess                          ...      844.996 sec (  3.1%)
DIIS Solver                            ...        7.976 sec (  0.0%)
State Vector Update                    ...        0.074 sec (  0.0%)
Sigma-vector construction              ...     3635.657 sec ( 13.2%)
  <0|H|D>                              ...        0.005 sec (  0.0% of sigma)
  <D|H|D>(0-ext)                       ...      198.707 sec (  5.5% of sigma)
  <D|H|D>(2-ext Fock)                  ...        0.225 sec (  0.0% of sigma)
  <D|H|D>(2-ext)                       ...      798.941 sec ( 22.0% of sigma)
  <D|H|D>(4-ext)                       ...      245.022 sec (  6.7% of sigma)
  <D|H|D>(4-ext-corr)                  ...     1457.414 sec ( 40.1% of sigma)
  CCSD doubles correction              ...        3.988 sec (  0.1% of sigma)
  <S|H|S>                              ...      119.343 sec (  3.3% of sigma)
  <S|H|D>(1-ext)                       ...       20.884 sec (  0.6% of sigma)
  <D|H|S>(1-ext)                       ...        0.211 sec (  0.0% of sigma)
  <S|H|D>(3-ext)                       ...        3.753 sec (  0.1% of sigma)
  CCSD singles correction              ...        0.003 sec (  0.0% of sigma)
  Fock-dressing                        ...      534.715 sec ( 14.7% of sigma)
  Singles amplitudes                   ...       12.016 sec (  0.3% of sigma)
  (ik|jl)-dressing                     ...      152.834 sec (  4.2% of sigma)
  (ij|ab),(ia|jb)-dressing             ...       47.040 sec (  1.3% of sigma)
  Pair energies                        ...        0.054 sec (  0.0% of sigma)
Total Time for computing EOM-CCSD      ...     6492.084 sec ( 23.5% of ALL)
  Dressing integrals                   ...      152.035 sec (  2.3% of (EOM))
  Initial EOM-Guess                    ...        0.006 sec (  0.0% of (EOM))
  EOM Singles                          ...      108.350 sec (  1.7% of (EOM))
  EOM Doubles                          ...     6163.609 sec ( 94.9% of (EOM))
  Build Hamiltonian                    ...        6.716 sec (  0.1% of (EOM))
  Diagonalize Hamiltonian              ...        0.991 sec (  0.0% of (EOM))
  Ritz vectors                         ...       12.959 sec (  0.2% of (EOM))
  Residual vectors                     ...       15.979 sec (  0.2% of (EOM))
One-particle density matrix            ...       10.702 sec (  0.0%)


Maximum memory used throughout the entire MDCI-calculation: 32296.4 MB

-------------------------   --------------------
FINAL SINGLE POINT ENERGY     -1032.637212684215
-------------------------   --------------------


                            ***************************************
                            *     ORCA property calculations      *
                            ***************************************

                                    ---------------------
                                    Active property flags
                                    ---------------------
   (+) Dipole Moment


------------------------------------------------------------------------------
                       ORCA ELECTRIC PROPERTIES CALCULATION
------------------------------------------------------------------------------

Dipole Moment Calculation                       ... on
Quadrupole Moment Calculation                   ... off
Polarizability Calculation                      ... off
GBWName                                         ... PA_1_STEOM-DLPNO-CCSD_DEF2-TZVP_RIJCOSX_SMD_suretoconv.gbw
Electron density                                ... PA_1_STEOM-DLPNO-CCSD_DEF2-TZVP_RIJCOSX_SMD_suretoconv.scfp
The origin for moment calculation is the CENTER OF MASS  = ( 0.000000, -0.000000  0.000003)

-------------
DIPOLE MOMENT
-------------
                                X             Y             Z
Electronic contribution:      0.00000      -0.00001       0.00042
Nuclear contribution   :     -0.00000      -0.00000      -0.00049
                        -----------------------------------------
Total Dipole Moment    :     -0.00000      -0.00001      -0.00007
                        -----------------------------------------
Magnitude (a.u.)       :      0.00007
Magnitude (Debye)      :      0.00018



--------------------
Rotational spectrum 
--------------------
 
Rotational constants in cm-1:     0.013190     0.005068     0.003964 
Rotational constants in MHz :   395.437241   151.935170   118.847327 

 Dipole components along the rotational axes: 
x,y,z [a.u.] :    -0.000000    -0.000007    -0.000070 
x,y,z [Debye]:    -0.000001    -0.000019    -0.000179 

 

                           *** MDCI DENSITY ***

------------------------------------------------------------------------------
                       ORCA ELECTRIC PROPERTIES CALCULATION
------------------------------------------------------------------------------

Dipole Moment Calculation                       ... on
Quadrupole Moment Calculation                   ... off
Polarizability Calculation                      ... off
GBWName                                         ... PA_1_STEOM-DLPNO-CCSD_DEF2-TZVP_RIJCOSX_SMD_suretoconv.gbw
Electron density                                ... PA_1_STEOM-DLPNO-CCSD_DEF2-TZVP_RIJCOSX_SMD_suretoconv.mdcip
The origin for moment calculation is the CENTER OF MASS  = ( 0.000000, -0.000000  0.000003)

-------------
DIPOLE MOMENT
-------------
                                X             Y             Z
Electronic contribution:      0.00000      -0.00001       0.00209
Nuclear contribution   :     -0.00000      -0.00000      -0.00049
                        -----------------------------------------
Total Dipole Moment    :     -0.00000      -0.00001       0.00160
                        -----------------------------------------
Magnitude (a.u.)       :      0.00160
Magnitude (Debye)      :      0.00406



--------------------
Rotational spectrum 
--------------------
 
Rotational constants in cm-1:     0.013190     0.005068     0.003964 
Rotational constants in MHz :   395.437241   151.935170   118.847327 

 Dipole components along the rotational axes: 
x,y,z [a.u.] :    -0.000001    -0.000008     0.001596 
x,y,z [Debye]:    -0.000003    -0.000020     0.004057 

 

Timings for individual modules:

Sum of individual times         ...    29492.002 sec (= 491.533 min)
GTO integral calculation        ...        2.325 sec (=   0.039 min)   0.0 %
SCF iterations                  ...     1847.157 sec (=  30.786 min)   6.3 %
MDCI module                     ...    27642.519 sec (= 460.709 min)  93.7 %
                             ****ORCA TERMINATED NORMALLY****
TOTAL RUN TIME: 0 days 8 hours 11 minutes 35 seconds 0 msec
