
                                 *****************
                                 * O   R   C   A *
                                 *****************

                                            #,                                       
                                            ###                                      
                                            ####                                     
                                            #####                                    
                                            ######                                   
                                           ########,                                 
                                     ,,################,,,,,                         
                               ,,#################################,,                 
                          ,,##########################################,,             
                       ,#########################################, ''#####,          
                    ,#############################################,,   '####,        
                  ,##################################################,,,,####,       
                ,###########''''           ''''###############################       
              ,#####''   ,,,,##########,,,,          '''####'''          '####       
            ,##' ,,,,###########################,,,                        '##       
           ' ,,###''''                  '''############,,,                           
         ,,##''                                '''############,,,,        ,,,,,,###''
      ,#''                                            '''#######################'''  
     '                                                          ''''####''''         
             ,#######,   #######,   ,#######,      ##                                
            ,#'     '#,  ##    ##  ,#'     '#,    #''#        ######   ,####,        
            ##       ##  ##   ,#'  ##            #'  '#       #        #'  '#        
            ##       ##  #######   ##           ,######,      #####,   #    #        
            '#,     ,#'  ##    ##  '#,     ,#' ,#      #,         ##   #,  ,#        
             '#######'   ##     ##  '#######'  #'      '#     #####' # '####'        



                  #######################################################
                  #                        -***-                        #
                  #          Department of theory and spectroscopy      #
                  #    Directorship and core code : Frank Neese         #
                  #        Max Planck Institute fuer Kohlenforschung    #
                  #                Kaiser Wilhelm Platz 1               #
                  #                 D-45470 Muelheim/Ruhr               #
                  #                      Germany                        #
                  #                                                     #
                  #                  All rights reserved                #
                  #                        -***-                        #
                  #######################################################


                         Program Version 5.0.2 -  RELEASE  -


 With contributions from (in alphabetic order):
   Daniel Aravena         : Magnetic Suceptibility
   Michael Atanasov       : Ab Initio Ligand Field Theory (pilot matlab implementation)
   Alexander A. Auer      : GIAO ZORA, VPT2 properties, NMR spectrum
   Ute Becker             : Parallelization
   Giovanni Bistoni       : ED, misc. LED, open-shell LED, HFLD
   Martin Brehm           : Molecular dynamics
   Dmytro Bykov           : SCF Hessian
   Vijay G. Chilkuri      : MRCI spin determinant printing, contributions to CSF-ICE
   Dipayan Datta          : RHF DLPNO-CCSD density
   Achintya Kumar Dutta   : EOM-CC, STEOM-CC
   Dmitry Ganyushin       : Spin-Orbit,Spin-Spin,Magnetic field MRCI
   Miquel Garcia          : C-PCM and meta-GGA Hessian, CC/C-PCM, Gaussian charge scheme
   Yang Guo               : DLPNO-NEVPT2, F12-NEVPT2, CIM, IAO-localization
   Andreas Hansen         : Spin unrestricted coupled pair/coupled cluster methods
   Benjamin Helmich-Paris : MC-RPA, TRAH-SCF, COSX integrals
   Lee Huntington         : MR-EOM, pCC
   Robert Izsak           : Overlap fitted RIJCOSX, COSX-SCS-MP3, EOM
   Marcus Kettner         : VPT2
   Christian Kollmar      : KDIIS, OOCD, Brueckner-CCSD(T), CCSD density, CASPT2, CASPT2-K
   Simone Kossmann        : Meta GGA functionals, TD-DFT gradient, OOMP2, MP2 Hessian
   Martin Krupicka        : Initial AUTO-CI
   Lucas Lang             : DCDCAS
   Marvin Lechner         : AUTO-CI (C++ implementation), FIC-MRCC
   Dagmar Lenk            : GEPOL surface, SMD
   Dimitrios Liakos       : Extrapolation schemes; Compound Job, initial MDCI parallelization
   Dimitrios Manganas     : Further ROCIS development; embedding schemes
   Dimitrios Pantazis     : SARC Basis sets
   Anastasios Papadopoulos: AUTO-CI, single reference methods and gradients
   Taras Petrenko         : DFT Hessian,TD-DFT gradient, ASA, ECA, R-Raman, ABS, FL, XAS/XES, NRVS
   Peter Pinski           : DLPNO-MP2, DLPNO-MP2 Gradient
   Christoph Reimann      : Effective Core Potentials
   Marius Retegan         : Local ZFS, SOC
   Christoph Riplinger    : Optimizer, TS searches, QM/MM, DLPNO-CCSD(T), (RO)-DLPNO pert. Triples
   Tobias Risthaus        : Range-separated hybrids, TD-DFT gradient, RPA, STAB
   Michael Roemelt        : Original ROCIS implementation
   Masaaki Saitow         : Open-shell DLPNO-CCSD energy and density
   Barbara Sandhoefer     : DKH picture change effects
   Avijit Sen             : IP-ROCIS
   Kantharuban Sivalingam : CASSCF convergence, NEVPT2, FIC-MRCI
   Bernardo de Souza      : ESD, SOC TD-DFT
   Georgi Stoychev        : AutoAux, RI-MP2 NMR, DLPNO-MP2 response
   Willem Van den Heuvel  : Paramagnetic NMR
   Boris Wezisla          : Elementary symmetry handling
   Frank Wennmohs         : Technical directorship


 We gratefully acknowledge several colleagues who have allowed us to
 interface, adapt or use parts of their codes:
   Stefan Grimme, W. Hujo, H. Kruse, P. Pracht,  : VdW corrections, initial TS optimization,
                  C. Bannwarth, S. Ehlert          DFT functionals, gCP, sTDA/sTD-DF
   Ed Valeev, F. Pavosevic, A. Kumar             : LibInt (2-el integral package), F12 methods
   Garnet Chan, S. Sharma, J. Yang, R. Olivares  : DMRG
   Ulf Ekstrom                                   : XCFun DFT Library
   Mihaly Kallay                                 : mrcc  (arbitrary order and MRCC methods)
   Jiri Pittner, Ondrej Demel                    : Mk-CCSD
   Frank Weinhold                                : gennbo (NPA and NBO analysis)
   Christopher J. Cramer and Donald G. Truhlar   : smd solvation model
   Lars Goerigk                                  : TD-DFT with DH, B97 family of functionals
   V. Asgeirsson, H. Jonsson                     : NEB implementation
   FAccTs GmbH                                   : IRC, NEB, NEB-TS, DLPNO-Multilevel, CI-OPT
                                                   MM, QMMM, 2- and 3-layer-ONIOM, Crystal-QMMM,
                                                   LR-CPCM, SF, NACMEs, symmetry and pop. for TD-DFT,
                                                   nearIR, NL-DFT gradient (VV10), updates on ESD,
                                                   ML-optimized integration grids
   S Lehtola, MJT Oliveira, MAL Marques          : LibXC Library
   Liviu Ungur et al                             : ANISO software


 Your calculation uses the libint2 library for the computation of 2-el integrals
 For citations please refer to: http://libint.valeyev.net

 Your ORCA version has been built with support for libXC version: 5.1.0
 For citations please refer to: https://tddft.org/programs/libxc/

 This ORCA versions uses:
   CBLAS   interface :  Fast vector & matrix operations
   LAPACKE interface :  Fast linear algebra routines
   SCALAPACK package :  Parallel linear algebra routines
   Shared memory     :  Shared parallel matrices
   BLAS/LAPACK       :  OpenBLAS 0.3.15  USE64BITINT DYNAMIC_ARCH NO_AFFINITY Zen SINGLE_THREADED
        Core in use  :  Zen
   Copyright (c) 2011-2014, The OpenBLAS Project


Your calculation utilizes the atom-pairwise dispersion correction
with the Becke-Johnson damping scheme (D3BJ)
Cite in your paper:
S.Grimme, S.Ehrlich, L.Goerigk, J Comput Chem, (2011), 32, 1456–1465 
S.Grimme, J.Antony, S.Ehrlich and H.Krieg, J.Chem.Phys., 132, (2010), 154104 
   

Your calculation utilizes the SMD solvation module
Please cite in your paper:
A.V. Marenich, C.J. Cramer, D.G. Truhlar J. Phys. Chem. B, 113, (2009), 6378 

================================================================================

----- Orbital basis set information -----
Your calculation utilizes the basis: def2-TZVP
   F. Weigend and R. Ahlrichs, Phys. Chem. Chem. Phys. 7, 3297 (2005).

----- AuxJ basis set information -----
Your calculation utilizes the auxiliary basis: def2/J
   F. Weigend, Phys. Chem. Chem. Phys. 8, 1057 (2006).

----- AuxC basis set information -----
Your calculation utilizes the auxiliary basis: def2-TZVP/C
  H-La, Hf-Rn : A. Hellweg, C. Hattig, S. Hofener and W. Klopper, Theor. Chem. Acc. 117, 587 (2007).
        Ce-Lu : J. Chmela and M. E. Harding, Mol. Phys. (2018).

================================================================================
                                        WARNINGS
                       Please study these warnings very carefully!
================================================================================

INFO   : Checking CIS options ...
  ===> : (D) CORRECTION FOUND - SETTING MODE=3
  ===> : JK MODE FOUND - ACTIVATING RI-MP2 CODE
  ===> : MP2 AND CIS FOUND - CHECKING
WARNING: CIS(D) and MP2 runs must have the same orbital window
  ===> : adjusting orbital windows

WARNING: No MP2 level density has been requested!
         To caclulate MP2 level properties use
         %mp2 Density relaxed end
         or
         %mp2 Density unrelaxed end
         Otherwise for double-hybrid DFT only the energy is correct!

WARNING: The frozen-core approximation is turned on by default for 
         the MP2 part of double-hybrid DFT.

WARNING: CIS/ROCIS methods need fully converged wavefunctions
  ===> : Setting SCFConvForced true
         You can overwrite this default with %scf ConvForced false 


INFO   : the flag for use of the SHARK integral package has been found!

================================================================================
                                       INPUT FILE
================================================================================
NAME = PA_1_M06L_def2TZVP_coords.inp
|  1> %maxcore 3200
|  2> %pal
|  3>  nprocs= 8
|  4> end
|  5> ! RI-B2PLYP D3BJ def2-TZVP def2/J def2-TZVP/C RIJCOSX CPCM TightSCF
|  6> %TDDFT DCORR 4
|  7>    NROOTS   30
|  8> 
|  9>    TDA      FALSE
| 10> END
| 11> 
| 12> %CPCM
| 13>    SMD          TRUE
| 14>    SMDsolvent   "N,N-DIMETHYLFORMAMIDE"
| 15> END
| 16>    
| 17> 
| 18> * xyz 0 1
| 19> C                   0.68932400   -3.64378400    0.00004200
| 20> C                   1.38003700   -2.43359300    0.00004800
| 21> C                   0.70476900   -1.21932900    0.00003100
| 22> C                  -0.70477600   -1.21932500    0.00005900
| 23> C                  -1.38005700   -2.43358000    0.00003100
| 24> C                  -0.68935600   -3.64377700    0.00001900
| 25> C                  -0.70476900    1.21932900   -0.00000200
| 26> C                   0.70477700    1.21932400   -0.00009000
| 27> C                   1.38005600    2.43358200   -0.00030700
| 28> H                   2.46138000    2.43402900   -0.00042300
| 29> C                   0.68935500    3.64377800   -0.00036700
| 30> C                  -0.68932600    3.64378300   -0.00022100
| 31> C                  -1.38003800    2.43359200   -0.00005200
| 32> H                   2.46136100   -2.43405500    0.00007000
| 33> H                  -2.46138100   -2.43402700    0.00003600
| 34> H                  -1.24454000   -4.57263300   -0.00000100
| 35> H                   1.24453800    4.57263400   -0.00052600
| 36> H                  -1.24450200    4.57264300   -0.00024400
| 37> N                   1.38907800   -0.00000400    0.00003800
| 38> C                  -2.81718700    0.00000400    0.00008900
| 39> C                  -3.50829500   -0.00010200    1.20463900
| 40> C                  -3.50818700    0.00011100   -1.20452700
| 41> C                  -4.89502400   -0.00010300    1.20212500
| 42> C                  -4.89491500    0.00011400   -1.20213700
| 43> C                  -5.58872000    0.00000700   -0.00003600
| 44> H                  -5.43460900   -0.00018700    2.14065000
| 45> H                  -5.43441600    0.00019900   -2.14071000
| 46> H                  -2.95224600   -0.00018600    2.13431600
| 47> H                  -2.95205700    0.00019300   -2.13415600
| 48> H                  -6.67129700    0.00000800   -0.00008600
| 49> H                   1.24449900   -4.57264400    0.00005700
| 50> N                  -1.38907700    0.00000400    0.00016300
| 51> C                   2.81718700   -0.00000400    0.00005600
| 52> C                   3.50821800    0.00061200    1.20465200
| 53> C                   3.50826600   -0.00062100   -1.20451300
| 54> C                   4.89494600    0.00062000    1.20222900
| 55> H                   2.95210800    0.00109100    2.13429300
| 56> C                   4.89499500   -0.00063200   -1.20203300
| 57> H                   2.95219700   -0.00109900   -2.13417800
| 58> C                   5.58872100   -0.00000700    0.00011200
| 59> H                   5.43447100    0.00110500    2.14078800
| 60> H                   5.43455600   -0.00111800   -2.14057100
| 61> H                   6.67129800   -0.00000800    0.00013500
| 62> H                  -2.46136100    2.43405200    0.00004800
| 63> *
| 64> 
| 65> 
| 66>                          ****END OF INPUT****
================================================================================

                       ****************************
                       * Single Point Calculation *
                       ****************************

---------------------------------
CARTESIAN COORDINATES (ANGSTROEM)
---------------------------------
  C      0.689324   -3.643784    0.000042
  C      1.380037   -2.433593    0.000048
  C      0.704769   -1.219329    0.000031
  C     -0.704776   -1.219325    0.000059
  C     -1.380057   -2.433580    0.000031
  C     -0.689356   -3.643777    0.000019
  C     -0.704769    1.219329   -0.000002
  C      0.704777    1.219324   -0.000090
  C      1.380056    2.433582   -0.000307
  H      2.461380    2.434029   -0.000423
  C      0.689355    3.643778   -0.000367
  C     -0.689326    3.643783   -0.000221
  C     -1.380038    2.433592   -0.000052
  H      2.461361   -2.434055    0.000070
  H     -2.461381   -2.434027    0.000036
  H     -1.244540   -4.572633   -0.000001
  H      1.244538    4.572634   -0.000526
  H     -1.244502    4.572643   -0.000244
  N      1.389078   -0.000004    0.000038
  C     -2.817187    0.000004    0.000089
  C     -3.508295   -0.000102    1.204639
  C     -3.508187    0.000111   -1.204527
  C     -4.895024   -0.000103    1.202125
  C     -4.894915    0.000114   -1.202137
  C     -5.588720    0.000007   -0.000036
  H     -5.434609   -0.000187    2.140650
  H     -5.434416    0.000199   -2.140710
  H     -2.952246   -0.000186    2.134316
  H     -2.952057    0.000193   -2.134156
  H     -6.671297    0.000008   -0.000086
  H      1.244499   -4.572644    0.000057
  N     -1.389077    0.000004    0.000163
  C      2.817187   -0.000004    0.000056
  C      3.508218    0.000612    1.204652
  C      3.508266   -0.000621   -1.204513
  C      4.894946    0.000620    1.202229
  H      2.952108    0.001091    2.134293
  C      4.894995   -0.000632   -1.202033
  H      2.952197   -0.001099   -2.134178
  C      5.588721   -0.000007    0.000112
  H      5.434471    0.001105    2.140788
  H      5.434556   -0.001118   -2.140571
  H      6.671298   -0.000008    0.000135
  H     -2.461361    2.434052    0.000048

----------------------------
CARTESIAN COORDINATES (A.U.)
----------------------------
  NO LB      ZA    FRAG     MASS         X           Y           Z
   0 C     6.0000    0    12.011    1.302634   -6.885754    0.000079
   1 C     6.0000    0    12.011    2.607892   -4.598824    0.000091
   2 C     6.0000    0    12.011    1.331820   -2.304198    0.000059
   3 C     6.0000    0    12.011   -1.331834   -2.304190    0.000111
   4 C     6.0000    0    12.011   -2.607930   -4.598800    0.000059
   5 C     6.0000    0    12.011   -1.302694   -6.885741    0.000036
   6 C     6.0000    0    12.011   -1.331820    2.304198   -0.000004
   7 C     6.0000    0    12.011    1.331836    2.304188   -0.000170
   8 C     6.0000    0    12.011    2.607928    4.598804   -0.000580
   9 H     1.0000    0     1.008    4.651334    4.599648   -0.000799
  10 C     6.0000    0    12.011    1.302692    6.885743   -0.000694
  11 C     6.0000    0    12.011   -1.302637    6.885752   -0.000418
  12 C     6.0000    0    12.011   -2.607894    4.598822   -0.000098
  13 H     1.0000    0     1.008    4.651298   -4.599697    0.000132
  14 H     1.0000    0     1.008   -4.651336   -4.599644    0.000068
  15 H     1.0000    0     1.008   -2.351840   -8.641024   -0.000002
  16 H     1.0000    0     1.008    2.351836    8.641026   -0.000994
  17 H     1.0000    0     1.008   -2.351768    8.641043   -0.000461
  18 N     7.0000    0    14.007    2.624977   -0.000008    0.000072
  19 C     6.0000    0    12.011   -5.323712    0.000008    0.000168
  20 C     6.0000    0    12.011   -6.629717   -0.000193    2.276438
  21 C     6.0000    0    12.011   -6.629513    0.000210   -2.276226
  22 C     6.0000    0    12.011   -9.250255   -0.000195    2.271687
  23 C     6.0000    0    12.011   -9.250049    0.000215   -2.271710
  24 C     6.0000    0    12.011  -10.561150    0.000013   -0.000068
  25 H     1.0000    0     1.008  -10.269923   -0.000353    4.045242
  26 H     1.0000    0     1.008  -10.269558    0.000376   -4.045356
  27 H     1.0000    0     1.008   -5.578936   -0.000351    4.033273
  28 H     1.0000    0     1.008   -5.578579    0.000365   -4.032970
  29 H     1.0000    0     1.008  -12.606924    0.000015   -0.000163
  30 H     1.0000    0     1.008    2.351762   -8.641045    0.000108
  31 N     7.0000    0    14.007   -2.624975    0.000008    0.000308
  32 C     6.0000    0    12.011    5.323712   -0.000008    0.000106
  33 C     6.0000    0    12.011    6.629571    0.001157    2.276462
  34 C     6.0000    0    12.011    6.629662   -0.001174   -2.276200
  35 C     6.0000    0    12.011    9.250107    0.001172    2.271884
  36 H     1.0000    0     1.008    5.578676    0.002062    4.033229
  37 C     6.0000    0    12.011    9.250200   -0.001194   -2.271513
  38 H     1.0000    0     1.008    5.578844   -0.002077   -4.033012
  39 C     6.0000    0    12.011   10.561152   -0.000013    0.000212
  40 H     1.0000    0     1.008   10.269662    0.002088    4.045503
  41 H     1.0000    0     1.008   10.269822   -0.002113   -4.045093
  42 H     1.0000    0     1.008   12.606926   -0.000015    0.000255
  43 H     1.0000    0     1.008   -4.651298    4.599692    0.000091

--------------------------------
INTERNAL COORDINATES (ANGSTROEM)
--------------------------------
 C      0   0   0     0.000000000000     0.00000000     0.00000000
 C      1   0   0     1.393429834935     0.00000000     0.00000000
 C      2   1   0     1.389396967684   121.20555687     0.00000000
 C      3   2   1     1.409545000284   119.07916742     0.00000000
 C      4   3   2     1.389395420595   119.07949112     0.00000000
 C      1   2   3     1.378680000210   119.71514736     0.00000000
 C      4   3   2     2.438654000773    89.99999810   179.99999809
 C      7   4   3     1.409546002756    89.99996131     0.00000000
 C      8   7   4     1.389397087047   119.07931849   179.99318316
 H      9   8   7     1.081324098613   119.10320712   180.00293674
 C      9   8   7     1.393428230451   121.20557062     0.00000000
 C     11   9   8     1.378681007740   119.71511510     0.00000000
 C      7   4   3     1.389396580545   150.92077461   179.99719655
 H      2   1   3     1.081324098919   119.69095842   179.99976786
 H      5   4   3     1.081324092402   119.10333879   180.00099847
 H      6   1   2     1.082128801480   120.86677766   179.99907615
 H     11   9   8     1.082128299928   119.41806910   179.99930573
 H     12  11   9     1.082128130632   120.86680376   179.99874166
 N      8   7   4     1.398223389366   119.30184788     0.00000000
 C      4   3   2     2.439066100798   150.00569729   179.99912700
 C     20   4   3     1.388729988659   115.52965226   253.99055214
 C     20   4   3     1.388733494557   115.52882027   105.99583828
 C     21  20   4     1.386731278813   119.74108549   213.64250199
 C     22  20   4     1.386730059562   119.74098876   146.35797341
 C     23  21  20     1.387950007182   120.09057297     0.00000000
 H     23  21  20     1.082580784471   119.79196208   179.99991406
 H     24  22  20     1.082580533981   119.79196499   179.99990068
 H     21  20   4     1.083277352198   119.27098242    33.64231117
 H     22  20   4     1.083277739670   119.27122252   326.35785538
 H     25  23  21     1.082577001155   119.98934789   180.00011957
 H      1   2   3     1.082127617451   119.41801085   180.00008182
 N      7   4   3     1.398224202950    29.30179145   180.01012333
 C     19   8   7     1.428109000113   119.30164515   180.00493002
 C     33  19   8     1.388731703978   119.84197588    89.97630956
 C     33  19   8     1.388732170251   119.84280364   269.97626177
 C     34  33  19     1.386730116849   119.74114232   180.00044007
 H     34  33  19     1.083277873134   119.27094253     0.00000000
 C     35  33  19     1.386731217634   119.74105946   180.00058346
 H     35  33  19     1.083277422210   119.27118308     0.00000000
 C     38  35  33     1.387951279666   120.09056746     0.00000000
 H     36  34  33     1.082580462290   119.79206898   179.99969280
 H     38  35  33     1.082580198582   119.79191977   179.99967948
 H     40  38  35     1.082577000245   119.98931839   180.00052501
 H     13   7   4     1.081323102467   119.10343446     0.00000000

---------------------------
INTERNAL COORDINATES (A.U.)
---------------------------
 C      0   0   0     0.000000000000     0.00000000     0.00000000
 C      1   0   0     2.633200774862     0.00000000     0.00000000
 C      2   1   0     2.625579760223   121.20555687     0.00000000
 C      3   2   1     2.663654023974   119.07916742     0.00000000
 C      4   3   2     2.625576836649   119.07949112     0.00000000
 C      1   2   3     2.605327626711   119.71514736     0.00000000
 C      4   3   2     4.608388196852    89.99999810   179.99999809
 C      7   4   3     2.663655918372    89.99996131     0.00000000
 C      8   7   4     2.625579985786   119.07931849   179.99318316
 H      9   8   7     2.043406408388   119.10320712   180.00293674
 C      9   8   7     2.633197742826   121.20557062     0.00000000
 C     11   9   8     2.605329530666   119.71511510     0.00000000
 C      7   4   3     2.625579028637   150.92077461   179.99719655
 H      2   1   3     2.043406408967   119.69095842   179.99976786
 H      5   4   3     2.043406396652   119.10333879   180.00099847
 H      6   1   2     2.044927076425   120.86677766   179.99907615
 H     11   9   8     2.044926128631   119.41806910   179.99930573
 H     12  11   9     2.044925808707   120.86680376   179.99874166
 N      8   7   4     2.642259279944   119.30184788     0.00000000
 C      4   3   2     4.609166953039   150.00569729   179.99912700
 C     20   4   3     2.624319352529   115.52965226   253.99055214
 C     20   4   3     2.624325977716   115.52882027   105.99583828
 C     21  20   4     2.620542338299   119.74108549   213.64250199
 C     22  20   4     2.620540034249   119.74098876   146.35797341
 C     23  21  20     2.622845401148   120.09057297     0.00000000
 H     23  21  20     2.045781200496   119.79196208   179.99991406
 H     24  22  20     2.045780727139   119.79196499   179.99990068
 H     21  20   4     2.047097522734   119.27098242    33.64231117
 H     22  20   4     2.047098254950   119.27122252   326.35785538
 H     25  23  21     2.045774051065   119.98934789   180.00011957
 H      1   2   3     2.044924838935   119.41801085   180.00008182
 N      7   4   3     2.642260817395    29.30179145   180.01012333
 C     19   8   7     2.698734899603   119.30164515   180.00493002
 C     33  19   8     2.624322594012   119.84197588    89.97630956
 C     33  19   8     2.624323475141   119.84280364   269.97626177
 C     34  33  19     2.620540142506   119.74114232   180.00044007
 H     34  33  19     2.047098507160   119.27094253     0.00000000
 C     35  33  19     2.620542222688   119.74105946   180.00058346
 H     35  33  19     2.047097655037   119.27118308     0.00000000
 C     38  35  33     2.622847805794   120.09056746     0.00000000
 H     36  34  33     2.045780591661   119.79206898   179.99969280
 H     38  35  33     2.045780093325   119.79191977   179.99967948
 H     40  38  35     2.045774049345   119.98931839   180.00052501
 H     13   7   4     2.043404525945   119.10343446     0.00000000

---------------------
BASIS SET INFORMATION
---------------------
There are 3 groups of distinct atoms

 Group   1 Type C   : 11s6p2d1f contracted to 5s3p2d1f pattern {62111/411/11/1}
 Group   2 Type H   : 5s1p contracted to 3s1p pattern {311/1}
 Group   3 Type N   : 11s6p2d1f contracted to 5s3p2d1f pattern {62111/411/11/1}

Atom   0C    basis set group =>   1
Atom   1C    basis set group =>   1
Atom   2C    basis set group =>   1
Atom   3C    basis set group =>   1
Atom   4C    basis set group =>   1
Atom   5C    basis set group =>   1
Atom   6C    basis set group =>   1
Atom   7C    basis set group =>   1
Atom   8C    basis set group =>   1
Atom   9H    basis set group =>   2
Atom  10C    basis set group =>   1
Atom  11C    basis set group =>   1
Atom  12C    basis set group =>   1
Atom  13H    basis set group =>   2
Atom  14H    basis set group =>   2
Atom  15H    basis set group =>   2
Atom  16H    basis set group =>   2
Atom  17H    basis set group =>   2
Atom  18N    basis set group =>   3
Atom  19C    basis set group =>   1
Atom  20C    basis set group =>   1
Atom  21C    basis set group =>   1
Atom  22C    basis set group =>   1
Atom  23C    basis set group =>   1
Atom  24C    basis set group =>   1
Atom  25H    basis set group =>   2
Atom  26H    basis set group =>   2
Atom  27H    basis set group =>   2
Atom  28H    basis set group =>   2
Atom  29H    basis set group =>   2
Atom  30H    basis set group =>   2
Atom  31N    basis set group =>   3
Atom  32C    basis set group =>   1
Atom  33C    basis set group =>   1
Atom  34C    basis set group =>   1
Atom  35C    basis set group =>   1
Atom  36H    basis set group =>   2
Atom  37C    basis set group =>   1
Atom  38H    basis set group =>   2
Atom  39C    basis set group =>   1
Atom  40H    basis set group =>   2
Atom  41H    basis set group =>   2
Atom  42H    basis set group =>   2
Atom  43H    basis set group =>   2
---------------------------------
AUXILIARY/J BASIS SET INFORMATION
---------------------------------
There are 3 groups of distinct atoms

 Group   1 Type C   : 12s5p4d2f1g contracted to 6s4p3d1f1g pattern {711111/2111/211/2/1}
 Group   2 Type H   : 5s2p1d contracted to 3s1p1d pattern {311/2/1}
 Group   3 Type N   : 12s5p4d2f1g contracted to 6s4p3d1f1g pattern {711111/2111/211/2/1}

Atom   0C    basis set group =>   1
Atom   1C    basis set group =>   1
Atom   2C    basis set group =>   1
Atom   3C    basis set group =>   1
Atom   4C    basis set group =>   1
Atom   5C    basis set group =>   1
Atom   6C    basis set group =>   1
Atom   7C    basis set group =>   1
Atom   8C    basis set group =>   1
Atom   9H    basis set group =>   2
Atom  10C    basis set group =>   1
Atom  11C    basis set group =>   1
Atom  12C    basis set group =>   1
Atom  13H    basis set group =>   2
Atom  14H    basis set group =>   2
Atom  15H    basis set group =>   2
Atom  16H    basis set group =>   2
Atom  17H    basis set group =>   2
Atom  18N    basis set group =>   3
Atom  19C    basis set group =>   1
Atom  20C    basis set group =>   1
Atom  21C    basis set group =>   1
Atom  22C    basis set group =>   1
Atom  23C    basis set group =>   1
Atom  24C    basis set group =>   1
Atom  25H    basis set group =>   2
Atom  26H    basis set group =>   2
Atom  27H    basis set group =>   2
Atom  28H    basis set group =>   2
Atom  29H    basis set group =>   2
Atom  30H    basis set group =>   2
Atom  31N    basis set group =>   3
Atom  32C    basis set group =>   1
Atom  33C    basis set group =>   1
Atom  34C    basis set group =>   1
Atom  35C    basis set group =>   1
Atom  36H    basis set group =>   2
Atom  37C    basis set group =>   1
Atom  38H    basis set group =>   2
Atom  39C    basis set group =>   1
Atom  40H    basis set group =>   2
Atom  41H    basis set group =>   2
Atom  42H    basis set group =>   2
Atom  43H    basis set group =>   2
---------------------------------
AUXILIARY/C BASIS SET INFORMATION
---------------------------------
There are 3 groups of distinct atoms

 Group   1 Type C   : 8s6p5d3f1g contracted to 8s6p4d3f1g pattern {11111111/111111/2111/111/1}
 Group   2 Type H   : 4s3p2d contracted to 4s2p1d pattern {1111/21/2}
 Group   3 Type N   : 8s6p5d3f1g contracted to 8s6p4d3f1g pattern {11111111/111111/2111/111/1}

Atom   0C    basis set group =>   1
Atom   1C    basis set group =>   1
Atom   2C    basis set group =>   1
Atom   3C    basis set group =>   1
Atom   4C    basis set group =>   1
Atom   5C    basis set group =>   1
Atom   6C    basis set group =>   1
Atom   7C    basis set group =>   1
Atom   8C    basis set group =>   1
Atom   9H    basis set group =>   2
Atom  10C    basis set group =>   1
Atom  11C    basis set group =>   1
Atom  12C    basis set group =>   1
Atom  13H    basis set group =>   2
Atom  14H    basis set group =>   2
Atom  15H    basis set group =>   2
Atom  16H    basis set group =>   2
Atom  17H    basis set group =>   2
Atom  18N    basis set group =>   3
Atom  19C    basis set group =>   1
Atom  20C    basis set group =>   1
Atom  21C    basis set group =>   1
Atom  22C    basis set group =>   1
Atom  23C    basis set group =>   1
Atom  24C    basis set group =>   1
Atom  25H    basis set group =>   2
Atom  26H    basis set group =>   2
Atom  27H    basis set group =>   2
Atom  28H    basis set group =>   2
Atom  29H    basis set group =>   2
Atom  30H    basis set group =>   2
Atom  31N    basis set group =>   3
Atom  32C    basis set group =>   1
Atom  33C    basis set group =>   1
Atom  34C    basis set group =>   1
Atom  35C    basis set group =>   1
Atom  36H    basis set group =>   2
Atom  37C    basis set group =>   1
Atom  38H    basis set group =>   2
Atom  39C    basis set group =>   1
Atom  40H    basis set group =>   2
Atom  41H    basis set group =>   2
Atom  42H    basis set group =>   2
Atom  43H    basis set group =>   2


           ************************************************************
           *        Program running with 8 parallel MPI-processes     *
           *              working on a common directory               *
           ************************************************************
------------------------------------------------------------------------------
                           ORCA GTO INTEGRAL CALCULATION
                           -- RI-GTO INTEGRALS CHOSEN --
------------------------------------------------------------------------------
------------------------------------------------------------------------------
                   ___                                                        
                  /   \      - P O W E R E D   B Y -                         
                 /     \                                                     
                 |  |  |   _    _      __       _____    __    __             
                 |  |  |  | |  | |    /  \     |  _  \  |  |  /  |          
                  \  \/   | |  | |   /    \    | | | |  |  | /  /          
                 / \  \   | |__| |  /  /\  \   | |_| |  |  |/  /          
                |  |  |   |  __  | /  /__\  \  |    /   |      \           
                |  |  |   | |  | | |   __   |  |    \   |  |\   \          
                \     /   | |  | | |  |  |  |  | |\  \  |  | \   \       
                 \___/    |_|  |_| |__|  |__|  |_| \__\ |__|  \__/        
                                                                              
                      - O R C A' S   B I G   F R I E N D -                    
                                      &                                       
                       - I N T E G R A L  F E E D E R -                       
                                                                              
 v1 FN, 2020, v2 2021                                                         
------------------------------------------------------------------------------


Reading SHARK input file PA_1_M06L_def2TZVP_coords.SHARKINP.tmp ... ok
----------------------
SHARK INTEGRAL PACKAGE
----------------------

Number of atoms                             ...     44
Number of basis functions                   ...    914
Number of shells                            ...    358
Maximum angular momentum                    ...      3
Integral batch strategy                     ... SHARK/LIBINT Hybrid
RI-J (if used) integral strategy            ... SPLIT-RIJ (Revised 2003 algorithm where possible)
Printlevel                                  ...      1
Contraction scheme used                     ... SEGMENTED contraction
Coulomb Range Separation                    ... NOT USED
Exchange Range Separation                   ... NOT USED
Finite Nucleus Model                        ... NOT USED
Auxiliary Coulomb fitting basis             ... AVAILABLE
   # of basis functions in Aux-J            ...   1472
   # of shells in Aux-J                     ...    480
   Maximum angular momentum in Aux-J        ...      4
Auxiliary J/K fitting basis                 ... NOT available
Auxiliary Correlation fitting basis         ... AVAILABLE
   # of basis functions in Aux-C            ...   2246
   # of shells in Aux-C                     ...    698
   Maximum angular momentum in Aux-C        ...      4
Auxiliary 'external' fitting basis          ... NOT available
Integral threshold                          ...     2.500000e-11
Primitive cut-off                           ...     2.500000e-12
Primitive pair pre-selection threshold      ...     2.500000e-12

Calculating pre-screening integrals         ... done (  0.1 sec) Dimension = 358
Organizing shell pair data                  ... done (  0.5 sec)
Shell pair information
Total number of shell pairs                 ...     64261
Shell pairs after pre-screening             ...     45040
Total number of primitive shell pairs       ...    198132
Primitive shell pairs kept                  ...     91262
          la=0 lb=0:  11290 shell pairs
          la=1 lb=0:  12886 shell pairs
          la=1 lb=1:   3670 shell pairs
          la=2 lb=0:   6512 shell pairs
          la=2 lb=1:   3744 shell pairs
          la=2 lb=2:    999 shell pairs
          la=3 lb=0:   3038 shell pairs
          la=3 lb=1:   1768 shell pairs
          la=3 lb=2:    906 shell pairs
          la=3 lb=3:    227 shell pairs

Calculating one electron integrals          ... done (  0.1 sec)
Calculating RI/J V-Matrix + Cholesky decomp.... done (  0.2 sec)
Calculating RI/C V-Matrix + Cholesky decomp.... done (  0.2 sec)
Calculating Nuclear repulsion               ... done (  0.0 sec) ENN=   2153.626086483224 Eh

SHARK setup successfully completed in   1.5 seconds

Maximum memory used throughout the entire GTOINT-calculation: 71.8 MB


           ************************************************************
           *        Program running with 8 parallel MPI-processes     *
           *              working on a common directory               *
           ************************************************************
-------------------------------------------------------------------------------
                                 ORCA SCF
-------------------------------------------------------------------------------

------------
SCF SETTINGS
------------
Hamiltonian:
 Density Functional     Method          .... DFT(GTOs)
 Exchange Functional    Exchange        .... B88
   X-Alpha parameter    XAlpha          ....  0.666667
   Becke's b parameter  XBeta           ....  0.004200
 Correlation Functional Correlation     .... LYP
 LDA part of GGA corr.  LDAOpt          .... VWN-3
 Gradients option       PostSCFGGA      .... off
 Hybrid DFT is turned on
   Fraction HF Exchange ScalHFX         ....  0.530000
   Scaling of DF-GGA-X  ScalDFX         ....  0.470000
   Scaling of DF-GGA-C  ScalDFC         ....  0.730000
   Scaling of DF-LDA-C  ScalLDAC        ....  0.730000
   Perturbative correction              ....  0.270000
   Density functional embedding theory  .... OFF
   NL short-range parameter             ....  7.800000
 RI-approximation to the Coulomb term is turned on
   Number of AuxJ basis functions       .... 1472
   RIJ-COSX (HFX calculated with COS-X)).... on


General Settings:
 Integral files         IntName         .... PA_1_M06L_def2TZVP_coords
 Hartree-Fock type      HFTyp           .... RHF
 Total Charge           Charge          ....    0
 Multiplicity           Mult            ....    1
 Number of Electrons    NEL             ....  176
 Basis Dimension        Dim             ....  914
 Nuclear Repulsion      ENuc            ....   2153.6260864832 Eh

Convergence Acceleration:
 DIIS                   CNVDIIS         .... on
   Start iteration      DIISMaxIt       ....    12
   Startup error        DIISStart       ....  0.200000
   # of expansion vecs  DIISMaxEq       ....     5
   Bias factor          DIISBfac        ....   1.050
   Max. coefficient     DIISMaxC        ....  10.000
 Trust-Rad. Augm. Hess. CNVTRAH         .... auto
   Auto Start mean grad. ratio tolernc. ....  1.125000
   Auto Start start iteration           ....    20
   Auto Start num. interpolation iter.  ....    10
   Max. Number of Micro iterations      ....    16
   Max. Number of Macro iterations      .... Maxiter - #DIIS iter
   Number of Davidson start vectors     ....     2
   Converg. threshold I  (grad. norm)   ....   1.000e-05
   Converg. threshold II (energy diff.) ....   1.000e-08
   Grad. Scal. Fac. for Micro threshold ....   0.100
   Minimum threshold for Micro iter.    ....   0.010
   NR start threshold (gradient norm)   ....   0.001
   Initial trust radius                 ....   0.400
   Minimum AH scaling param. (alpha)    ....   1.000
   Maximum AH scaling param. (alpha)    .... 1000.000
   Orbital update algorithm             .... Taylor
   White noise on init. David. guess    .... on
   Maximum white noise                  ....   0.010
   Quad. conv. algorithm                .... NR
 SOSCF                  CNVSOSCF        .... on
   Start iteration      SOSCFMaxIt      ....   150
   Startup grad/error   SOSCFStart      ....  0.003300
 Level Shifting         CNVShift        .... on
   Level shift para.    LevelShift      ....    0.2500
   Turn off err/grad.   ShiftErr        ....    0.0010
 Zerner damping         CNVZerner       .... off
 Static damping         CNVDamp         .... on
   Fraction old density DampFac         ....    0.7000
   Max. Damping (<1)    DampMax         ....    0.9800
   Min. Damping (>=0)   DampMin         ....    0.0000
   Turn off err/grad.   DampErr         ....    0.1000
 Fernandez-Rico         CNVRico         .... off

SCF Procedure:
 Maximum # iterations   MaxIter         ....   125
 SCF integral mode      SCFMode         .... Direct
   Integral package                     .... SHARK and LIBINT hybrid scheme
 Reset frequency        DirectResetFreq ....    20
 Integral Threshold     Thresh          ....  2.500e-11 Eh
 Primitive CutOff       TCut            ....  2.500e-12 Eh

Convergence Tolerance:
 Convergence Check Mode ConvCheckMode   .... Total+1el-Energy
 Convergence forced     ConvForced      .... 1
 Energy Change          TolE            ....  1.000e-08 Eh
 1-El. energy change                    ....  1.000e-05 Eh
 Orbital Gradient       TolG            ....  1.000e-05
 Orbital Rotation angle TolX            ....  1.000e-05
 DIIS Error             TolErr          ....  5.000e-07


Diagonalization of the overlap matrix:
Smallest eigenvalue                        ... 3.489e-06
Time for diagonalization                   ...    0.165 sec
Threshold for overlap eigenvalues          ... 1.000e-08
Number of eigenvalues below threshold      ... 0
Time for construction of square roots      ...    0.090 sec
Total time needed                          ...    0.258 sec

Time for model grid setup =    0.286 sec

------------------------------
INITIAL GUESS: MODEL POTENTIAL
------------------------------
Loading Hartree-Fock densities                     ... done
Calculating cut-offs                               ... done
Initializing the effective Hamiltonian             ... done
Setting up the integral package (SHARK)            ... done
Starting the Coulomb interaction                   ... done (   0.8 sec)
Reading the grid                                   ... done
Mapping shells                                     ... done
Starting the XC term evaluation                    ... done (   0.3 sec)
  promolecular density results
     # of electrons  =    175.979343964
     EX              =   -142.058714246
     EC              =     -1.996541489
     EX+EC           =   -144.055255735
Transforming the Hamiltonian                       ... done (   0.1 sec)
Diagonalizing the Hamiltonian                      ... done (   0.1 sec)
Back transforming the eigenvectors                 ... done (   0.0 sec)
Now organizing SCF variables                       ... done
                      ------------------
                      INITIAL GUESS DONE (   1.6 sec)
                      ------------------
-------------------
DFT GRID GENERATION
-------------------

General Integration Accuracy     IntAcc      ... 4.388
Radial Grid Type                 RadialGrid  ... OptM3 with GC (2021)
Angular Grid (max. ang.)         AngularGrid ... 4 (Lebedev-302)
Angular grid pruning method      GridPruning ... 4 (adaptive)
Weight generation scheme         WeightScheme... Becke
Basis function cutoff            BFCut       ... 1.0000e-11
Integration weight cutoff        WCut        ... 1.0000e-14
Angular grids for H and He will be reduced by one unit
Partially contracted basis set               ... off
Rotationally invariant grid construction     ... off

Total number of grid points                  ...   211560
Total number of batches                      ...     3326
Average number of points per batch           ...       63
Average number of grid points per atom       ...     4808
Time for grid setup =    1.164 sec

--------------------
COSX GRID GENERATION
--------------------

GRIDX 1
-------
General Integration Accuracy     IntAcc      ... 3.816
Radial Grid Type                 RadialGrid  ... OptM3 with GC (2021)
Angular Grid (max. ang.)         AngularGrid ... 1 (Lebedev-50)
Angular grid pruning method      GridPruning ... 4 (adaptive)
Weight generation scheme         WeightScheme... Becke
Basis function cutoff            BFCut       ... 1.0000e-11
Integration weight cutoff        WCut        ... 1.0000e-14
Angular grids for H and He will be reduced by one unit
Partially contracted basis set               ... on
Rotationally invariant grid construction     ... off

Total number of grid points                  ...    26916
Total number of batches                      ...      442
Average number of points per batch           ...       60
Average number of grid points per atom       ...      612
UseSFitting                                  ... on

GRIDX 2
-------
General Integration Accuracy     IntAcc      ... 4.020
Radial Grid Type                 RadialGrid  ... OptM3 with GC (2021)
Angular Grid (max. ang.)         AngularGrid ... 2 (Lebedev-110)
Angular grid pruning method      GridPruning ... 4 (adaptive)
Weight generation scheme         WeightScheme... Becke
Basis function cutoff            BFCut       ... 1.0000e-11
Integration weight cutoff        WCut        ... 1.0000e-14
Angular grids for H and He will be reduced by one unit
Partially contracted basis set               ... on
Rotationally invariant grid construction     ... off

Total number of grid points                  ...    58193
Total number of batches                      ...      924
Average number of points per batch           ...       62
Average number of grid points per atom       ...     1323
UseSFitting                                  ... on

GRIDX 3
-------
General Integration Accuracy     IntAcc      ... 4.338
Radial Grid Type                 RadialGrid  ... OptM3 with GC (2021)
Angular Grid (max. ang.)         AngularGrid ... 3 (Lebedev-194)
Angular grid pruning method      GridPruning ... 4 (adaptive)
Weight generation scheme         WeightScheme... Becke
Basis function cutoff            BFCut       ... 1.0000e-11
Integration weight cutoff        WCut        ... 1.0000e-14
Angular grids for H and He will be reduced by one unit
Partially contracted basis set               ... on
Rotationally invariant grid construction     ... off

Total number of grid points                  ...   127499
Total number of batches                      ...     2010
Average number of points per batch           ...       63
Average number of grid points per atom       ...     2898
UseSFitting                                  ... on

Time for X-Grid setup             =    1.598 sec


--------------------
CPCM SOLVATION MODEL
--------------------
CPCM parameters:
  Epsilon                                         ...      37.2190
  Refrac                                          ...       1.4305
  Rsolv                                           ...       1.3000
  Surface type                                    ... GAUSSIAN VDW
  Epsilon function type                           ...         CPCM
Solvent:                                     ... N,N-DIMETHYLFORMAMIDE
SMD-CDS solvent descriptors:
  Soln                                       ...    1.4305
  Soln25                                     ...    1.4280
  Sola                                       ...    0.0000
  Solb                                       ...    0.7400
  Solg                                       ...   49.5600
  Solc                                       ...    0.0000
  Solh                                       ...    0.0000
Radii:
 Radius for C  used is    3.4960 Bohr (=   1.8500 Ang.)
 Radius for H  used is    2.2677 Bohr (=   1.2000 Ang.)
 Radius for N  used is    3.5716 Bohr (=   1.8900 Ang.)
Calculating surface                               ...        done! (  0.0s)
GEPOL surface points                              ...         2374
GEPOL Volume                                      ...    2291.2550
GEPOL Surface-area                                ...    1234.2780
Calculating surface distance matrix               ...        done! (  0.0s)
Performing Cholesky decomposition & store         ...        done! (  0.2s)
Overall time for CPCM initialization              ...                 0.2s
--------------
SCF ITERATIONS
--------------
ITER       Energy         Delta-E        Max-DP      RMS-DP      [F,P]     Damp
               ***  Starting incremental Fock matrix formation  ***
  0  -1032.3479054315   0.000000000000 0.03396141  0.00058069  0.1584004 0.7000
  1  -1032.6095223016  -0.261616870149 0.02755341  0.00046025  0.0988862 0.7000
                               ***Turning on DIIS***
  2  -1032.7507226999  -0.141200398322 0.06616771  0.00100924  0.0544971 0.0000
  3  -1032.9882502536  -0.237527553674 0.01310637  0.00024353  0.0344090 0.0000
  4  -1033.0185689211  -0.030318667455 0.00531531  0.00010099  0.0090178 0.0000
                      *** Initiating the SOSCF procedure ***
                           *** Shutting down DIIS ***
                      *** Re-Reading the Fockian *** 
                      *** Removing any level shift *** 
ITER      Energy       Delta-E        Grad      Rot      Max-DP    RMS-DP
  5  -1033.01960489  -0.0010359677  0.001012  0.001012  0.002607  0.000038
               *** Restarting incremental Fock matrix formation ***
  6  -1033.01933309   0.0002717955  0.001267  0.005082  0.008651  0.000157
  7  -1033.01936353  -0.0000304398  0.000267  0.002653  0.003230  0.000061
  8  -1033.01936999  -0.0000064568  0.000108  0.000253  0.002794  0.000050
  9  -1033.01937169  -0.0000017045  0.000073  0.000205  0.000669  0.000013
 10  -1033.01937185  -0.0000001565  0.000052  0.000199  0.000412  0.000007
 11  -1033.01937193  -0.0000000808  0.000009  0.000034  0.000118  0.000002
 12  -1033.01937194  -0.0000000122  0.000004  0.000009  0.000124  0.000001
                  ***Gradient check signals convergence***
              ***Rediagonalizing the Fockian in SOSCF/NRSCF***

               *****************************************************
               *                     SUCCESS                       *
               *           SCF CONVERGED AFTER  13 CYCLES          *
               *****************************************************

Old exchange energy                            =    -76.566716915 Eh
New exchange energy                            =    -76.566574923 Eh
Exchange energy change after final integration =      0.000141992 Eh
Total energy after final integration           =  -1033.019230021 Eh
Final COS-X integration done in                =    29.771 sec

SMD CDS free energy correction energy :                -4.06609     Kcal/mol
Total Energy after SMD CDS correction =             -1033.025709744 Eh

----------------
TOTAL SCF ENERGY
----------------

Total Energy       :        -1033.02570974 Eh          -28110.05865 eV

Components:
Nuclear Repulsion  :         2153.62608648 Eh           58603.14514 eV
Electronic Energy  :        -3186.65179623 Eh          -86713.20379 eV
One Electron Energy:        -5679.44208095 Eh         -154545.47596 eV
Two Electron Energy:         2492.79028473 Eh           67832.27217 eV
Max COSX asymmetry :            0.00001134 Eh               0.00031 eV
CPCM Dielectric    :           -0.02021475 Eh              -0.55007 eV
SMD CDS (Gcds)     :           -0.00647972 Eh              -0.17632 eV

Virial components:
Potential Energy   :        -2062.75091523 Eh          -56130.30601 eV
Kinetic Energy     :         1029.72520548 Eh           28020.24736 eV
Virial Ratio       :            2.00320523


DFT components:
N(Alpha)           :       88.000370394366 electrons
N(Beta)            :       88.000370394366 electrons
N(Total)           :      176.000740788731 electrons
E(X)               :      -68.018068121926 Eh       
E(C)               :       -4.374737580504 Eh       
E(XC)              :      -72.392805702430 Eh       
DFET-embed. en.    :        0.000000000000 Eh       
CPCM Solvation Model Properties:
Surface-charge          :           -0.07260009
Charge-correction       :            0.00008454 Eh               0.00230 eV
Free-energy (cav+disp)  :           -0.00647972 Eh              -0.17632 eV

---------------
SCF CONVERGENCE
---------------

  Last Energy change         ...   -6.9269e-08  Tolerance :   1.0000e-08
  Last MAX-Density change    ...    2.1094e-15  Tolerance :   1.0000e-07
  Last RMS-Density change    ...    1.3059e-17  Tolerance :   5.0000e-09
  Last Orbital Gradient      ...    9.1081e-07  Tolerance :   1.0000e-05
  Last Orbital Rotation      ...    4.0942e-06  Tolerance :   1.0000e-05

             **** THE GBW FILE WAS UPDATED (PA_1_M06L_def2TZVP_coords.gbw) ****
             **** DENSITY PA_1_M06L_def2TZVP_coords.scfp WAS UPDATED ****
             **** ENERGY FILE WAS UPDATED (PA_1_M06L_def2TZVP_coords.en.tmp) ****
             **** THE GBW FILE WAS UPDATED (PA_1_M06L_def2TZVP_coords.gbw) ****
             **** DENSITY PA_1_M06L_def2TZVP_coords.scfp WAS UPDATED ****
----------------
ORBITAL ENERGIES
----------------

  NO   OCC          E(Eh)            E(eV) 
   0   2.0000     -14.868453      -404.5912 
   1   2.0000     -14.868445      -404.5910 
   2   2.0000     -10.665360      -290.2192 
   3   2.0000     -10.665335      -290.2185 
   4   2.0000     -10.664586      -290.1981 
   5   2.0000     -10.664579      -290.1980 
   6   2.0000     -10.656010      -289.9648 
   7   2.0000     -10.656007      -289.9647 
   8   2.0000     -10.619086      -288.9600 
   9   2.0000     -10.619084      -288.9600 
  10   2.0000     -10.618949      -288.9563 
  11   2.0000     -10.618949      -288.9563 
  12   2.0000     -10.618343      -288.9398 
  13   2.0000     -10.618342      -288.9398 
  14   2.0000     -10.618039      -288.9315 
  15   2.0000     -10.618039      -288.9315 
  16   2.0000     -10.617425      -288.9148 
  17   2.0000     -10.617424      -288.9148 
  18   2.0000     -10.609395      -288.6963 
  19   2.0000     -10.609394      -288.6963 
  20   2.0000     -10.609392      -288.6962 
  21   2.0000     -10.609391      -288.6962 
  22   2.0000     -10.606859      -288.6273 
  23   2.0000     -10.606859      -288.6273 
  24   2.0000     -10.605949      -288.6026 
  25   2.0000     -10.605949      -288.6026 
  26   2.0000      -1.131715       -30.7955 
  27   2.0000      -1.087446       -29.5909 
  28   2.0000      -0.989707       -26.9313 
  29   2.0000      -0.989378       -26.9223 
  30   2.0000      -0.978220       -26.6187 
  31   2.0000      -0.952948       -25.9310 
  32   2.0000      -0.882236       -24.0069 
  33   2.0000      -0.874788       -23.8042 
  34   2.0000      -0.870317       -23.6825 
  35   2.0000      -0.865365       -23.5478 
  36   2.0000      -0.865343       -23.5472 
  37   2.0000      -0.858475       -23.3603 
  38   2.0000      -0.835316       -22.7301 
  39   2.0000      -0.800817       -21.7913 
  40   2.0000      -0.744725       -20.2650 
  41   2.0000      -0.733710       -19.9653 
  42   2.0000      -0.707153       -19.2426 
  43   2.0000      -0.706679       -19.2297 
  44   2.0000      -0.703753       -19.1501 
  45   2.0000      -0.691254       -18.8100 
  46   2.0000      -0.667850       -18.1731 
  47   2.0000      -0.646874       -17.6023 
  48   2.0000      -0.643676       -17.5153 
  49   2.0000      -0.613997       -16.7077 
  50   2.0000      -0.612312       -16.6619 
  51   2.0000      -0.575492       -15.6599 
  52   2.0000      -0.565003       -15.3745 
  53   2.0000      -0.556899       -15.1540 
  54   2.0000      -0.552385       -15.0312 
  55   2.0000      -0.542873       -14.7723 
  56   2.0000      -0.540530       -14.7086 
  57   2.0000      -0.537948       -14.6383 
  58   2.0000      -0.520719       -14.1695 
  59   2.0000      -0.507686       -13.8148 
  60   2.0000      -0.505551       -13.7568 
  61   2.0000      -0.502112       -13.6632 
  62   2.0000      -0.498357       -13.5610 
  63   2.0000      -0.497631       -13.5412 
  64   2.0000      -0.494079       -13.4446 
  65   2.0000      -0.488833       -13.3018 
  66   2.0000      -0.487163       -13.2564 
  67   2.0000      -0.440317       -11.9816 
  68   2.0000      -0.437818       -11.9136 
  69   2.0000      -0.436146       -11.8681 
  70   2.0000      -0.432689       -11.7741 
  71   2.0000      -0.428433       -11.6583 
  72   2.0000      -0.426910       -11.6168 
  73   2.0000      -0.425216       -11.5707 
  74   2.0000      -0.414687       -11.2842 
  75   2.0000      -0.412686       -11.2298 
  76   2.0000      -0.412382       -11.2215 
  77   2.0000      -0.398063       -10.8319 
  78   2.0000      -0.391101       -10.6424 
  79   2.0000      -0.373118       -10.1531 
  80   2.0000      -0.308685        -8.3997 
  81   2.0000      -0.301927        -8.2159 
  82   2.0000      -0.296592        -8.0707 
  83   2.0000      -0.295864        -8.0509 
  84   2.0000      -0.295014        -8.0277 
  85   2.0000      -0.289858        -7.8874 
  86   2.0000      -0.261165        -7.1067 
  87   2.0000      -0.195094        -5.3088 
  88   0.0000       0.025681         0.6988 
  89   0.0000       0.028876         0.7858 
  90   0.0000       0.035586         0.9683 
  91   0.0000       0.037204         1.0124 
  92   0.0000       0.049554         1.3484 
  93   0.0000       0.054641         1.4869 
  94   0.0000       0.057962         1.5772 
  95   0.0000       0.089483         2.4350 
  96   0.0000       0.090910         2.4738 
  97   0.0000       0.102721         2.7952 
  98   0.0000       0.103456         2.8152 
  99   0.0000       0.115265         3.1365 
 100   0.0000       0.116100         3.1592 
 101   0.0000       0.119678         3.2566 
 102   0.0000       0.126625         3.4457 
 103   0.0000       0.133119         3.6223 
 104   0.0000       0.139662         3.8004 
 105   0.0000       0.141634         3.8541 
 106   0.0000       0.141794         3.8584 
 107   0.0000       0.154324         4.1994 
 108   0.0000       0.156247         4.2517 
 109   0.0000       0.160244         4.3605 
 110   0.0000       0.162007         4.4084 
 111   0.0000       0.166238         4.5236 
 112   0.0000       0.166637         4.5344 
 113   0.0000       0.169465         4.6114 
 114   0.0000       0.179800         4.8926 
 115   0.0000       0.189890         5.1672 
 116   0.0000       0.201014         5.4699 
 117   0.0000       0.216457         5.8901 
 118   0.0000       0.218049         5.9334 
 119   0.0000       0.218393         5.9428 
 120   0.0000       0.222790         6.0624 
 121   0.0000       0.227087         6.1793 
 122   0.0000       0.229643         6.2489 
 123   0.0000       0.237465         6.4617 
 124   0.0000       0.241886         6.5821 
 125   0.0000       0.251958         6.8561 
 126   0.0000       0.252132         6.8609 
 127   0.0000       0.256325         6.9750 
 128   0.0000       0.256818         6.9884 
 129   0.0000       0.257320         7.0020 
 130   0.0000       0.260598         7.0912 
 131   0.0000       0.264037         7.1848 
 132   0.0000       0.274123         7.4593 
 133   0.0000       0.275667         7.5013 
 134   0.0000       0.279316         7.6006 
 135   0.0000       0.281220         7.6524 
 136   0.0000       0.288048         7.8382 
 137   0.0000       0.288084         7.8392 
 138   0.0000       0.289431         7.8758 
 139   0.0000       0.293851         7.9961 
 140   0.0000       0.294041         8.0013 
 141   0.0000       0.295910         8.0521 
 142   0.0000       0.298086         8.1113 
 143   0.0000       0.298874         8.1328 
 144   0.0000       0.312703         8.5091 
 145   0.0000       0.314796         8.5660 
 146   0.0000       0.321332         8.7439 
 147   0.0000       0.322299         8.7702 
 148   0.0000       0.324712         8.8359 
 149   0.0000       0.337127         9.1737 
 150   0.0000       0.337741         9.1904 
 151   0.0000       0.340246         9.2586 
 152   0.0000       0.343123         9.3369 
 153   0.0000       0.348030         9.4704 
 154   0.0000       0.349534         9.5113 
 155   0.0000       0.351935         9.5766 
 156   0.0000       0.354696         9.6518 
 157   0.0000       0.357077         9.7165 
 158   0.0000       0.361531         9.8378 
 159   0.0000       0.372628        10.1397 
 160   0.0000       0.378052        10.2873 
 161   0.0000       0.391653        10.6574 
 162   0.0000       0.399515        10.8714 
 163   0.0000       0.400513        10.8985 
 164   0.0000       0.401975        10.9383 
 165   0.0000       0.406787        11.0692 
 166   0.0000       0.415379        11.3030 
 167   0.0000       0.417849        11.3702 
 168   0.0000       0.420318        11.4374 
 169   0.0000       0.423839        11.5332 
 170   0.0000       0.424067        11.5395 
 171   0.0000       0.426525        11.6063 
 172   0.0000       0.433756        11.8031 
 173   0.0000       0.440304        11.9813 
 174   0.0000       0.444545        12.0967 
 175   0.0000       0.448078        12.1928 
 176   0.0000       0.448209        12.1964 
 177   0.0000       0.448297        12.1988 
 178   0.0000       0.453359        12.3365 
 179   0.0000       0.462022        12.5723 
 180   0.0000       0.465652        12.6710 
 181   0.0000       0.465731        12.6732 
 182   0.0000       0.471712        12.8359 
 183   0.0000       0.472100        12.8465 
 184   0.0000       0.476591        12.9687 
 185   0.0000       0.480599        13.0778 
 186   0.0000       0.481222        13.0947 
 187   0.0000       0.484137        13.1740 
 188   0.0000       0.484835        13.1930 
 189   0.0000       0.489428        13.3180 
 190   0.0000       0.489956        13.3324 
 191   0.0000       0.501586        13.6488 
 192   0.0000       0.501619        13.6497 
 193   0.0000       0.502695        13.6790 
 194   0.0000       0.511542        13.9198 
 195   0.0000       0.512558        13.9474 
 196   0.0000       0.519835        14.1454 
 197   0.0000       0.521752        14.1976 
 198   0.0000       0.523792        14.2531 
 199   0.0000       0.527516        14.3544 
 200   0.0000       0.532226        14.4826 
 201   0.0000       0.533325        14.5125 
 202   0.0000       0.536273        14.5927 
 203   0.0000       0.549098        14.9417 
 204   0.0000       0.553463        15.0605 
 205   0.0000       0.558138        15.1877 
 206   0.0000       0.560349        15.2479 
 207   0.0000       0.560573        15.2540 
 208   0.0000       0.563091        15.3225 
 209   0.0000       0.567677        15.4473 
 210   0.0000       0.569722        15.5029 
 211   0.0000       0.571289        15.5456 
 212   0.0000       0.571859        15.5611 
 213   0.0000       0.575853        15.6697 
 214   0.0000       0.578909        15.7529 
 215   0.0000       0.579239        15.7619 
 216   0.0000       0.580204        15.7882 
 217   0.0000       0.584191        15.8966 
 218   0.0000       0.599217        16.3055 
 219   0.0000       0.613723        16.7003 
 220   0.0000       0.613892        16.7049 
 221   0.0000       0.625340        17.0164 
 222   0.0000       0.627633        17.0787 
 223   0.0000       0.639548        17.4030 
 224   0.0000       0.640918        17.4403 
 225   0.0000       0.641028        17.4433 
 226   0.0000       0.674805        18.3624 
 227   0.0000       0.677433        18.4339 
 228   0.0000       0.678715        18.4688 
 229   0.0000       0.681367        18.5409 
 230   0.0000       0.687618        18.7110 
 231   0.0000       0.704109        19.1598 
 232   0.0000       0.710168        19.3247 
 233   0.0000       0.712727        19.3943 
 234   0.0000       0.712737        19.3946 
 235   0.0000       0.722060        19.6482 
 236   0.0000       0.731138        19.8953 
 237   0.0000       0.731182        19.8965 
 238   0.0000       0.732612        19.9354 
 239   0.0000       0.734050        19.9745 
 240   0.0000       0.744235        20.2517 
 241   0.0000       0.750156        20.4128 
 242   0.0000       0.754610        20.5340 
 243   0.0000       0.756399        20.5827 
 244   0.0000       0.774956        21.0876 
 245   0.0000       0.780939        21.2504 
 246   0.0000       0.783751        21.3269 
 247   0.0000       0.784984        21.3605 
 248   0.0000       0.789274        21.4772 
 249   0.0000       0.789608        21.4863 
 250   0.0000       0.793906        21.6033 
 251   0.0000       0.797706        21.7067 
 252   0.0000       0.797892        21.7118 
 253   0.0000       0.804033        21.8789 
 254   0.0000       0.809376        22.0242 
 255   0.0000       0.810088        22.0436 
 256   0.0000       0.811889        22.0926 
 257   0.0000       0.817827        22.2542 
 258   0.0000       0.817954        22.2577 
 259   0.0000       0.830798        22.6072 
 260   0.0000       0.832516        22.6539 
 261   0.0000       0.833471        22.6799 
 262   0.0000       0.835857        22.7448 
 263   0.0000       0.841951        22.9106 
 264   0.0000       0.844763        22.9872 
 265   0.0000       0.847217        23.0539 
 266   0.0000       0.849612        23.1191 
 267   0.0000       0.854811        23.2606 
 268   0.0000       0.855637        23.2831 
 269   0.0000       0.873651        23.7732 
 270   0.0000       0.882402        24.0114 
 271   0.0000       0.893669        24.3180 
 272   0.0000       0.900139        24.4940 
 273   0.0000       0.900453        24.5026 
 274   0.0000       0.900530        24.5047 
 275   0.0000       0.922122        25.0922 
 276   0.0000       0.931839        25.3566 
 277   0.0000       0.939986        25.5783 
 278   0.0000       0.941339        25.6151 
 279   0.0000       0.944800        25.7093 
 280   0.0000       0.948875        25.8202 
 281   0.0000       0.949298        25.8317 
 282   0.0000       0.953562        25.9477 
 283   0.0000       0.957863        26.0648 
 284   0.0000       0.962124        26.1807 
 285   0.0000       0.965111        26.2620 
 286   0.0000       0.966190        26.2914 
 287   0.0000       0.968410        26.3518 
 288   0.0000       0.969828        26.3904 
 289   0.0000       0.984057        26.7776 
 290   0.0000       0.988067        26.8867 
 291   0.0000       0.993714        27.0403 
 292   0.0000       0.994726        27.0679 
 293   0.0000       0.998274        27.1644 
 294   0.0000       1.022412        27.8213 
 295   0.0000       1.034205        28.1421 
 296   0.0000       1.038955        28.2714 
 297   0.0000       1.043000        28.3815 
 298   0.0000       1.045673        28.4542 
 299   0.0000       1.047697        28.5093 
 300   0.0000       1.055458        28.7205 
 301   0.0000       1.086411        29.5627 
 302   0.0000       1.089902        29.6577 
 303   0.0000       1.097585        29.8668 
 304   0.0000       1.098486        29.8913 
 305   0.0000       1.114010        30.3138 
 306   0.0000       1.119982        30.4763 
 307   0.0000       1.120416        30.4881 
 308   0.0000       1.131074        30.7781 
 309   0.0000       1.146923        31.2094 
 310   0.0000       1.148436        31.2505 
 311   0.0000       1.151786        31.3417 
 312   0.0000       1.159925        31.5632 
 313   0.0000       1.163354        31.6565 
 314   0.0000       1.168865        31.8064 
 315   0.0000       1.169142        31.8140 
 316   0.0000       1.178953        32.0809 
 317   0.0000       1.191910        32.4335 
 318   0.0000       1.192689        32.4547 
 319   0.0000       1.209883        32.9226 
 320   0.0000       1.210643        32.9433 
 321   0.0000       1.216478        33.1021 
 322   0.0000       1.234240        33.5854 
 323   0.0000       1.237226        33.6666 
 324   0.0000       1.250966        34.0405 
 325   0.0000       1.256147        34.1815 
 326   0.0000       1.258200        34.2374 
 327   0.0000       1.260827        34.3088 
 328   0.0000       1.262780        34.3620 
 329   0.0000       1.267293        34.4848 
 330   0.0000       1.274973        34.6938 
 331   0.0000       1.287940        35.0466 
 332   0.0000       1.299972        35.3740 
 333   0.0000       1.301552        35.4170 
 334   0.0000       1.305335        35.5200 
 335   0.0000       1.316413        35.8214 
 336   0.0000       1.323809        36.0227 
 337   0.0000       1.325000        36.0551 
 338   0.0000       1.328655        36.1546 
 339   0.0000       1.333415        36.2841 
 340   0.0000       1.337007        36.3818 
 341   0.0000       1.353276        36.8245 
 342   0.0000       1.357737        36.9459 
 343   0.0000       1.361673        37.0530 
 344   0.0000       1.366069        37.1726 
 345   0.0000       1.368000        37.2252 
 346   0.0000       1.368763        37.2459 
 347   0.0000       1.371456        37.3192 
 348   0.0000       1.378735        37.5173 
 349   0.0000       1.386888        37.7391 
 350   0.0000       1.388706        37.7886 
 351   0.0000       1.395576        37.9756 
 352   0.0000       1.403788        38.1990 
 353   0.0000       1.425563        38.7916 
 354   0.0000       1.430387        38.9228 
 355   0.0000       1.433760        39.0146 
 356   0.0000       1.438564        39.1453 
 357   0.0000       1.443386        39.2765 
 358   0.0000       1.458981        39.7009 
 359   0.0000       1.481662        40.3181 
 360   0.0000       1.486187        40.4412 
 361   0.0000       1.487703        40.4825 
 362   0.0000       1.493886        40.6507 
 363   0.0000       1.498569        40.7781 
 364   0.0000       1.515328        41.2342 
 365   0.0000       1.517461        41.2922 
 366   0.0000       1.517801        41.3015 
 367   0.0000       1.525662        41.5154 
 368   0.0000       1.544758        42.0350 
 369   0.0000       1.551763        42.2256 
 370   0.0000       1.560580        42.4655 
 371   0.0000       1.568376        42.6777 
 372   0.0000       1.569702        42.7138 
 373   0.0000       1.574203        42.8362 
 374   0.0000       1.583240        43.0821 
 375   0.0000       1.586192        43.1625 
 376   0.0000       1.591129        43.2968 
 377   0.0000       1.591797        43.3150 
 378   0.0000       1.600625        43.5552 
 379   0.0000       1.600987        43.5651 
 380   0.0000       1.615440        43.9583 
 381   0.0000       1.618668        44.0462 
 382   0.0000       1.620583        44.0983 
 383   0.0000       1.624332        44.2003 
 384   0.0000       1.632709        44.4283 
 385   0.0000       1.642401        44.6920 
 386   0.0000       1.645760        44.7834 
 387   0.0000       1.648594        44.8605 
 388   0.0000       1.657829        45.1118 
 389   0.0000       1.673981        45.5513 
 390   0.0000       1.676603        45.6227 
 391   0.0000       1.685375        45.8614 
 392   0.0000       1.695185        46.1283 
 393   0.0000       1.696563        46.1658 
 394   0.0000       1.701084        46.2888 
 395   0.0000       1.708754        46.4976 
 396   0.0000       1.713963        46.6393 
 397   0.0000       1.721932        46.8562 
 398   0.0000       1.730212        47.0815 
 399   0.0000       1.730990        47.1026 
 400   0.0000       1.733581        47.1731 
 401   0.0000       1.742870        47.4259 
 402   0.0000       1.755378        47.7663 
 403   0.0000       1.757604        47.8268 
 404   0.0000       1.758353        47.8472 
 405   0.0000       1.760111        47.8950 
 406   0.0000       1.762690        47.9652 
 407   0.0000       1.770179        48.1690 
 408   0.0000       1.783801        48.5397 
 409   0.0000       1.785307        48.5807 
 410   0.0000       1.793200        48.7954 
 411   0.0000       1.813900        49.3587 
 412   0.0000       1.817882        49.4671 
 413   0.0000       1.818063        49.4720 
 414   0.0000       1.821792        49.5735 
 415   0.0000       1.822892        49.6034 
 416   0.0000       1.824116        49.6367 
 417   0.0000       1.826961        49.7141 
 418   0.0000       1.828550        49.7574 
 419   0.0000       1.836652        49.9778 
 420   0.0000       1.838989        50.0414 
 421   0.0000       1.847941        50.2850 
 422   0.0000       1.848214        50.2925 
 423   0.0000       1.861313        50.6489 
 424   0.0000       1.870259        50.8923 
 425   0.0000       1.873320        50.9756 
 426   0.0000       1.873910        50.9917 
 427   0.0000       1.881586        51.2006 
 428   0.0000       1.883193        51.2443 
 429   0.0000       1.894930        51.5637 
 430   0.0000       1.895027        51.5663 
 431   0.0000       1.899063        51.6761 
 432   0.0000       1.909755        51.9671 
 433   0.0000       1.919919        52.2436 
 434   0.0000       1.937488        52.7217 
 435   0.0000       1.950409        53.0733 
 436   0.0000       1.959185        53.3121 
 437   0.0000       1.976922        53.7948 
 438   0.0000       1.983784        53.9815 
 439   0.0000       1.986730        54.0617 
 440   0.0000       1.996011        54.3142 
 441   0.0000       2.004801        54.5534 
 442   0.0000       2.008375        54.6507 
 443   0.0000       2.019771        54.9608 
 444   0.0000       2.021135        54.9979 
 445   0.0000       2.042310        55.5741 
 446   0.0000       2.045401        55.6582 
 447   0.0000       2.046823        55.6969 
 448   0.0000       2.049720        55.7757 
 449   0.0000       2.056368        55.9566 
 450   0.0000       2.071151        56.3589 
 451   0.0000       2.077767        56.5389 
 452   0.0000       2.082880        56.6781 
 453   0.0000       2.121591        57.7314 
 454   0.0000       2.125315        57.8328 
 455   0.0000       2.125441        57.8362 
 456   0.0000       2.135843        58.1192 
 457   0.0000       2.136764        58.1443 
 458   0.0000       2.137819        58.1730 
 459   0.0000       2.139487        58.2184 
 460   0.0000       2.154128        58.6168 
 461   0.0000       2.164184        58.8904 
 462   0.0000       2.175739        59.2049 
 463   0.0000       2.177980        59.2659 
 464   0.0000       2.178058        59.2680 
 465   0.0000       2.194830        59.7244 
 466   0.0000       2.210446        60.1493 
 467   0.0000       2.223682        60.5095 
 468   0.0000       2.237141        60.8757 
 469   0.0000       2.240158        60.9578 
 470   0.0000       2.242231        61.0142 
 471   0.0000       2.256808        61.4109 
 472   0.0000       2.257922        61.4412 
 473   0.0000       2.257938        61.4416 
 474   0.0000       2.268491        61.7288 
 475   0.0000       2.283888        62.1478 
 476   0.0000       2.307082        62.7789 
 477   0.0000       2.307747        62.7970 
 478   0.0000       2.308104        62.8067 
 479   0.0000       2.313902        62.9645 
 480   0.0000       2.315812        63.0164 
 481   0.0000       2.318345        63.0854 
 482   0.0000       2.334303        63.5196 
 483   0.0000       2.335792        63.5601 
 484   0.0000       2.349531        63.9340 
 485   0.0000       2.363910        64.3253 
 486   0.0000       2.364468        64.3404 
 487   0.0000       2.375242        64.6336 
 488   0.0000       2.379188        64.7410 
 489   0.0000       2.386323        64.9351 
 490   0.0000       2.392519        65.1037 
 491   0.0000       2.415423        65.7270 
 492   0.0000       2.419526        65.8387 
 493   0.0000       2.423189        65.9383 
 494   0.0000       2.437552        66.3292 
 495   0.0000       2.440582        66.4116 
 496   0.0000       2.456599        66.8475 
 497   0.0000       2.470777        67.2333 
 498   0.0000       2.472668        67.2847 
 499   0.0000       2.476361        67.3852 
 500   0.0000       2.529593        68.8337 
 501   0.0000       2.532955        68.9252 
 502   0.0000       2.536967        69.0344 
 503   0.0000       2.537078        69.0374 
 504   0.0000       2.560900        69.6856 
 505   0.0000       2.577823        70.1461 
 506   0.0000       2.586753        70.3891 
 507   0.0000       2.594989        70.6132 
 508   0.0000       2.599718        70.7419 
 509   0.0000       2.612167        71.0807 
 510   0.0000       2.613811        71.1254 
 511   0.0000       2.619233        71.2730 
 512   0.0000       2.624391        71.4133 
 513   0.0000       2.643340        71.9289 
 514   0.0000       2.660006        72.3824 
 515   0.0000       2.666047        72.5468 
 516   0.0000       2.669896        72.6516 
 517   0.0000       2.680037        72.9275 
 518   0.0000       2.683385        73.0186 
 519   0.0000       2.693760        73.3009 
 520   0.0000       2.711190        73.7752 
 521   0.0000       2.711219        73.7760 
 522   0.0000       2.718002        73.9606 
 523   0.0000       2.720777        74.0361 
 524   0.0000       2.732475        74.3544 
 525   0.0000       2.732985        74.3683 
 526   0.0000       2.738471        74.5176 
 527   0.0000       2.745412        74.7065 
 528   0.0000       2.752729        74.9056 
 529   0.0000       2.754736        74.9602 
 530   0.0000       2.755040        74.9685 
 531   0.0000       2.764464        75.2249 
 532   0.0000       2.778280        75.6008 
 533   0.0000       2.780210        75.6534 
 534   0.0000       2.780387        75.6582 
 535   0.0000       2.781036        75.6758 
 536   0.0000       2.784034        75.7574 
 537   0.0000       2.799504        76.1784 
 538   0.0000       2.800732        76.2118 
 539   0.0000       2.806940        76.3807 
 540   0.0000       2.809086        76.4391 
 541   0.0000       2.812200        76.5239 
 542   0.0000       2.812477        76.5314 
 543   0.0000       2.817804        76.6763 
 544   0.0000       2.835324        77.1531 
 545   0.0000       2.837669        77.2169 
 546   0.0000       2.841472        77.3204 
 547   0.0000       2.844536        77.4038 
 548   0.0000       2.845856        77.4397 
 549   0.0000       2.850887        77.5766 
 550   0.0000       2.852985        77.6337 
 551   0.0000       2.858040        77.7712 
 552   0.0000       2.858314        77.7787 
 553   0.0000       2.863554        77.9213 
 554   0.0000       2.866600        78.0041 
 555   0.0000       2.867972        78.0415 
 556   0.0000       2.870906        78.1213 
 557   0.0000       2.874841        78.2284 
 558   0.0000       2.885478        78.5179 
 559   0.0000       2.887200        78.5647 
 560   0.0000       2.887866        78.5828 
 561   0.0000       2.894485        78.7629 
 562   0.0000       2.894868        78.7734 
 563   0.0000       2.903945        79.0204 
 564   0.0000       2.905730        79.0689 
 565   0.0000       2.912989        79.2665 
 566   0.0000       2.916378        79.3587 
 567   0.0000       2.918240        79.4093 
 568   0.0000       2.930558        79.7445 
 569   0.0000       2.931243        79.7632 
 570   0.0000       2.932814        79.8059 
 571   0.0000       2.938441        79.9591 
 572   0.0000       2.945514        80.1515 
 573   0.0000       2.962812        80.6222 
 574   0.0000       2.972588        80.8882 
 575   0.0000       2.973253        80.9063 
 576   0.0000       2.978839        81.0583 
 577   0.0000       2.982073        81.1463 
 578   0.0000       2.985703        81.2451 
 579   0.0000       2.988950        81.3335 
 580   0.0000       2.989323        81.3436 
 581   0.0000       3.000724        81.6538 
 582   0.0000       3.008386        81.8623 
 583   0.0000       3.011824        81.9559 
 584   0.0000       3.013054        81.9894 
 585   0.0000       3.015259        82.0494 
 586   0.0000       3.028453        82.4084 
 587   0.0000       3.031132        82.4813 
 588   0.0000       3.037654        82.6588 
 589   0.0000       3.039317        82.7040 
 590   0.0000       3.041267        82.7571 
 591   0.0000       3.047128        82.9166 
 592   0.0000       3.047985        82.9399 
 593   0.0000       3.051408        83.0330 
 594   0.0000       3.055595        83.1470 
 595   0.0000       3.061136        83.2977 
 596   0.0000       3.072855        83.6166 
 597   0.0000       3.086199        83.9797 
 598   0.0000       3.090653        84.1009 
 599   0.0000       3.094262        84.1991 
 600   0.0000       3.097075        84.2757 
 601   0.0000       3.126231        85.0691 
 602   0.0000       3.142542        85.5129 
 603   0.0000       3.146419        85.6184 
 604   0.0000       3.153919        85.8225 
[...]
    86a ->  92a  :     0.031948 
    87a ->  89a  :     0.133091 
    87a ->  94a  :     0.804085 

STATE  8:  E=   0.184674 au      5.025 eV    40531.3 cm**-1 <S**2> =   0.000000
    87a ->  95a  :     0.787376 
    87a ->  98a  :     0.077267 
    87a -> 100a  :     0.096980 

STATE  9:  E=   0.191255 au      5.204 eV    41975.7 cm**-1 <S**2> =   0.000000
    81a ->  88a  :     0.015152 
    82a ->  90a  :     0.017411 
    83a ->  91a  :     0.017167 
    84a ->  88a  :     0.012501 
    85a ->  89a  :     0.021651 
    85a ->  94a  :     0.011562 
    86a ->  93a  :     0.104441 
    87a ->  96a  :     0.753878 

STATE 10:  E=   0.183019 au      4.980 eV    40168.1 cm**-1 <S**2> =   0.000000
    80a ->  96a  :     0.019063 
    85a ->  96a  :     0.019775 
    86a ->  88a  :     0.745341 
    86a ->  92a  :     0.131023 
    87a ->  89a  :     0.013860 
    87a ->  94a  :     0.046464 

STATE 11:  E=   0.191340 au      5.207 eV    41994.4 cm**-1 <S**2> =   0.000000
    80a ->  91a  :     0.078572 
    81a ->  90a  :     0.104730 
    82a ->  88a  :     0.136302 
    82a ->  92a  :     0.107637 
    83a ->  89a  :     0.202822 
    83a ->  94a  :     0.052506 
    84a ->  90a  :     0.139292 
    85a ->  91a  :     0.168251 

STATE 12:  E=   0.191335 au      5.206 eV    41993.2 cm**-1 <S**2> =   0.000000
    80a ->  90a  :     0.079654 
    81a ->  91a  :     0.102378 
    82a ->  89a  :     0.199133 
    82a ->  94a  :     0.052322 
    83a ->  88a  :     0.138426 
    83a ->  92a  :     0.108205 
    84a ->  91a  :     0.134214 
    85a ->  90a  :     0.174008 

STATE 13:  E=   0.196441 au      5.345 eV    43113.9 cm**-1 <S**2> =   0.000000
    80a ->  93a  :     0.028881 
    85a ->  93a  :     0.044505 
    86a ->  89a  :     0.750230 
    86a ->  94a  :     0.119005 
    87a ->  92a  :     0.036569 

STATE 14:  E=   0.224953 au      6.121 eV    49371.5 cm**-1 <S**2> =   0.000000
    80a ->  88a  :     0.051393 
    80a ->  92a  :     0.026682 
    81a ->  89a  :     0.077424 
    81a ->  94a  :     0.022297 
    82a ->  91a  :     0.234722 
    83a ->  90a  :     0.248334 
    84a ->  89a  :     0.128782 
    84a ->  94a  :     0.022087 
    85a ->  88a  :     0.091890 
    85a ->  92a  :     0.079484 

STATE 15:  E=   0.223775 au      6.089 eV    49112.8 cm**-1 <S**2> =   0.000000
    80a ->  89a  :     0.058193 
    80a ->  94a  :     0.016013 
    81a ->  88a  :     0.058150 
    81a ->  92a  :     0.042070 
    82a ->  90a  :     0.221919 
    83a ->  91a  :     0.217249 
    84a ->  88a  :     0.081708 
    84a ->  92a  :     0.057540 
    85a ->  89a  :     0.162970 
    85a ->  94a  :     0.030793 
    87a ->  96a  :     0.037492 

STATE 16:  E=   0.201721 au      5.489 eV    44272.7 cm**-1 <S**2> =   0.000000
    81a ->  99a  :     0.010274 
    87a ->  95a  :     0.085051 
    87a ->  98a  :     0.857161 

STATE 17:  E=   0.211885 au      5.766 eV    46503.3 cm**-1 <S**2> =   0.000000
    80a ->  89a  :     0.041080 
    80a ->  94a  :     0.015893 
    81a ->  88a  :     0.015712 
    82a ->  90a  :     0.017008 
    83a ->  91a  :     0.016803 
    84a ->  88a  :     0.030636 
    85a ->  89a  :     0.057237 
    85a ->  94a  :     0.029758 
    86a ->  93a  :     0.583530 
    87a ->  96a  :     0.162417 

STATE 18:  E=   0.210552 au      5.729 eV    46210.7 cm**-1 <S**2> =   0.000000
    79a ->  93a  :     0.014454 
    80a ->  88a  :     0.106991 
    80a ->  92a  :     0.043378 
    81a ->  89a  :     0.030153 
    81a ->  94a  :     0.038566 
    82a ->  91a  :     0.022759 
    83a ->  90a  :     0.023666 
    84a ->  89a  :     0.101086 
    84a ->  94a  :     0.022995 
    85a ->  88a  :     0.340327 
    85a ->  92a  :     0.036845 
    86a ->  96a  :     0.151328 
    87a ->  93a  :     0.053582 

STATE 19:  E=   0.194577 au      5.295 eV    42704.7 cm**-1 <S**2> =   0.000000
    86a ->  90a  :     0.934675 
    87a ->  91a  :     0.037263 

STATE 20:  E=   0.196253 au      5.340 eV    43072.5 cm**-1 <S**2> =   0.000000
    79a ->  90a  :     0.010363 
    86a ->  91a  :     0.939893 
    87a ->  90a  :     0.034523 

STATE 21:  E=   0.212989 au      5.796 eV    46745.8 cm**-1 <S**2> =   0.000000
    86a ->  95a  :     0.034843 
    87a ->  97a  :     0.783697 
    87a -> 101a  :     0.080938 
    87a -> 106a  :     0.070108 
    87a -> 111a  :     0.013456 

STATE 22:  E=   0.218722 au      5.952 eV    48003.9 cm**-1 <S**2> =   0.000000
    81a ->  98a  :     0.015859 
    84a ->  98a  :     0.015770 
    87a ->  99a  :     0.928808 

STATE 23:  E=   0.206282 au      5.613 eV    45273.7 cm**-1 <S**2> =   0.000000
    79a ->  89a  :     0.012916 
    86a ->  88a  :     0.176303 
    86a ->  92a  :     0.763878 
    87a ->  94a  :     0.016376 

STATE 24:  E=   0.230825 au      6.281 eV    50660.1 cm**-1 <S**2> =   0.000000
    81a ->  88a  :     0.030127 
    81a ->  92a  :     0.048133 
    82a ->  90a  :     0.138438 
    83a ->  91a  :     0.138672 
    84a ->  88a  :     0.428419 
    85a ->  89a  :     0.144972 
    87a ->  96a  :     0.025663 

STATE 25:  E=   0.217431 au      5.917 eV    47720.5 cm**-1 <S**2> =   0.000000
    80a ->  93a  :     0.030361 
    85a ->  93a  :     0.067661 
    86a ->  89a  :     0.181900 
    86a ->  94a  :     0.677017 

STATE 26:  E=   0.236659 au      6.440 eV    51940.6 cm**-1 <S**2> =   0.000000
    80a ->  91a  :     0.030565 
    81a ->  90a  :     0.062018 
    82a ->  88a  :     0.187913 
    82a ->  92a  :     0.031126 
    83a ->  89a  :     0.223525 
    84a ->  90a  :     0.143575 
    85a ->  91a  :     0.198598 
    87a -> 101a  :     0.070675 

STATE 27:  E=   0.237753 au      6.470 eV    52180.8 cm**-1 <S**2> =   0.000000
    80a ->  90a  :     0.028600 
    81a ->  91a  :     0.060187 
    82a ->  89a  :     0.221420 
    83a ->  88a  :     0.233439 
    83a ->  92a  :     0.029845 
    84a ->  91a  :     0.134223 
    85a ->  90a  :     0.254156 

STATE 28:  E=   0.225687 au      6.141 eV    49532.5 cm**-1 <S**2> =   0.000000
    81a ->  90a  :     0.010049 
    82a ->  88a  :     0.019872 
    83a ->  89a  :     0.020634 
    85a ->  91a  :     0.023587 
    86a ->  98a  :     0.022436 
    87a ->  97a  :     0.035425 
    87a -> 101a  :     0.764665 
    87a -> 106a  :     0.053777 

STATE 29:  E=   0.230291 au      6.267 eV    50543.1 cm**-1 <S**2> =   0.000000
    81a ->  88a  :     0.240343 
    82a ->  90a  :     0.065099 
    83a ->  91a  :     0.063297 
    84a ->  88a  :     0.115935 
    84a ->  92a  :     0.066946 
    85a ->  89a  :     0.203761 
    86a ->  93a  :     0.195631 

STATE 30:  E=   0.235831 au      6.417 eV    51758.9 cm**-1 <S**2> =   0.000000
    79a ->  93a  :     0.010261 
    80a ->  88a  :     0.021407 
    81a ->  89a  :     0.222736 
    81a ->  94a  :     0.010680 
    82a ->  91a  :     0.092105 
    83a ->  90a  :     0.101509 
    84a ->  94a  :     0.079032 
    85a ->  88a  :     0.098072 
    85a ->  92a  :     0.025133 
    87a -> 102a  :     0.256474 
    87a -> 108a  :     0.042255 


-------------------------
TD-DFT-EXCITATION SPECTRA
-------------------------

Center of mass = (  0.0000, -0.0000,  0.0000)
Calculating the Dipole integrals                  ... done
Transforming integrals                            ... done
Calculating the Linear Momentum integrals         ... done
Transforming integrals                            ... done
Calculating angular momentum integrals            ... done
Transforming integrals                            ... done

-----------------------------------------------------------------------------
         ABSORPTION SPECTRUM VIA TRANSITION ELECTRIC DIPOLE MOMENTS
-----------------------------------------------------------------------------
State   Energy    Wavelength  fosc         T2        TX        TY        TZ  
        (cm-1)      (nm)                 (au**2)    (au)      (au)      (au) 
-----------------------------------------------------------------------------
   1   24782.1    403.5   0.000000000   0.00000   0.00001  -0.00001  -0.00008
   2   26819.8    372.9   0.207875033   2.55166  -0.00003  -1.59739   0.00018
   3   27963.3    357.6   0.000000024   0.00000  -0.00053   0.00004   0.00001
   4   28327.0    353.0   0.000000083   0.00000  -0.00096   0.00022  -0.00002
   5   31306.1    319.4   0.000000000   0.00000   0.00000  -0.00002  -0.00003
   6   30724.5    325.5   0.000000008   0.00000   0.00000   0.00002  -0.00029
   7   31985.8    312.6   0.102241314   1.05231  -0.00003   1.02582   0.00009
   8   40531.3    246.7   0.009207158   0.07478   0.00030  -0.00012   0.27347
   9   41975.7    238.2   0.330883547   2.59509  -1.61093   0.00030   0.00006
  10   40168.1    249.0   1.147323682   9.40331   0.00017   3.06648  -0.00024
  11   41994.4    238.1   0.000009989   0.00008   0.00005  -0.00509   0.00724
  12   41993.2    238.1   0.001669466   0.01309  -0.00005  -0.00338  -0.11435
  13   43113.9    231.9   0.000000026   0.00000  -0.00007   0.00000   0.00044
  14   49371.5    202.5   0.000007744   0.00005   0.00719  -0.00001  -0.00006
  15   49112.8    203.6   0.036738000   0.24626   0.49625   0.00001  -0.00003
  16   44272.7    225.9   0.001745861   0.01298  -0.00007  -0.00002   0.11394
  17   46503.3    215.0   0.673091792   4.76503   2.18289  -0.00001  -0.00005
  18   46210.7    216.4   0.000000001   0.00000  -0.00005   0.00003   0.00009
  19   42704.7    234.2   0.000004283   0.00003   0.00575   0.00002   0.00002
  20   43072.5    232.2   0.000000985   0.00001   0.00274   0.00005   0.00001
  21   46745.8    213.9   0.000000007   0.00000  -0.00019   0.00013   0.00000
  22   48003.9    208.3   0.000000009   0.00000  -0.00025   0.00003   0.00001
  23   45273.7    220.9   0.024461056   0.17787   0.00005   0.42175  -0.00084
  24   50660.1    197.4   2.041894067  13.26913  -3.64268   0.00001   0.00026
  25   47720.5    209.6   0.000000032   0.00000  -0.00041  -0.00001  -0.00024
  26   51940.6    192.5   0.000000708   0.00000  -0.00032   0.00093  -0.00188
  27   52180.8    191.6   0.988181099   6.23449   0.00036   0.00068   2.49690
  28   49532.5    201.9   0.000000670   0.00000  -0.00012   0.00049   0.00205
  29   50543.1    197.9   0.149070993   0.97097   0.98538  -0.00000   0.00007
  30   51758.9    193.2   0.000000010   0.00000  -0.00025  -0.00002   0.00003

-----------------------------------------------------------------------------
         ABSORPTION SPECTRUM VIA TRANSITION VELOCITY DIPOLE MOMENTS
-----------------------------------------------------------------------------
State   Energy    Wavelength   fosc        P2         PX        PY        PZ  
        (cm-1)      (nm)                 (au**2)     (au)      (au)      (au) 
-----------------------------------------------------------------------------
   1   24782.1    403.5   0.000000001   0.00000  -0.00000  -0.00000   0.00001
   2   26819.8    372.9   0.305047915   0.05592   0.00000   0.23646  -0.00003
   3   27963.3    357.6   0.000000037   0.00000   0.00008  -0.00000  -0.00000
   4   28327.0    353.0   0.000000125   0.00000   0.00015  -0.00004   0.00000
   5   31306.1    319.4   0.000000000   0.00000  -0.00000   0.00000   0.00001
   6   30724.5    325.5   0.000000010   0.00000  -0.00000  -0.00001   0.00005
   7   31985.8    312.6   0.144210906   0.03153   0.00000  -0.17755  -0.00001
   8   40531.3    246.7   0.006582480   0.00182  -0.00007   0.00003  -0.04270
   9   41975.7    238.2   0.391004522   0.11217   0.33492  -0.00006  -0.00001
  10   40168.1    249.0   1.443907180   0.39639  -0.00004  -0.62960   0.00005
  11   41994.4    238.1   0.000011239   0.00000  -0.00001   0.00105  -0.00146
  12   41993.2    238.1   0.001853534   0.00053   0.00001   0.00070   0.02305
  13   43113.9    231.9   0.000000032   0.00000   0.00002  -0.00000  -0.00010
  14   49371.5    202.5   0.000007640   0.00000  -0.00161   0.00000   0.00001
  15   49112.8    203.6   0.036669025   0.01231  -0.11094  -0.00000   0.00001
  16   44272.7    225.9   0.002035536   0.00062   0.00001  -0.00000  -0.02482
  17   46503.3    215.0   0.782280574   0.24863  -0.49863   0.00000   0.00001
  18   46210.7    216.4   0.000000002   0.00000   0.00001  -0.00000  -0.00002
  19   42704.7    234.2   0.000006099   0.00000  -0.00133  -0.00001  -0.00000
  20   43072.5    232.2   0.000001400   0.00000  -0.00064  -0.00001  -0.00000
  21   46745.8    213.9   0.000000011   0.00000   0.00005  -0.00004  -0.00000
  22   48003.9    208.3   0.000000011   0.00000   0.00006  -0.00001  -0.00000
  23   45273.7    220.9   0.034026409   0.01053  -0.00002  -0.10261   0.00021
  24   50660.1    197.4   2.344825671   0.81187   0.90104  -0.00000  -0.00007
  25   47720.5    209.6   0.000000043   0.00000   0.00010   0.00000   0.00006
  26   51940.6    192.5   0.000000802   0.00000   0.00008  -0.00024   0.00047
  27   52180.8    191.6   1.101526408   0.39284  -0.00009  -0.00017  -0.62677
  28   49532.5    201.9   0.000000823   0.00000   0.00003  -0.00012  -0.00051
  29   50543.1    197.9   0.179456352   0.06199  -0.24898  -0.00000  -0.00002
  30   51758.9    193.2   0.000000010   0.00000   0.00006   0.00000  -0.00001

-------------------------------------------------------------------
                             CD SPECTRUM
-------------------------------------------------------------------
State  Energy     Wavelength     R         MX        MY        MZ   
       (cm-1)       (nm)     (1e40*cgs)   (au)      (au)      (au)  
-------------------------------------------------------------------
   1   24782.1    403.5      0.05158  -0.00007  -0.00002  -1.39872
   2   26819.8    372.9      0.11895   0.00005  -0.00016   0.00000
   3   27963.3    357.6      0.00000  -0.00001   0.00000   0.00001
   4   28327.0    353.0     -0.09705   0.21481   0.00001  -0.00004
   5   31306.1    319.4     -0.00000  -0.00048   0.00001   0.00000
   6   30724.5    325.5     -0.00250   0.00001   0.00018   0.01858
   7   31985.8    312.6     -0.10479   0.00001  -0.00022  -0.00001
   8   40531.3    246.7     -0.01832   0.00002  -0.00001  -0.00014
   9   41975.7    238.2     -0.03692   0.00005  -0.00001  -0.00002
  10   40168.1    249.0      0.11626  -0.00004   0.00008  -0.00000
  11   41994.4    238.1     -0.13357   0.00000   0.05574   0.00004
  12   41993.2    238.1     -0.01098   0.00000   0.00356   0.00010
  13   43113.9    231.9      0.27485   0.00004  -0.00018   1.33237
  14   49371.5    202.5     -0.00013  -0.00004  -0.00005  -0.00001
  15   49112.8    203.6      0.01549   0.00007  -0.00010   0.00002
  16   44272.7    225.9     -0.00170  -0.00001  -0.00001  -0.00003
  17   46503.3    215.0      0.45562   0.00044  -0.00012   0.00001
  18   46210.7    216.4      0.00001  -0.00023   0.00003   0.00001
  19   42704.7    234.2     -0.52388  -0.19338  -0.00001  -0.00001
  20   43072.5    232.2      0.00002   0.00001  -0.00003   0.00011
  21   46745.8    213.9      0.00098  -0.00000   0.01644   0.00004
  22   48003.9    208.3     -0.03172   0.26816   0.00000  -0.00001
  23   45273.7    220.9      0.34553  -0.00001   0.00174   0.00000
  24   50660.1    197.4     -0.10357   0.00006   0.00020  -0.00007
  25   47720.5    209.6     -0.06236   0.00004   0.00027   0.54963
  26   51940.6    192.5     -1.18583  -0.00000  -2.69455   0.00064
  27   52180.8    191.6      0.98717   0.00001  -0.00131   0.00084
  28   49532.5    201.9     -0.20100   0.00001  -0.86567  -0.00001
  29   50543.1    197.9      0.01829   0.00004  -0.00004  -0.00000
  30   51758.9    193.2      0.00002  -0.00017   0.00001   0.00001

Total run time:     2760.246 sec

           *** ORCA-CIS/TD-DFT FINISHED WITHOUT ERROR ***

Maximum memory used throughout the entire CIS-calculation: 4074.8 MB

-----------------------
CIS/TD-DFT TOTAL ENERGY
-----------------------

    E(SCF)  =  -1033.025709744 Eh
    DE(CIS) =      0.112915477 Eh (Root  1)
    ----------------------------- ---------
    E(tot)  =  -1032.912794267 Eh



-------------------------------------------------------------------------------
                          DFT DISPERSION CORRECTION                            
                                                                               
                              DFTD3 V3.1  Rev 1                                
                          USING Becke-Johnson damping                          
-------------------------------------------------------------------------------
The B2PLYP functional is recognized
Active option DFTDOPT                   ...         4   

molecular C6(AA) [au] = 25426.375203 


            DFT-D V3
 parameters
 s6 scaling factor         :     0.6400 
 a1 scaling factor         :     0.3065 
 s8 scaling factor         :     0.9147 
 a2 scaling factor         :     5.0570 
 ad hoc parameters k1-k3   :    16.0000     1.3333    -4.0000 

 Edisp/kcal,au: -33.793608792718  -0.053853537811 
 E6   /kcal   : -18.948261614 
 E8   /kcal   : -14.845347178 
 % E8         :  43.929452073 

-------------------------   ----------------
Dispersion correction           -0.053853538
-------------------------   ----------------


-------------------------   --------------------
FINAL SINGLE POINT ENERGY     -1032.966647804638
-------------------------   --------------------


                            ***************************************
                            *     ORCA property calculations      *
                            ***************************************


  WARNING: The energy has been calculated at the MP2 level but the densities
           used in the property calculations are still SCF densities
           MP2 response densities have not been calculated 
           use %mp2 Density relaxed end
           or  %mp2 Density unrelaxed end

                                    ---------------------
                                    Active property flags
                                    ---------------------
   (+) Dipole Moment


------------------------------------------------------------------------------
                       ORCA ELECTRIC PROPERTIES CALCULATION
------------------------------------------------------------------------------

Dipole Moment Calculation                       ... on
Quadrupole Moment Calculation                   ... off
Polarizability Calculation                      ... off
GBWName                                         ... PA_1_M06L_def2TZVP_coords.gbw
Electron density                                ... PA_1_M06L_def2TZVP_coords.scfp
The origin for moment calculation is the CENTER OF MASS  = ( 0.000000, -0.000000  0.000003)

-------------
DIPOLE MOMENT
-------------
                                X             Y             Z
Electronic contribution:     -0.00002      -0.00002       0.00044
Nuclear contribution   :     -0.00000      -0.00000      -0.00049
                        -----------------------------------------
Total Dipole Moment    :     -0.00002      -0.00002      -0.00005
                        -----------------------------------------
Magnitude (a.u.)       :      0.00006
Magnitude (Debye)      :      0.00015



--------------------
Rotational spectrum 
--------------------
 
Rotational constants in cm-1:     0.013190     0.005068     0.003964 
Rotational constants in MHz :   395.437241   151.935170   118.847327 

 Dipole components along the rotational axes: 
x,y,z [a.u.] :    -0.000021    -0.000022    -0.000052 
x,y,z [Debye]:    -0.000054    -0.000057    -0.000132 

 

Timings for individual modules:

Sum of individual times         ...     3148.086 sec (=  52.468 min)
GTO integral calculation        ...        2.048 sec (=   0.034 min)   0.1 %
SCF iterations                  ...      223.057 sec (=   3.718 min)   7.1 %
MP2 module                      ...      159.619 sec (=   2.660 min)   5.1 %
CIS module                      ...     2763.362 sec (=  46.056 min)  87.8 %
                             ****ORCA TERMINATED NORMALLY****
TOTAL RUN TIME: 0 days 0 hours 52 minutes 31 seconds 124 msec
