 Entering Gaussian System, Link 0=g09
 Input=/home/png4rjv/fotokatalizis/benchmark/OPCs/PA_1_PBE-D3_def2TZVP.gjf
 Output=/home/png4rjv/fotokatalizis/benchmark/OPCs/PA_1_PBE-D3_def2TZVP.log
 Initial command:
 /opt/nce/packages/global/g09/l1.exe "/home/png4rjv/fotokatalizis/benchmark/OPCs/PA_1_PBE-D3_def2TZVP/Gau-64017.inp" -scrdir="/home/png4rjv/fotokatalizis/benchmark/OPCs/PA_1_PBE-D3_def2TZVP/"
 Default is to use a total of  12 processors:
                               12 via shared-memory
                                1 via Linda
 Entering Link 1 = /opt/nce/packages/global/g09/l1.exe PID=     64018.
  
 Copyright (c) 1988,1990,1992,1993,1995,1998,2003,2009,2015,
            Gaussian, Inc.  All Rights Reserved.
  
 This is part of the Gaussian(R) 09 program.  It is based on
 the Gaussian(R) 03 system (copyright 2003, Gaussian, Inc.),
 the Gaussian(R) 98 system (copyright 1998, Gaussian, Inc.),
 the Gaussian(R) 94 system (copyright 1995, Gaussian, Inc.),
 the Gaussian 92(TM) system (copyright 1992, Gaussian, Inc.),
 the Gaussian 90(TM) system (copyright 1990, Gaussian, Inc.),
 the Gaussian 88(TM) system (copyright 1988, Gaussian, Inc.),
 the Gaussian 86(TM) system (copyright 1986, Carnegie Mellon
 University), and the Gaussian 82(TM) system (copyright 1983,
 Carnegie Mellon University). Gaussian is a federally registered
 trademark of Gaussian, Inc.
  
 This software contains proprietary and confidential information,
 including trade secrets, belonging to Gaussian, Inc.
  
 This software is provided under written license and may be
 used, copied, transmitted, or stored only in accord with that
 written license.
  
 The following legend is applicable only to US Government
 contracts under FAR:
  
                    RESTRICTED RIGHTS LEGEND
  
 Use, reproduction and disclosure by the US Government is
 subject to restrictions as set forth in subparagraphs (a)
 and (c) of the Commercial Computer Software - Restricted
 Rights clause in FAR 52.227-19.
  
 Gaussian, Inc.
 340 Quinnipiac St., Bldg. 40, Wallingford CT 06492
  
  
 ---------------------------------------------------------------
 Warning -- This program may not be used in any manner that
 competes with the business of Gaussian, Inc. or will provide
 assistance to any competitor of Gaussian, Inc.  The licensee
 of this program is prohibited from giving any competitor of
 Gaussian, Inc. access to this program.  By using this program,
 the user acknowledges that Gaussian, Inc. is engaged in the
 business of creating and licensing software in the field of
 computational chemistry and represents and warrants to the
 licensee that it is not a competitor of Gaussian, Inc. and that
 it will not use this program in any manner prohibited above.
 ---------------------------------------------------------------
  

 Cite this work as:
 Gaussian 09, Revision E.01,
 M. J. Frisch, G. W. Trucks, H. B. Schlegel, G. E. Scuseria, 
 M. A. Robb, J. R. Cheeseman, G. Scalmani, V. Barone, B. Mennucci, 
 G. A. Petersson, H. Nakatsuji, M. Caricato, X. Li, H. P. Hratchian, 
 A. F. Izmaylov, J. Bloino, G. Zheng, J. L. Sonnenberg, M. Hada, 
 M. Ehara, K. Toyota, R. Fukuda, J. Hasegawa, M. Ishida, T. Nakajima, 
 Y. Honda, O. Kitao, H. Nakai, T. Vreven, J. A. Montgomery, Jr., 
 J. E. Peralta, F. Ogliaro, M. Bearpark, J. J. Heyd, E. Brothers, 
 K. N. Kudin, V. N. Staroverov, T. Keith, R. Kobayashi, J. Normand, 
 K. Raghavachari, A. Rendell, J. C. Burant, S. S. Iyengar, J. Tomasi, 
 M. Cossi, N. Rega, J. M. Millam, M. Klene, J. E. Knox, J. B. Cross, 
 V. Bakken, C. Adamo, J. Jaramillo, R. Gomperts, R. E. Stratmann, 
 O. Yazyev, A. J. Austin, R. Cammi, C. Pomelli, J. W. Ochterski, 
 R. L. Martin, K. Morokuma, V. G. Zakrzewski, G. A. Voth, 
 P. Salvador, J. J. Dannenberg, S. Dapprich, A. D. Daniels, 
 O. Farkas, J. B. Foresman, J. V. Ortiz, J. Cioslowski, 
 and D. J. Fox, Gaussian, Inc., Wallingford CT, 2013.
 
 ******************************************
 Gaussian 09:  ES64L-G09RevE.01 30-Nov-2015
                27-Mar-2021 
 ******************************************
 %chk=cp.chk
 Default route:  MaxDisk=500GB
 ----------------------------------------------------------------------
 #p PBEPBE/def2TZVP opt freq=noraman nosymm int=ultrafine scrf=(SMD,sol
 vent=n,n-DiMethylFormamide) EmpiricalDispersion=GD3BJ
 ----------------------------------------------------------------------
 1/14=-1,18=20,19=15,26=4,38=1/1,3;
 2/9=110,12=2,15=1,17=6,18=5,40=1/2;
 3/5=44,7=101,11=2,16=1,25=1,30=1,70=32201,71=1,72=148,74=1009,75=-5,124=41/1,2,3;
 4//1;
 5/5=2,38=5,53=148/2;
 6/7=2,8=2,9=2,10=2,28=1/1;
 7/30=1/1,2,3,16;
 1/14=-1,18=20,19=15,26=4/3(2);
 2/9=110,15=1/2;
 99//99;
 2/9=110,15=1/2;
 3/5=44,7=101,11=2,16=1,25=1,30=1,70=32205,71=1,72=148,74=1009,75=-5,124=41/1,2,3;
 4/5=5,16=3,69=1/1;
 5/5=2,38=5,53=148/2;
 7/30=1/1,2,3,16;
 1/14=-1,18=20,19=15,26=4/3(-5);
 2/9=110,15=1/2;
 6/7=2,8=2,9=2,10=2,19=2,28=1/1;
 99/9=1/99;
 Leave Link    1 at Sat Mar 27 10:29:50 2021, MaxMem=           0 cpu:         1.0
 (Enter /opt/nce/packages/global/g09/l101.exe)
 -----
 Title
 -----
 Symbolic Z-matrix:
 Charge =  0 Multiplicity = 1
 C                     0.69423   3.66641  -0.00009 
 C                     1.3899    2.44889  -0.00011 
 C                     0.70938   1.2276   -0.00008 
 C                    -0.70942   1.22758  -0.00013 
 C                    -1.39001   2.44882  -0.00007 
 C                    -0.6944    3.66638  -0.00004 
 C                    -0.70939  -1.22758  -0.00012 
 C                     0.70943  -1.22756   0.00005 
 C                     1.38998  -2.44883   0.00035 
 H                     2.47923  -2.44826   0.00057 
 C                     0.69437  -3.66637   0.00037 
 C                    -0.69426  -3.66639   0.0001 
 C                    -1.38992  -2.44886  -0.00013 
 H                     2.47915   2.44839  -0.00015 
 H                    -2.47925   2.44823  -0.00007 
 H                    -1.25372   4.60427   0.00001 
 H                     1.25368  -4.60427   0.00059 
 H                    -1.25356  -4.6043    0.00007 
 N                     1.39718   0.00003  -0.00006 
 C                    -2.82436  -0.00003  -0.00012 
 C                    -3.52409   0.00009  -1.21178 
 C                    -3.52382  -0.00014   1.2117 
 C                    -4.92081   0.00009  -1.21064 
 C                    -4.92054  -0.00016   1.21087 
 C                    -5.62009  -0.00005   0.0002 
 H                    -5.46522   0.00018  -2.15786 
 H                    -5.46474  -0.00025   2.15821 
 H                    -2.96099   0.00019  -2.14697 
 H                    -2.96051  -0.00022   2.14676 
 H                    -6.71259  -0.00006   0.00032 
 H                     1.25351   4.60432  -0.00011 
 N                    -1.39718  -0.00002  -0.00028 
 C                     2.82437   0.00003  -0.00004 
 C                     3.52399  -0.00065  -1.21176 
 C                     3.52396   0.00067   1.21171 
 C                     4.92071  -0.00067  -1.21076 
 H                     2.96079  -0.00117  -2.1469 
 C                     4.92068   0.00069   1.21074 
 H                     2.96075   0.00117   2.14684 
 C                     5.6201    0.00002   0. 
 H                     5.46503  -0.0012   -2.15803 
 H                     5.46497   0.00122   2.15803 
 H                     6.71262   0.00003   0.00001 
 H                    -2.47916  -2.44834  -0.00031 
 
 NAtoms=     44 NQM=       44 NQMF=       0 NMMI=      0 NMMIF=      0
                NMic=       0 NMicF=      0.
                    Isotopes and Nuclear Properties:
 (Nuclear quadrupole moments (NQMom) in fm**2, nuclear magnetic moments (NMagM)
  in nuclear magnetons)

  Atom         1           2           3           4           5           6           7           8           9          10
 IAtWgt=          12          12          12          12          12          12          12          12          12           1
 AtmWgt=  12.0000000  12.0000000  12.0000000  12.0000000  12.0000000  12.0000000  12.0000000  12.0000000  12.0000000   1.0078250
 NucSpn=           0           0           0           0           0           0           0           0           0           1
 AtZEff=   0.0000000   0.0000000   0.0000000   0.0000000   0.0000000   0.0000000   0.0000000   0.0000000   0.0000000   0.0000000
 NQMom=    0.0000000   0.0000000   0.0000000   0.0000000   0.0000000   0.0000000   0.0000000   0.0000000   0.0000000   0.0000000
 NMagM=    0.0000000   0.0000000   0.0000000   0.0000000   0.0000000   0.0000000   0.0000000   0.0000000   0.0000000   2.7928460
 AtZNuc=   6.0000000   6.0000000   6.0000000   6.0000000   6.0000000   6.0000000   6.0000000   6.0000000   6.0000000   1.0000000

  Atom        11          12          13          14          15          16          17          18          19          20
 IAtWgt=          12          12          12           1           1           1           1           1          14          12
 AtmWgt=  12.0000000  12.0000000  12.0000000   1.0078250   1.0078250   1.0078250   1.0078250   1.0078250  14.0030740  12.0000000
 NucSpn=           0           0           0           1           1           1           1           1           2           0
 AtZEff=   0.0000000   0.0000000   0.0000000   0.0000000   0.0000000   0.0000000   0.0000000   0.0000000   0.0000000   0.0000000
 NQMom=    0.0000000   0.0000000   0.0000000   0.0000000   0.0000000   0.0000000   0.0000000   0.0000000   2.0440000   0.0000000
 NMagM=    0.0000000   0.0000000   0.0000000   2.7928460   2.7928460   2.7928460   2.7928460   2.7928460   0.4037610   0.0000000
 AtZNuc=   6.0000000   6.0000000   6.0000000   1.0000000   1.0000000   1.0000000   1.0000000   1.0000000   7.0000000   6.0000000

  Atom        21          22          23          24          25          26          27          28          29          30
 IAtWgt=          12          12          12          12          12           1           1           1           1           1
 AtmWgt=  12.0000000  12.0000000  12.0000000  12.0000000  12.0000000   1.0078250   1.0078250   1.0078250   1.0078250   1.0078250
 NucSpn=           0           0           0           0           0           1           1           1           1           1
 AtZEff=   0.0000000   0.0000000   0.0000000   0.0000000   0.0000000   0.0000000   0.0000000   0.0000000   0.0000000   0.0000000
 NQMom=    0.0000000   0.0000000   0.0000000   0.0000000   0.0000000   0.0000000   0.0000000   0.0000000   0.0000000   0.0000000
 NMagM=    0.0000000   0.0000000   0.0000000   0.0000000   0.0000000   2.7928460   2.7928460   2.7928460   2.7928460   2.7928460
 AtZNuc=   6.0000000   6.0000000   6.0000000   6.0000000   6.0000000   1.0000000   1.0000000   1.0000000   1.0000000   1.0000000

  Atom        31          32          33          34          35          36          37          38          39          40
 IAtWgt=           1          14          12          12          12          12           1          12           1          12
 AtmWgt=   1.0078250  14.0030740  12.0000000  12.0000000  12.0000000  12.0000000   1.0078250  12.0000000   1.0078250  12.0000000
 NucSpn=           1           2           0           0           0           0           1           0           1           0
 AtZEff=   0.0000000   0.0000000   0.0000000   0.0000000   0.0000000   0.0000000   0.0000000   0.0000000   0.0000000   0.0000000
 NQMom=    0.0000000   2.0440000   0.0000000   0.0000000   0.0000000   0.0000000   0.0000000   0.0000000   0.0000000   0.0000000
 NMagM=    2.7928460   0.4037610   0.0000000   0.0000000   0.0000000   0.0000000   2.7928460   0.0000000   2.7928460   0.0000000
 AtZNuc=   1.0000000   7.0000000   6.0000000   6.0000000   6.0000000   6.0000000   1.0000000   6.0000000   1.0000000   6.0000000

  Atom        41          42          43          44
 IAtWgt=           1           1           1           1
 AtmWgt=   1.0078250   1.0078250   1.0078250   1.0078250
 NucSpn=           1           1           1           1
 AtZEff=   0.0000000   0.0000000   0.0000000   0.0000000
 NQMom=    0.0000000   0.0000000   0.0000000   0.0000000
 NMagM=    2.7928460   2.7928460   2.7928460   2.7928460
 AtZNuc=   1.0000000   1.0000000   1.0000000   1.0000000
 Leave Link  101 at Sat Mar 27 10:29:50 2021, MaxMem=  5242880000 cpu:         4.3
 (Enter /opt/nce/packages/global/g09/l103.exe)

 GradGradGradGradGradGradGradGradGradGradGradGradGradGradGradGradGradGrad
 Berny optimization.
 Initialization pass.
                           ----------------------------
                           !    Initial Parameters    !
                           ! (Angstroms and Degrees)  !
 --------------------------                            --------------------------
 ! Name  Definition              Value          Derivative Info.                !
 --------------------------------------------------------------------------------
 ! R1    R(1,2)                  1.4023         estimate D2E/DX2                !
 ! R2    R(1,6)                  1.3886         estimate D2E/DX2                !
 ! R3    R(1,31)                 1.092          estimate D2E/DX2                !
 ! R4    R(2,3)                  1.3981         estimate D2E/DX2                !
 ! R5    R(2,14)                 1.0892         estimate D2E/DX2                !
 ! R6    R(3,4)                  1.4188         estimate D2E/DX2                !
 ! R7    R(3,19)                 1.4071         estimate D2E/DX2                !
 ! R8    R(4,5)                  1.3981         estimate D2E/DX2                !
 ! R9    R(4,32)                 1.4071         estimate D2E/DX2                !
 ! R10   R(5,6)                  1.4023         estimate D2E/DX2                !
 ! R11   R(5,15)                 1.0892         estimate D2E/DX2                !
 ! R12   R(6,16)                 1.092          estimate D2E/DX2                !
 ! R13   R(7,8)                  1.4188         estimate D2E/DX2                !
 ! R14   R(7,13)                 1.3981         estimate D2E/DX2                !
 ! R15   R(7,32)                 1.4071         estimate D2E/DX2                !
 ! R16   R(8,9)                  1.3981         estimate D2E/DX2                !
 ! R17   R(8,19)                 1.4071         estimate D2E/DX2                !
 ! R18   R(9,10)                 1.0892         estimate D2E/DX2                !
 ! R19   R(9,11)                 1.4022         estimate D2E/DX2                !
 ! R20   R(11,12)                1.3886         estimate D2E/DX2                !
 ! R21   R(11,17)                1.092          estimate D2E/DX2                !
 ! R22   R(12,13)                1.4022         estimate D2E/DX2                !
 ! R23   R(12,18)                1.092          estimate D2E/DX2                !
 ! R24   R(13,44)                1.0892         estimate D2E/DX2                !
 ! R25   R(19,33)                1.4272         estimate D2E/DX2                !
 ! R26   R(20,21)                1.3992         estimate D2E/DX2                !
 ! R27   R(20,22)                1.3992         estimate D2E/DX2                !
 ! R28   R(20,32)                1.4272         estimate D2E/DX2                !
 ! R29   R(21,23)                1.3967         estimate D2E/DX2                !
 ! R30   R(21,28)                1.0916         estimate D2E/DX2                !
 ! R31   R(22,24)                1.3967         estimate D2E/DX2                !
 ! R32   R(22,29)                1.0916         estimate D2E/DX2                !
 ! R33   R(23,25)                1.3982         estimate D2E/DX2                !
 ! R34   R(23,26)                1.0925         estimate D2E/DX2                !
 ! R35   R(24,25)                1.3983         estimate D2E/DX2                !
 ! R36   R(24,27)                1.0925         estimate D2E/DX2                !
 ! R37   R(25,30)                1.0925         estimate D2E/DX2                !
 ! R38   R(33,34)                1.3992         estimate D2E/DX2                !
 ! R39   R(33,35)                1.3992         estimate D2E/DX2                !
 ! R40   R(34,36)                1.3967         estimate D2E/DX2                !
 ! R41   R(34,37)                1.0916         estimate D2E/DX2                !
 ! R42   R(35,38)                1.3967         estimate D2E/DX2                !
 ! R43   R(35,39)                1.0916         estimate D2E/DX2                !
 ! R44   R(36,40)                1.3983         estimate D2E/DX2                !
 ! R45   R(36,41)                1.0925         estimate D2E/DX2                !
 ! R46   R(38,40)                1.3982         estimate D2E/DX2                !
 ! R47   R(38,42)                1.0925         estimate D2E/DX2                !
 ! R48   R(40,43)                1.0925         estimate D2E/DX2                !
 ! A1    A(2,1,6)              119.7415         estimate D2E/DX2                !
 ! A2    A(2,1,31)             119.4494         estimate D2E/DX2                !
 ! A3    A(6,1,31)             120.8091         estimate D2E/DX2                !
 ! A4    A(1,2,3)              121.13           estimate D2E/DX2                !
 ! A5    A(1,2,14)             119.7693         estimate D2E/DX2                !
 ! A6    A(3,2,14)             119.1007         estimate D2E/DX2                !
 ! A7    A(2,3,4)              119.1281         estimate D2E/DX2                !
 ! A8    A(2,3,19)             121.6112         estimate D2E/DX2                !
 ! A9    A(4,3,19)             119.2607         estimate D2E/DX2                !
 ! A10   A(3,4,5)              119.1294         estimate D2E/DX2                !
 ! A11   A(3,4,32)             119.2604         estimate D2E/DX2                !
 ! A12   A(5,4,32)             121.6101         estimate D2E/DX2                !
 ! A13   A(4,5,6)              121.1297         estimate D2E/DX2                !
 ! A14   A(4,5,15)             119.0994         estimate D2E/DX2                !
 ! A15   A(6,5,15)             119.7709         estimate D2E/DX2                !
 ! A16   A(1,6,5)              119.7413         estimate D2E/DX2                !
 ! A17   A(1,6,16)             120.8086         estimate D2E/DX2                !
 ! A18   A(5,6,16)             119.4501         estimate D2E/DX2                !
 ! A19   A(8,7,13)             119.1287         estimate D2E/DX2                !
 ! A20   A(8,7,32)             119.2603         estimate D2E/DX2                !
 ! A21   A(13,7,32)            121.611          estimate D2E/DX2                !
 ! A22   A(7,8,9)              119.1278         estimate D2E/DX2                !
 ! A23   A(7,8,19)             119.2606         estimate D2E/DX2                !
 ! A24   A(9,8,19)             121.6116         estimate D2E/DX2                !
 ! A25   A(8,9,10)             119.0987         estimate D2E/DX2                !
 ! A26   A(8,9,11)             121.1306         estimate D2E/DX2                !
 ! A27   A(10,9,11)            119.7707         estimate D2E/DX2                !
 ! A28   A(9,11,12)            119.7413         estimate D2E/DX2                !
 ! A29   A(9,11,17)            119.4498         estimate D2E/DX2                !
 ! A30   A(12,11,17)           120.8089         estimate D2E/DX2                !
 ! A31   A(11,12,13)           119.7415         estimate D2E/DX2                !
 ! A32   A(11,12,18)           120.8094         estimate D2E/DX2                !
 ! A33   A(13,12,18)           119.4491         estimate D2E/DX2                !
 ! A34   A(7,13,12)            121.1301         estimate D2E/DX2                !
 ! A35   A(7,13,44)            119.1003         estimate D2E/DX2                !
 ! A36   A(12,13,44)           119.7696         estimate D2E/DX2                !
 ! A37   A(3,19,8)             121.4788         estimate D2E/DX2                !
 ! A38   A(3,19,33)            119.2617         estimate D2E/DX2                !
 ! A39   A(8,19,33)            119.2595         estimate D2E/DX2                !
 ! A40   A(21,20,22)           120.0004         estimate D2E/DX2                !
 ! A41   A(21,20,32)           119.9998         estimate D2E/DX2                !
 ! A42   A(22,20,32)           119.9998         estimate D2E/DX2                !
 ! A43   A(20,21,23)           119.9593         estimate D2E/DX2                !
 ! A44   A(20,21,28)           118.9405         estimate D2E/DX2                !
 ! A45   A(23,21,28)           121.1002         estimate D2E/DX2                !
 ! A46   A(20,22,24)           119.9593         estimate D2E/DX2                !
 ! A47   A(20,22,29)           118.9409         estimate D2E/DX2                !
 ! A48   A(24,22,29)           121.0998         estimate D2E/DX2                !
 ! A49   A(21,23,25)           120.0542         estimate D2E/DX2                !
 ! A50   A(21,23,26)           119.8409         estimate D2E/DX2                !
 ! A51   A(25,23,26)           120.1049         estimate D2E/DX2                !
 ! A52   A(22,24,25)           120.0542         estimate D2E/DX2                !
 ! A53   A(22,24,27)           119.841          estimate D2E/DX2                !
 ! A54   A(25,24,27)           120.1048         estimate D2E/DX2                !
 ! A55   A(23,25,24)           119.9726         estimate D2E/DX2                !
 ! A56   A(23,25,30)           120.0137         estimate D2E/DX2                !
 ! A57   A(24,25,30)           120.0137         estimate D2E/DX2                !
 ! A58   A(4,32,7)             121.4792         estimate D2E/DX2                !
 ! A59   A(4,32,20)            119.2599         estimate D2E/DX2                !
 ! A60   A(7,32,20)            119.261          estimate D2E/DX2                !
 ! A61   A(19,33,34)           120.0001         estimate D2E/DX2                !
 ! A62   A(19,33,35)           120.0007         estimate D2E/DX2                !
 ! A63   A(34,33,35)           119.9991         estimate D2E/DX2                !
 ! A64   A(33,34,36)           119.9602         estimate D2E/DX2                !
 ! A65   A(33,34,37)           118.9396         estimate D2E/DX2                !
 ! A66   A(36,34,37)           121.1001         estimate D2E/DX2                !
 ! A67   A(33,35,38)           119.9602         estimate D2E/DX2                !
 ! A68   A(33,35,39)           118.9405         estimate D2E/DX2                !
 ! A69   A(38,35,39)           121.0994         estimate D2E/DX2                !
 ! A70   A(34,36,40)           120.0538         estimate D2E/DX2                !
 ! A71   A(34,36,41)           119.8417         estimate D2E/DX2                !
 ! A72   A(40,36,41)           120.1046         estimate D2E/DX2                !
 ! A73   A(35,38,40)           120.0537         estimate D2E/DX2                !
 ! A74   A(35,38,42)           119.8413         estimate D2E/DX2                !
 ! A75   A(40,38,42)           120.105          estimate D2E/DX2                !
 ! A76   A(36,40,38)           119.9731         estimate D2E/DX2                !
 ! A77   A(36,40,43)           120.0134         estimate D2E/DX2                !
 ! A78   A(38,40,43)           120.0136         estimate D2E/DX2                !
 ! D1    D(6,1,2,3)             -0.0004         estimate D2E/DX2                !
 ! D2    D(6,1,2,14)           179.9997         estimate D2E/DX2                !
 ! D3    D(31,1,2,3)           179.9999         estimate D2E/DX2                !
 ! D4    D(31,1,2,14)            0.0            estimate D2E/DX2                !
 ! D5    D(2,1,6,5)             -0.0023         estimate D2E/DX2                !
 ! D6    D(2,1,6,16)           179.9982         estimate D2E/DX2                !
 ! D7    D(31,1,6,5)           179.9974         estimate D2E/DX2                !
 ! D8    D(31,1,6,16)           -0.0022         estimate D2E/DX2                !
 ! D9    D(1,2,3,4)              0.0049         estimate D2E/DX2                !
 ! D10   D(1,2,3,19)          -179.9984         estimate D2E/DX2                !
 ! D11   D(14,2,3,4)          -179.9952         estimate D2E/DX2                !
 ! D12   D(14,2,3,19)            0.0015         estimate D2E/DX2                !
 ! D13   D(2,3,4,5)             -0.0066         estimate D2E/DX2                !
 ! D14   D(2,3,4,32)           179.9913         estimate D2E/DX2                !
 ! D15   D(19,3,4,5)           179.9966         estimate D2E/DX2                !
 ! D16   D(19,3,4,32)           -0.0055         estimate D2E/DX2                !
 ! D17   D(2,3,19,8)           179.9963         estimate D2E/DX2                !
 ! D18   D(2,3,19,33)            0.0021         estimate D2E/DX2                !
 ! D19   D(4,3,19,8)            -0.007          estimate D2E/DX2                !
 ! D20   D(4,3,19,33)          179.9988         estimate D2E/DX2                !
 ! D21   D(3,4,5,6)              0.004          estimate D2E/DX2                !
 ! D22   D(3,4,5,15)          -179.998          estimate D2E/DX2                !
 ! D23   D(32,4,5,6)          -179.9938         estimate D2E/DX2                !
 ! D24   D(32,4,5,15)            0.0042         estimate D2E/DX2                !
 ! D25   D(3,4,32,7)             0.0126         estimate D2E/DX2                !
 ! D26   D(3,4,32,20)          179.9902         estimate D2E/DX2                !
 ! D27   D(5,4,32,7)          -179.9896         estimate D2E/DX2                !
 ! D28   D(5,4,32,20)           -0.012          estimate D2E/DX2                !
 ! D29   D(4,5,6,1)              0.0005         estimate D2E/DX2                !
 ! D30   D(4,5,6,16)          -180.0            estimate D2E/DX2                !
 ! D31   D(15,5,6,1)          -179.9975         estimate D2E/DX2                !
 ! D32   D(15,5,6,16)            0.002          estimate D2E/DX2                !
 ! D33   D(13,7,8,9)            -0.0072         estimate D2E/DX2                !
 ! D34   D(13,7,8,19)          179.9944         estimate D2E/DX2                !
 ! D35   D(32,7,8,9)           179.993          estimate D2E/DX2                !
 ! D36   D(32,7,8,19)           -0.0054         estimate D2E/DX2                !
 ! D37   D(8,7,13,12)            0.0036         estimate D2E/DX2                !
 ! D38   D(8,7,13,44)         -179.9973         estimate D2E/DX2                !
 ! D39   D(32,7,13,12)        -179.9966         estimate D2E/DX2                !
 ! D40   D(32,7,13,44)           0.0025         estimate D2E/DX2                !
 ! D41   D(8,7,32,4)            -0.0071         estimate D2E/DX2                !
 ! D42   D(8,7,32,20)         -179.9847         estimate D2E/DX2                !
 ! D43   D(13,7,32,4)          179.9931         estimate D2E/DX2                !
 ! D44   D(13,7,32,20)           0.0155         estimate D2E/DX2                !
 ! D45   D(7,8,9,10)          -179.9949         estimate D2E/DX2                !
 ! D46   D(7,8,9,11)             0.006          estimate D2E/DX2                !
 ! D47   D(19,8,9,10)            0.0035         estimate D2E/DX2                !
 ! D48   D(19,8,9,11)         -179.9956         estimate D2E/DX2                !
 ! D49   D(7,8,19,3)             0.0125         estimate D2E/DX2                !
 ! D50   D(7,8,19,33)         -179.9933         estimate D2E/DX2                !
 ! D51   D(9,8,19,3)          -179.9859         estimate D2E/DX2                !
 ! D52   D(9,8,19,33)            0.0083         estimate D2E/DX2                !
 ! D53   D(8,9,11,12)           -0.0012         estimate D2E/DX2                !
 ! D54   D(8,9,11,17)          179.9988         estimate D2E/DX2                !
 ! D55   D(10,9,11,12)         179.9998         estimate D2E/DX2                !
 ! D56   D(10,9,11,17)          -0.0002         estimate D2E/DX2                !
 ! D57   D(9,11,12,13)          -0.0025         estimate D2E/DX2                !
 ! D58   D(9,11,12,18)         179.9977         estimate D2E/DX2                !
 ! D59   D(17,11,12,13)        179.9975         estimate D2E/DX2                !
 ! D60   D(17,11,12,18)         -0.0023         estimate D2E/DX2                !
 ! D61   D(11,12,13,7)           0.0012         estimate D2E/DX2                !
 ! D62   D(11,12,13,44)       -179.9978         estimate D2E/DX2                !
 ! D63   D(18,12,13,7)        -179.9989         estimate D2E/DX2                !
 ! D64   D(18,12,13,44)          0.0021         estimate D2E/DX2                !
 ! D65   D(3,19,33,34)         -90.0321         estimate D2E/DX2                !
 ! D66   D(3,19,33,35)          89.9695         estimate D2E/DX2                !
 ! D67   D(8,19,33,34)          89.9736         estimate D2E/DX2                !
 ! D68   D(8,19,33,35)         -90.0248         estimate D2E/DX2                !
 ! D69   D(22,20,21,23)         -0.0008         estimate D2E/DX2                !
 ! D70   D(22,20,21,28)        179.9993         estimate D2E/DX2                !
 ! D71   D(32,20,21,23)       -180.0            estimate D2E/DX2                !
 ! D72   D(32,20,21,28)          0.0001         estimate D2E/DX2                !
 ! D73   D(21,20,22,24)          0.0013         estimate D2E/DX2                !
 ! D74   D(21,20,22,29)       -179.9993         estimate D2E/DX2                !
 ! D75   D(32,20,22,24)       -179.9995         estimate D2E/DX2                !
 ! D76   D(32,20,22,29)         -0.0001         estimate D2E/DX2                !
 ! D77   D(21,20,32,4)          90.005          estimate D2E/DX2                !
 ! D78   D(21,20,32,7)         -90.0169         estimate D2E/DX2                !
 ! D79   D(22,20,32,4)         -89.9942         estimate D2E/DX2                !
 ! D80   D(22,20,32,7)          89.9839         estimate D2E/DX2                !
 ! D81   D(20,21,23,25)         -0.0002         estimate D2E/DX2                !
 ! D82   D(20,21,23,26)       -179.9998         estimate D2E/DX2                !
 ! D83   D(28,21,23,25)        179.9997         estimate D2E/DX2                !
 ! D84   D(28,21,23,26)          0.0001         estimate D2E/DX2                !
 ! D85   D(20,22,24,25)         -0.0009         estimate D2E/DX2                !
 ! D86   D(20,22,24,27)        179.9995         estimate D2E/DX2                !
 ! D87   D(29,22,24,25)        179.9997         estimate D2E/DX2                !
 ! D88   D(29,22,24,27)          0.0001         estimate D2E/DX2                !
 ! D89   D(21,23,25,24)          0.0006         estimate D2E/DX2                !
 ! D90   D(21,23,25,30)       -179.9996         estimate D2E/DX2                !
 ! D91   D(26,23,25,24)       -179.9998         estimate D2E/DX2                !
 ! D92   D(26,23,25,30)          0.0            estimate D2E/DX2                !
 ! D93   D(22,24,25,23)         -0.0001         estimate D2E/DX2                !
 ! D94   D(22,24,25,30)       -179.9998         estimate D2E/DX2                !
 ! D95   D(27,24,25,23)        179.9995         estimate D2E/DX2                !
 ! D96   D(27,24,25,30)         -0.0002         estimate D2E/DX2                !
 ! D97   D(19,33,34,36)       -179.9993         estimate D2E/DX2                !
 ! D98   D(19,33,34,37)          0.0005         estimate D2E/DX2                !
 ! D99   D(35,33,34,36)         -0.0009         estimate D2E/DX2                !
 ! D100  D(35,33,34,37)        179.9989         estimate D2E/DX2                !
 ! D101  D(19,33,35,38)       -179.999          estimate D2E/DX2                !
 ! D102  D(19,33,35,39)          0.0            estimate D2E/DX2                !
 ! D103  D(34,33,35,38)          0.0025         estimate D2E/DX2                !
 ! D104  D(34,33,35,39)       -179.9984         estimate D2E/DX2                !
 ! D105  D(33,34,36,40)         -0.0011         estimate D2E/DX2                !
 ! D106  D(33,34,36,41)        179.9999         estimate D2E/DX2                !
 ! D107  D(37,34,36,40)        179.9991         estimate D2E/DX2                !
 ! D108  D(37,34,36,41)          0.0001         estimate D2E/DX2                !
 ! D109  D(33,35,38,40)         -0.0022         estimate D2E/DX2                !
 ! D110  D(33,35,38,42)        179.9987         estimate D2E/DX2                !
 ! D111  D(39,35,38,40)        179.9988         estimate D2E/DX2                !
 ! D112  D(39,35,38,42)         -0.0003         estimate D2E/DX2                !
 ! D113  D(34,36,40,38)          0.0015         estimate D2E/DX2                !
 ! D114  D(34,36,40,43)       -179.9989         estimate D2E/DX2                !
 ! D115  D(41,36,40,38)       -179.9996         estimate D2E/DX2                !
 ! D116  D(41,36,40,43)          0.0001         estimate D2E/DX2                !
 ! D117  D(35,38,40,36)          0.0002         estimate D2E/DX2                !
 ! D118  D(35,38,40,43)       -179.9995         estimate D2E/DX2                !
 ! D119  D(42,38,40,36)        179.9992         estimate D2E/DX2                !
 ! D120  D(42,38,40,43)         -0.0004         estimate D2E/DX2                !
 --------------------------------------------------------------------------------
 Trust Radius=3.00D-01 FncErr=1.00D-07 GrdErr=1.00D-06
 Number of steps in this run=    256 maximum allowed number of steps=    264.
 GradGradGradGradGradGradGradGradGradGradGradGradGradGradGradGradGradGrad

 Leave Link  103 at Sat Mar 27 10:29:50 2021, MaxMem=  5242880000 cpu:         0.2
 (Enter /opt/nce/packages/global/g09/l202.exe)
                          Input orientation:                          
 ---------------------------------------------------------------------
 Center     Atomic      Atomic             Coordinates (Angstroms)
 Number     Number       Type             X           Y           Z
 ---------------------------------------------------------------------
      1          6           0        0.694232    3.666410   -0.000086
      2          6           0        1.389901    2.448889   -0.000107
      3          6           0        0.709381    1.227599   -0.000075
      4          6           0       -0.709422    1.227576   -0.000126
      5          6           0       -1.390007    2.448822   -0.000067
      6          6           0       -0.694399    3.666378   -0.000042
      7          6           0       -0.709387   -1.227582   -0.000122
      8          6           0        0.709427   -1.227557    0.000048
      9          6           0        1.389983   -2.448828    0.000354
     10          1           0        2.479228   -2.448255    0.000569
     11          6           0        0.694367   -3.666370    0.000368
     12          6           0       -0.694263   -3.666389    0.000099
     13          6           0       -1.389917   -2.448864   -0.000132
     14          1           0        2.479145    2.448386   -0.000147
     15          1           0       -2.479253    2.448234   -0.000073
     16          1           0       -1.253717    4.604272    0.000005
     17          1           0        1.253681   -4.604267    0.000591
     18          1           0       -1.253560   -4.604297    0.000067
     19          7           0        1.397179    0.000031   -0.000062
     20          6           0       -2.824362   -0.000026   -0.000120
     21          6           0       -3.524090    0.000093   -1.211779
     22          6           0       -3.523819   -0.000137    1.211699
     23          6           0       -4.920812    0.000085   -1.210635
     24          6           0       -4.920538   -0.000156    1.210869
     25          6           0       -5.620089   -0.000046    0.000195
     26          1           0       -5.465222    0.000175   -2.157858
     27          1           0       -5.464737   -0.000251    2.158213
     28          1           0       -2.960989    0.000190   -2.146965
     29          1           0       -2.960514   -0.000217    2.146763
     30          1           0       -6.712593   -0.000058    0.000318
     31          1           0        1.253510    4.604319   -0.000110
     32          7           0       -1.397175   -0.000017   -0.000281
     33          6           0        2.824368    0.000029   -0.000036
     34          6           0        3.523992   -0.000651   -1.211762
     35          6           0        3.523959    0.000674    1.211707
     36          6           0        4.920709   -0.000667   -1.210763
     37          1           0        2.960791   -0.001166   -2.146897
     38          6           0        4.920682    0.000692    1.210744
     39          1           0        2.960747    0.001173    2.146835
     40          6           0        5.620104    0.000020    0.000001
     41          1           0        5.465033   -0.001200   -2.158034
     42          1           0        5.464975    0.001217    2.158033
     43          1           0        6.712617    0.000026    0.000012
     44          1           0       -2.479155   -2.448343   -0.000307
 ---------------------------------------------------------------------
                    Distance matrix (angstroms):
                    1          2          3          4          5
     1  C    0.000000
     2  C    1.402253   0.000000
     3  C    2.438858   1.398090   0.000000
     4  C    2.813922   2.428737   1.418803   0.000000
     5  C    2.413829   2.779908   2.428748   1.398084   0.000000
     6  C    1.388631   2.413832   2.813937   2.438848   1.402253
     7  C    5.091297   4.233609   2.835633   2.455158   3.738875
     8  C    4.893991   3.738890   2.455156   2.835632   4.233602
     9  C    6.154690   4.897717   3.738895   4.233609   5.631636
    10  H    6.369877   5.016837   4.079738   4.866130   6.241181
    11  C    7.332780   6.154686   4.893992   5.091300   6.460665
    12  C    7.463100   6.460678   5.091300   4.893988   6.154662
    13  C    6.460670   5.631640   4.233607   3.738888   4.897686
    14  H    2.160902   1.089244   2.149973   3.414284   3.869152
    15  H    3.399259   3.869154   3.414284   2.149955   1.089246
    16  H    2.161964   3.410922   3.905851   3.420283   2.159755
    17  H    8.289577   7.054471   5.857211   6.153387   7.532274
    18  H    8.496969   7.532285   6.153385   5.857203   7.054439
    19  N    3.733158   2.448869   1.407121   2.438162   3.710119
    20  C    5.081659   4.874136   3.740909   2.445399   2.837998
    21  C    5.718769   5.622460   4.571354   3.301087   3.466818
    22  C    5.718736   5.622352   4.571183   3.301004   3.466833
    23  C    6.814403   6.876563   5.888236   4.550590   4.464120
    24  C    6.814379   6.876476   5.888103   4.550531   4.464136
    25  C    7.301613   7.425446   6.447426   5.061789   4.887796
    26  H    7.485729   7.592417   6.654947   5.364695   5.221045
    27  H    7.485690   7.592279   6.654739   5.364607   5.221068
    28  H    5.604543   5.434645   4.425753   3.344391   3.615654
    29  H    5.604488   5.434453   4.425446   3.344252   3.615683
    30  H    8.264626   8.464499   7.522821   6.127410   5.858919
    31  H    1.092001   2.159741   3.420280   3.905828   3.410916
    32  N    4.220980   3.710112   2.438159   1.407121   2.448850
    33  C    4.240263   2.838065   2.445424   3.740928   4.874171
    34  C    4.787801   3.467376   3.301336   4.571477   5.622767
    35  C    4.786796   3.466476   3.300850   4.571142   5.622178
    36  C    5.725059   4.464596   4.550790   5.888344   6.876839
    37  H    4.816347   3.616514   3.344780   4.425934   5.435142
    38  C    5.724201   4.463882   4.550433   5.888083   6.876351
    39  H    4.814595   3.615001   3.343949   4.425341   5.434081
    40  C    6.140572   4.887901   5.061833   6.447464   7.425516
    41  H    6.392859   5.221713   5.364975   6.655100   7.592826
    42  H    6.391487   5.220622   5.364431   6.654681   7.592032
    43  H    7.047221   5.859030   6.127461   7.522868   8.464580
    44  H    6.889165   6.241192   4.866139   4.079747   5.016819
                    6          7          8          9         10
     6  C    0.000000
     7  C    4.893983   0.000000
     8  C    5.091299   1.418814   0.000000
     9  C    6.460681   2.428744   1.398091   0.000000
    10  H    6.889169   3.414280   2.149953   1.089245   0.000000
    11  C    7.463100   2.813932   2.438860   1.402245   2.160910
    12  C    7.332767   2.438854   2.813938   2.413822   3.399249
    13  C    6.154667   1.398088   2.428752   2.779900   3.869145
    14  H    3.399248   4.866156   4.079762   5.016869   4.896641
    15  H    2.160921   4.079712   4.866120   6.241170   6.968654
    16  H    1.092008   5.857202   6.153386   7.532288   7.979537
    17  H    8.496975   3.905847   3.420290   2.159744   2.479991
    18  H    8.289555   3.420282   3.905853   3.410919   4.310710
    19  N    4.220995   2.438166   1.407116   2.448870   2.676740
    20  C    4.240196   2.445407   3.740922   4.874150   5.841395
    21  C    4.787181   3.301189   4.571468   5.622686   6.595758
    22  C    4.787198   3.300933   4.571108   5.622179   6.595202
    23  C    5.724492   4.550671   5.888332   6.876758   7.888091
    24  C    5.724511   4.550480   5.888048   6.876337   7.887620
    25  C    6.140447   5.061802   6.447446   7.425473   8.461245
    26  H    6.392024   5.364809   6.655086   7.592716   8.588824
    27  H    6.392054   5.364523   6.654642   7.592040   8.588057
    28  H    4.815355   3.344558   4.425944   5.435037   6.340564
    29  H    4.815389   3.344116   4.425293   5.434114   6.339545
    30  H    7.047085   6.127422   7.522841   8.464527   9.512268
    31  H    2.161963   6.153376   5.857201   7.054467   7.158295
    32  N    3.733142   1.407113   2.438160   3.710111   4.584798
    33  C    5.081716   3.740916   2.445392   2.838021   2.472492
    34  C    5.719282   4.571097   3.300842   3.466524   2.924388
    35  C    5.718415   4.571472   3.301251   3.467173   2.924991
    36  C    6.814874   5.888035   4.550409   4.463891   3.663174
    37  H    5.605379   4.425262   3.343957   3.615131   3.291164
    38  C    6.814132   5.888339   4.550720   4.464418   3.663682
    39  H    5.603829   4.425963   3.344684   3.616239   3.292114
    40  C    7.301721   6.447438   5.061788   4.887820   3.982355
    41  H    7.486432   6.654627   5.364425   5.220685   4.422971
    42  H    7.485224   6.655098   5.364888   5.221481   4.423714
    43  H    8.264746   7.522843   6.127418   5.858952   4.890364
    44  H    6.369864   2.149962   3.414290   3.869138   4.958383
                   11         12         13         14         15
    11  C    0.000000
    12  C    1.388630   0.000000
    13  C    2.413827   1.402249   0.000000
    14  H    6.369904   6.889194   6.241210   0.000000
    15  H    6.889140   6.369835   5.016794   4.958398   0.000000
    16  H    8.496973   8.289561   7.054451   4.310696   2.480008
    17  H    1.092009   2.161967   3.410920   7.158329   7.979509
    18  H    2.161973   1.092009   2.159742   7.979563   7.158248
    19  N    3.733154   4.220991   3.710120   2.676769   4.584803
    20  C    5.081686   4.240229   2.838035   5.841396   2.472464
    21  C    5.719059   4.787448   3.467012   6.595530   2.924604
    22  C    5.718538   4.787041   3.466747   6.595408   2.924727
    23  C    6.814665   5.724738   4.464290   7.887891   3.663346
    24  C    6.814220   5.724389   4.464076   7.887790   3.663450
    25  C    7.301663   6.140508   4.887849   8.461230   3.982327
    26  H    7.486122   6.392380   5.221272   8.588505   4.423239
    27  H    7.485405   6.391827   5.220950   8.588341   4.423391
    28  H    5.605027   4.815779   3.615940   6.340154   3.291525
    29  H    5.604092   4.815068   3.615495   6.339934   3.291721
    30  H    8.264678   7.047147   5.858970   9.512251   4.890327
    31  H    8.289568   8.496966   7.532270   2.479965   4.310710
    32  N    4.220982   3.733145   2.448858   4.584816   2.676719
    33  C    4.240211   5.081671   4.874144   2.472576   5.841413
    34  C    4.786808   5.718384   5.622126   2.925320   6.595770
    35  C    4.787603   5.719156   5.622719   2.924298   6.595265
    36  C    5.724175   6.814075   6.876285   3.663971   7.888113
    37  H    4.814680   5.603826   5.434012   3.292541   6.340544
    38  C    5.724866   6.814745   6.876787   3.663136   7.887685
    39  H    4.816085   5.605228   5.435110   3.290946   6.339631
    40  C    6.140464   7.301629   7.425458   3.982477   8.461285
    41  H    6.391512   7.485190   7.591965   4.424079   8.588842
    42  H    6.392606   7.486269   7.592767   4.422845   8.588136
    43  H    7.047112   8.264652   8.464521   4.890476   9.512318
    44  H    3.399240   2.160897   1.089238   6.968694   4.896577
                   16         17         18         19         20
    16  H    0.000000
    17  H    9.543806   0.000000
    18  H    9.208569   2.507241   0.000000
    19  N    5.312841   4.606534   5.312839   0.000000
    20  C    4.864821   6.150567   4.864846   4.221541   0.000000
    21  C    5.274607   6.745151   5.274873   5.068249   1.399191
    22  C    5.274670   6.744576   5.274506   5.067996   1.399195
    23  C    6.009307   7.796890   6.009565   6.432923   2.420836
    24  C    6.009370   7.796383   6.009233   6.432721   2.420836
    25  C    6.345467   8.273304   6.345526   7.017268   2.795727
    26  H    6.602337   8.426354   6.602719   7.193652   3.410275
    27  H    6.602438   8.425523   6.602185   7.193333   3.410276
    28  H    5.359275   6.601247   5.359698   4.858273   2.151188
    29  H    5.359388   6.600210   5.359062   4.857813   2.151196
    30  H    7.141371   9.201101   7.141432   8.109772   3.888231
    31  H    2.507227   9.208586   9.543794   4.606529   6.150531
    32  N    4.606523   5.312829   4.606519   2.794354   1.427187
    33  C    6.150596   4.864833   6.150554   1.427189   5.648730
    34  C    6.745383   5.274220   6.744412   2.447764   6.462946
    35  C    6.744444   5.275078   6.745259   2.447770   6.462949
    36  C    7.797112   6.008960   7.796224   3.725730   7.839119
    37  H    6.601615   5.358588   6.599926   2.655896   6.170628
    38  C    7.796284   6.009743   7.796982   3.725738   7.839126
    39  H    6.599932   5.360085   6.601466   2.655920   6.170649
    40  C    8.273364   6.345479   8.273270   4.222925   8.444466
    41  H    8.426690   6.601770   8.425283   4.604811   8.565668
    42  H    8.425320   6.603032   8.426523   4.604817   8.565672
    43  H    9.201172   7.141393   9.201074   5.315438   9.536979
    44  H    7.158287   4.310693   2.479964   4.584812   2.472534
                   21         22         23         24         25
    21  C    0.000000
    22  C    2.423478   0.000000
    23  C    1.396722   2.796300   0.000000
    24  C    2.796299   1.396719   2.421504   0.000000
    25  C    2.421176   2.421175   1.398248   1.398250   0.000000
    26  H    2.159412   3.888825   1.092526   3.412477   2.163603
    27  H    3.888825   2.159410   3.412476   1.092526   2.163603
    28  H    1.091630   3.405496   2.172008   3.887786   3.417764
    29  H    3.405499   1.091631   3.887787   2.172002   3.417761
    30  H    3.411119   3.411118   2.162611   2.162613   1.092504
    31  H    6.744813   6.744803   7.796576   7.796572   8.273242
    32  N    2.447753   2.447756   3.725718   3.725718   4.222914
    33  C    6.463067   6.462800   7.839220   7.838996   8.444457
    34  C    7.048082   7.452839   8.444804   8.785171   9.224048
    35  C    7.453072   7.047778   8.785323   8.444497   9.223957
    36  C    8.444799   8.785122   9.841521  10.134813  10.610129
    37  H    6.551956   7.302762   7.937018   8.566793   8.845423
    38  C    8.785374   8.444501  10.134993   9.841220  10.610056
    39  H    7.302972   6.551647   8.566888   7.936667   8.845271
    40  C    9.224137   9.223857  10.610210  10.609964  11.240193
    41  H    9.038790   9.599717  10.428967  10.918315  11.293267
    42  H    9.599944   9.038472  10.918448  10.428615  11.293136
    43  H   10.308182  10.307900  11.696253  11.696002  12.332706
    44  H    2.924789   2.924721   3.663520   3.663457   3.982414
                   26         27         28         29         30
    26  H    0.000000
    27  H    4.316071   0.000000
    28  H    2.504257   4.980292   0.000000
    29  H    4.980294   2.504249   4.293728   0.000000
    30  H    2.492721   2.492720   4.322656   4.322652   0.000000
    31  H    8.425876   8.425869   6.600681   6.600668   9.201037
    32  N    4.604796   4.604797   2.655893   2.655904   5.315418
    33  C    8.565833   8.565471   6.170872   6.170381   9.536961
    34  C    9.038864   9.599686   6.552067   7.302637  10.308094
    35  C    9.599966   9.038392   7.303097   6.551543  10.307980
    36  C   10.429025  10.918218   7.937105   8.566601  11.696172
    37  H    8.426020   9.461686   5.921780   7.314190   9.908829
    38  C   10.918538  10.428549   8.567085   7.936585  11.696077
    39  H    9.461889   8.425492   7.314621   5.921261   9.908635
    40  C   11.293397  11.292988   8.845599   8.845089  12.332697
    41  H   10.930255  11.751164   8.426029   9.461560  12.367419
    42  H   11.751431  10.929712   9.462023   8.425497  12.367251
    43  H   12.367545  12.367125   9.908994   9.908481  13.425210
    44  H    4.423445   4.423354   3.291750   3.291647   4.890409
                   31         32         33         34         35
    31  H    0.000000
    32  N    5.312819   0.000000
    33  C    4.864882   4.221543   0.000000
    34  C    5.275314   5.068093   1.399198   0.000000
    35  C    5.274181   5.068183   1.399196   2.423469   0.000000
    36  C    6.009985   6.432801   2.420848   1.396717   2.796296
    37  H    5.360410   4.857966   2.151191   1.091638   3.405493
    38  C    6.008968   6.432876   2.420851   2.796298   1.396723
    39  H    5.358450   4.858147   2.151199   3.405499   1.091637
    40  C    6.345606   7.017279   2.795736   2.421168   2.421168
    41  H    6.603360   7.193455   3.410289   2.159415   3.888821
    42  H    6.601709   7.193568   3.410289   3.888822   2.159416
    43  H    7.141524   8.109792   3.888249   3.411118   3.411121
    44  H    7.979526   2.676748   5.841394   6.595195   6.595759
                   36         37         38         39         40
    36  C    0.000000
    37  H    2.172010   0.000000
    38  C    2.421507   3.887792   0.000000
    39  H    3.887791   4.293733   2.172006   0.000000
    40  C    1.398250   3.417765   1.398245   3.417759   0.000000
    41  H    1.092525   2.504267   3.412475   4.980296   2.163600
    42  H    3.412479   4.980298   1.092525   2.504253   2.163601
    43  H    2.162617   4.322663   2.162615   4.322659   1.092513
    44  H    7.887605   6.339522   7.888093   6.340574   8.461234
                   41         42         43         44
    41  H    0.000000
    42  H    4.316068   0.000000
    43  H    2.492715   2.492723   0.000000
    44  H    8.588039   8.588829   9.512265   0.000000
 Symmetry turned off by external request.
 Stoichiometry    C24H18N2
 Framework group  C1[X(C24H18N2)]
 Deg. of freedom   126
 Full point group                 C1      NOp   1
 Rotational constants (GHZ):      0.3907847      0.1504828      0.1176605
 Leave Link  202 at Sat Mar 27 10:29:50 2021, MaxMem=  5242880000 cpu:         0.1
 (Enter /opt/nce/packages/global/g09/l301.exe)
 Standard basis: def2TZVP (5D, 7F)
 Ernie: Thresh=  0.10000D-02 Tol=  0.10000D-05 Strict=F.
   914 basis functions,  1470 primitive gaussians,  1044 cartesian basis functions
    88 alpha electrons       88 beta electrons
       nuclear repulsion energy      2140.9244984179 Hartrees.
 IExCor= 1009 DFT=T Ex=PBE Corr=PBE ExCW=0 ScaHFX=  0.000000
 ScaDFX=  1.000000  1.000000  1.000000  1.000000 ScalE2=  1.000000  1.000000
 IRadAn=      5 IRanWt=     -1 IRanGd=            0 ICorTp=0 IEmpDi=141
 NAtoms=   44 NActive=   44 NUniq=   44 SFac= 1.00D+00 NAtFMM=   60 NAOKFM=F Big=F
 Integral buffers will be    131072 words long.
 Raffenetti 2 integral format.
 Two-electron integral symmetry is turned off.
 R6Disp:  Grimme-D3(BJ) Dispersion energy=       -0.0674334685 Hartrees.
 Nuclear repulsion after empirical dispersion term =     2140.8570649494 Hartrees.
 ------------------------------------------------------------------------------
 Polarizable Continuum Model (PCM)
 =================================
 Model                : PCM (using non-symmetric T matrix).
 Atomic radii         : SMD-Coulomb.
 Polarization charges : Total charges.
 Charge compensation  : None.
 Solution method      : On-the-fly selection.
 Cavity type          : VdW (van der Waals Surface) (Alpha=1.000).
 Cavity algorithm     : GePol (No added spheres)
                        Default sphere list used, NSphG=   44.
                        Lebedev-Laikov grids with approx.  5.0 points / Ang**2.
                        Smoothing algorithm: York/Karplus (Gamma=1.0000).
                        Polarization charges: spherical gaussians, with
                                              point-specific exponents (IZeta= 3).
                        Self-potential: point-specific (ISelfS= 7).
                        Self-field    : sphere-specific E.n sum rule (ISelfD= 2).
 1st derivatives      : Analytical E(r).r(x)/FMM algorithm (CHGder, D1EAlg=3).
                        Cavity 1st derivative terms included.
 Solvent              : n,n-DiMethylFormamide, Eps=  37.219000 Eps(inf)=   2.046330
 ------------------------------------------------------------------------------
 GePol: Number of generator spheres                  =      44
 GePol: Total number of spheres                      =      44
 GePol: Number of exposed spheres                    =      44 (100.00%)
 GePol: Number of points                             =    3298
 GePol: Average weight of points                     =       0.11
 GePol: Minimum weight of points                     =   0.84D-10
 GePol: Maximum weight of points                     =    0.17992
 GePol: Number of points with low weight             =     136
 GePol: Fraction of low-weight points (<1% of avg)   =       4.12%
 GePol: Cavity surface area                          =    355.656 Ang**2
 GePol: Cavity volume                                =    345.008 Ang**3
 ------------------------------------------------------------------------------
 Atomic radii for non-electrostatic terms: SMD-CDS.
 ------------------------------------------------------------------------------
 PCM non-electrostatic energy =        -0.0059414956 Hartrees.
 Nuclear repulsion after PCM non-electrostatic terms =     2140.8511234537 Hartrees.
 Leave Link  301 at Sat Mar 27 10:29:50 2021, MaxMem=  5242880000 cpu:         1.6
 (Enter /opt/nce/packages/global/g09/l302.exe)
 NPDir=0 NMtPBC=     1 NCelOv=     1 NCel=       1 NClECP=     1 NCelD=      1
         NCelK=      1 NCelE2=     1 NClLst=     1 CellRange=     0.0.
 One-electron integrals computed using PRISM.
   1 Symmetry operations used in ECPInt.
 ECPInt:  NShTT=   64261 NPrTT=  198132 LenC2=   54977 LenP2D=  118401.
 LDataN:  DoStor=T MaxTD1= 6 Len=  172
 NBasis=   914 RedAO= T EigKep=  3.86D-06  NBF=   914
 NBsUse=   914 1.00D-06 EigRej= -1.00D+00 NBFU=   914
 Precomputing XC quadrature grid using
 IXCGrd= 4 IRadAn=           5 IRanWt=          -1 IRanGd=           0 AccXCQ= 0.00D+00.
 Generated NRdTot=       0 NPtTot=           0 NUsed=           0 NTot=          32
 NSgBfM=  1017  1017  1017  1017  1017 MxSgAt=    44 MxSgA2=    44.
 Leave Link  302 at Sat Mar 27 10:29:52 2021, MaxMem=  5242880000 cpu:        22.1
 (Enter /opt/nce/packages/global/g09/l303.exe)
 DipDrv:  MaxL=1.
 Leave Link  303 at Sat Mar 27 10:29:53 2021, MaxMem=  5242880000 cpu:         2.3
 (Enter /opt/nce/packages/global/g09/l401.exe)
 ExpMin= 9.52D-02 ExpMax= 1.97D+04 ExpMxC= 6.73D+02 IAcc=3 IRadAn=         5 AccDes= 0.00D+00
 Harris functional with IExCor= 1009 and IRadAn=       5 diagonalized for initial guess.
 HarFok:  IExCor= 1009 AccDes= 0.00D+00 IRadAn=         5 IDoV= 1 UseB2=F ITyADJ=14
 ICtDFT=  3500011 ScaDFX=  1.000000  1.000000  1.000000  1.000000
 FoFCou: FMM=F IPFlag=           0 FMFlag=      100000 FMFlg1=           0
         NFxFlg=           0 DoJE=T BraDBF=F KetDBF=T FulRan=T
         wScrn=  0.000000 ICntrl=     500 IOpCl=  0 I1Cent=   200000004 NGrid=           0
         NMat0=    1 NMatS0=      1 NMatT0=    0 NMatD0=    1 NMtDS0=    0 NMtDT0=    0
 Symmetry not used in FoFCou.
 Harris En= -1034.43255888139    
 JPrj=0 DoOrth=F DoCkMO=F.
 Leave Link  401 at Sat Mar 27 10:30:01 2021, MaxMem=  5242880000 cpu:       104.3
 (Enter /opt/nce/packages/global/g09/l502.exe)
 Closed shell SCF:
 Using DIIS extrapolation, IDIIS=  1040.
 Two-electron integral symmetry not used.
 IVT=     3307238 IEndB=     3307238 NGot=  5242880000 MDV=  5240680383
 LenX=  5240680383 LenY=  5239589403
 Requested convergence on RMS density matrix=1.00D-08 within 128 cycles.
 Requested convergence on MAX density matrix=1.00D-06.
 Requested convergence on             energy=1.00D-06.
 No special actions if energy rises.
 Fock matrices will be formed incrementally for  20 cycles.

 Cycle   1  Pass 1  IDiag  1:
 FoFJK:  IHMeth= 1 ICntrl=     500 DoSepK=F KAlg= 0 I1Cent=   0 FoldK=F
 IRaf= 750000000 NMat=   1 IRICut=       1 DoRegI=T DoRafI=F ISym2E= 0.
 FoFCou: FMM=F IPFlag=           0 FMFlag=      100000 FMFlg1=           0
         NFxFlg=           0 DoJE=T BraDBF=F KetDBF=F FulRan=T
         wScrn=  0.000000 ICntrl=     500 IOpCl=  0 I1Cent=           0 NGrid=           0
         NMat0=    1 NMatS0=      1 NMatT0=    0 NMatD0=    1 NMtDS0=    0 NMtDT0=    0
 Symmetry not used in FoFCou.
 Inv3:  Mode=1 IEnd=    32630412.
 Iteration    1 A*A^-1 deviation from unit magnitude is 5.77D-15 for   3295.
 Iteration    1 A*A^-1 deviation from orthogonality  is 4.74D-15 for   3295   3020.
 Iteration    1 A^-1*A deviation from unit magnitude is 5.55D-15 for   3291.
 Iteration    1 A^-1*A deviation from orthogonality  is 4.23D-13 for   1326   1258.
 E= -1033.52169864664    
 DIIS: error= 2.77D-02 at cycle   1 NSaved=   1.
 NSaved= 1 IEnMin= 1 EnMin= -1033.52169864664     IErMin= 1 ErrMin= 2.77D-02
 ErrMax= 2.77D-02  0.00D+00 EMaxC= 1.00D-01 BMatC= 5.02D-01 BMatP= 5.02D-01
 IDIUse=3 WtCom= 7.23D-01 WtEn= 2.77D-01
 Coeff-Com:  0.100D+01
 Coeff-En:   0.100D+01
 Coeff:      0.100D+01
 Gap=     0.129 Goal=   None    Shift=    0.000
 GapD=    0.129 DampG=1.000 DampE=0.500 DampFc=0.5000 IDamp=-1.
 Damping current iteration by 5.00D-01
 RMSDP=2.13D-03 MaxDP=8.83D-02              OVMax= 4.26D-01

 Cycle   2  Pass 1  IDiag  1:
 RMSU=  1.06D-03    CP:  9.73D-01
 E= -1033.59833894150     Delta-E=       -0.076640294862 Rises=F Damp=T
 DIIS: error= 1.89D-02 at cycle   2 NSaved=   2.
 NSaved= 2 IEnMin= 2 EnMin= -1033.59833894150     IErMin= 2 ErrMin= 1.89D-02
 ErrMax= 1.89D-02  0.00D+00 EMaxC= 1.00D-01 BMatC= 1.17D-01 BMatP= 5.02D-01
 IDIUse=3 WtCom= 8.11D-01 WtEn= 1.89D-01
 Coeff-Com:  0.265D+00 0.735D+00
 Coeff-En:   0.432D+00 0.568D+00
 Coeff:      0.297D+00 0.703D+00
 Gap=     0.092 Goal=   None    Shift=    0.000
 RMSDP=8.90D-04 MaxDP=5.21D-02 DE=-7.66D-02 OVMax= 4.99D-01

 Cycle   3  Pass 1  IDiag  1:
 RMSU=  8.04D-04    CP:  9.56D-01  6.49D-01
 E= -1033.88191964189     Delta-E=       -0.283580700383 Rises=F Damp=F
 DIIS: error= 2.03D-02 at cycle   3 NSaved=   3.
 NSaved= 3 IEnMin= 3 EnMin= -1033.88191964189     IErMin= 2 ErrMin= 1.89D-02
 ErrMax= 2.03D-02  0.00D+00 EMaxC= 1.00D-01 BMatC= 1.35D-01 BMatP= 1.17D-01
 IDIUse=2 WtCom= 0.00D+00 WtEn= 1.00D+00
 Coeff-En:   0.000D+00 0.104D+00 0.896D+00
 Coeff:      0.000D+00 0.104D+00 0.896D+00
 Gap=     0.127 Goal=   None    Shift=    0.000
 RMSDP=1.16D-03 MaxDP=9.37D-02 DE=-2.84D-01 OVMax= 4.63D-01

 Cycle   4  Pass 1  IDiag  1:
 RMSU=  7.80D-04    CP:  9.61D-01  7.87D-01 -5.82D-02
 E= -1033.29545840628     Delta-E=        0.586461235609 Rises=F Damp=F
 DIIS: error= 5.20D-02 at cycle   4 NSaved=   4.
 NSaved= 4 IEnMin= 3 EnMin= -1033.88191964189     IErMin= 2 ErrMin= 1.89D-02
 ErrMax= 5.20D-02  0.00D+00 EMaxC= 1.00D-01 BMatC= 6.69D-01 BMatP= 1.17D-01
 IDIUse=2 WtCom= 0.00D+00 WtEn= 1.00D+00
 Coeff-En:   0.000D+00 0.000D+00 0.754D+00 0.246D+00
 Coeff:      0.000D+00 0.000D+00 0.754D+00 0.246D+00
 Gap=     0.117 Goal=   None    Shift=    0.000
 RMSDP=5.48D-04 MaxDP=4.25D-02 DE= 5.86D-01 OVMax= 2.33D-01

 Cycle   5  Pass 1  IDiag  1:
 RMSU=  1.89D-04    CP:  9.62D-01  6.49D-01  3.50D-01  5.27D-01
 E= -1033.98805228013     Delta-E=       -0.692593873850 Rises=F Damp=F
 DIIS: error= 1.21D-02 at cycle   5 NSaved=   5.
 NSaved= 5 IEnMin= 5 EnMin= -1033.98805228013     IErMin= 5 ErrMin= 1.21D-02
 ErrMax= 1.21D-02  0.00D+00 EMaxC= 1.00D-01 BMatC= 4.53D-02 BMatP= 1.17D-01
 IDIUse=3 WtCom= 8.79D-01 WtEn= 1.21D-01
 Coeff-Com: -0.584D-02 0.612D-01 0.285D+00-0.921D-01 0.752D+00
 Coeff-En:   0.000D+00 0.000D+00 0.310D+00 0.000D+00 0.690D+00
 Coeff:     -0.513D-02 0.538D-01 0.288D+00-0.810D-01 0.744D+00
 Gap=     0.085 Goal=   None    Shift=    0.000
 RMSDP=2.32D-04 MaxDP=2.16D-02 DE=-6.93D-01 OVMax= 1.15D-01

 Cycle   6  Pass 1  IDiag  1:
 RMSU=  5.48D-05    CP:  9.61D-01  6.45D-01  5.55D-01  3.31D-01  9.48D-01
 E= -1034.03823385344     Delta-E=       -0.050181573311 Rises=F Damp=F
 DIIS: error= 1.35D-03 at cycle   6 NSaved=   6.
 NSaved= 6 IEnMin= 6 EnMin= -1034.03823385344     IErMin= 6 ErrMin= 1.35D-03
 ErrMax= 1.35D-03  0.00D+00 EMaxC= 1.00D-01 BMatC= 8.72D-04 BMatP= 4.53D-02
 IDIUse=3 WtCom= 9.87D-01 WtEn= 1.35D-02
 Coeff-Com: -0.809D-02 0.328D-01 0.157D+00-0.700D-01 0.496D+00 0.393D+00
 Coeff-En:   0.000D+00 0.000D+00 0.000D+00 0.000D+00 0.000D+00 0.100D+01
 Coeff:     -0.798D-02 0.324D-01 0.154D+00-0.691D-01 0.489D+00 0.401D+00
 Gap=     0.086 Goal=   None    Shift=    0.000
 RMSDP=2.69D-05 MaxDP=2.76D-03 DE=-5.02D-02 OVMax= 6.09D-03

 Cycle   7  Pass 1  IDiag  1:
 RMSU=  1.62D-05    CP:  9.60D-01  6.46D-01  5.57D-01  3.32D-01  9.42D-01
                    CP:  6.12D-01
 E= -1034.03895680160     Delta-E=       -0.000722948158 Rises=F Damp=F
 DIIS: error= 1.89D-04 at cycle   7 NSaved=   7.
 NSaved= 7 IEnMin= 7 EnMin= -1034.03895680160     IErMin= 7 ErrMin= 1.89D-04
 ErrMax= 1.89D-04  0.00D+00 EMaxC= 1.00D-01 BMatC= 1.89D-05 BMatP= 8.72D-04
 IDIUse=3 WtCom= 9.98D-01 WtEn= 1.89D-03
 Coeff-Com: -0.109D-02 0.296D-02 0.203D-01-0.845D-02 0.589D-01 0.141D+00
 Coeff-Com:  0.786D+00
 Coeff-En:   0.000D+00 0.000D+00 0.000D+00 0.000D+00 0.000D+00 0.000D+00
 Coeff-En:   0.100D+01
 Coeff:     -0.109D-02 0.296D-02 0.202D-01-0.844D-02 0.588D-01 0.141D+00
 Coeff:      0.786D+00
 Gap=     0.086 Goal=   None    Shift=    0.000
 RMSDP=4.64D-06 MaxDP=2.90D-04 DE=-7.23D-04 OVMax= 7.84D-04

 Cycle   8  Pass 1  IDiag  1:
 RMSU=  3.45D-06    CP:  9.60D-01  6.46D-01  5.58D-01  3.32D-01  9.45D-01
                    CP:  6.51D-01  8.77D-01
 E= -1034.03897050532     Delta-E=       -0.000013703719 Rises=F Damp=F
 DIIS: error= 6.87D-05 at cycle   8 NSaved=   8.
 NSaved= 8 IEnMin= 8 EnMin= -1034.03897050532     IErMin= 8 ErrMin= 6.87D-05
 ErrMax= 6.87D-05  0.00D+00 EMaxC= 1.00D-01 BMatC= 2.14D-06 BMatP= 1.89D-05
 IDIUse=1 WtCom= 1.00D+00 WtEn= 0.00D+00
 Coeff-Com: -0.170D-03 0.355D-03 0.465D-02-0.169D-02 0.104D-01 0.624D-01
 Coeff-Com:  0.442D+00 0.482D+00
 Coeff:     -0.170D-03 0.355D-03 0.465D-02-0.169D-02 0.104D-01 0.624D-01
 Coeff:      0.442D+00 0.482D+00
 Gap=     0.086 Goal=   None    Shift=    0.000
 RMSDP=1.61D-06 MaxDP=9.36D-05 DE=-1.37D-05 OVMax= 4.68D-04

 Cycle   9  Pass 1  IDiag  1:
 RMSU=  1.26D-06    CP:  9.60D-01  6.46D-01  5.59D-01  3.32D-01  9.46D-01
                    CP:  6.51D-01  9.05D-01  7.82D-01
 E= -1034.03897233997     Delta-E=       -0.000001834654 Rises=F Damp=F
 DIIS: error= 3.17D-05 at cycle   9 NSaved=   9.
 NSaved= 9 IEnMin= 9 EnMin= -1034.03897233997     IErMin= 9 ErrMin= 3.17D-05
 ErrMax= 3.17D-05  0.00D+00 EMaxC= 1.00D-01 BMatC= 3.04D-07 BMatP= 2.14D-06
 IDIUse=1 WtCom= 1.00D+00 WtEn= 0.00D+00
 Coeff-Com:  0.565D-04-0.161D-03 0.676D-03-0.994D-04-0.466D-03 0.238D-01
 Coeff-Com:  0.191D+00 0.308D+00 0.477D+00
 Coeff:      0.565D-04-0.161D-03 0.676D-03-0.994D-04-0.466D-03 0.238D-01
 Coeff:      0.191D+00 0.308D+00 0.477D+00
 Gap=     0.086 Goal=   None    Shift=    0.000
 RMSDP=6.74D-07 MaxDP=2.63D-05 DE=-1.83D-06 OVMax= 2.02D-04

 Cycle  10  Pass 1  IDiag  1:
 RMSU=  5.01D-07    CP:  9.60D-01  6.46D-01  5.59D-01  3.32D-01  9.46D-01
                    CP:  6.54D-01  9.08D-01  7.73D-01  7.13D-01
 E= -1034.03897265004     Delta-E=       -0.000000310071 Rises=F Damp=F
 DIIS: error= 7.36D-06 at cycle  10 NSaved=  10.
 NSaved=10 IEnMin=10 EnMin= -1034.03897265004     IErMin=10 ErrMin= 7.36D-06
 ErrMax= 7.36D-06  0.00D+00 EMaxC= 1.00D-01 BMatC= 2.29D-08 BMatP= 3.04D-07
 IDIUse=1 WtCom= 1.00D+00 WtEn= 0.00D+00
 Coeff-Com:  0.538D-04-0.106D-03 0.172D-03 0.165D-04-0.863D-03 0.109D-01
 Coeff-Com:  0.894D-01 0.159D+00 0.295D+00 0.447D+00
 Coeff:      0.538D-04-0.106D-03 0.172D-03 0.165D-04-0.863D-03 0.109D-01
 Coeff:      0.894D-01 0.159D+00 0.295D+00 0.447D+00
 Gap=     0.086 Goal=   None    Shift=    0.000
 RMSDP=1.91D-07 MaxDP=1.50D-05 DE=-3.10D-07 OVMax= 4.82D-05

 Cycle  11  Pass 1  IDiag  1:
 RMSU=  1.36D-07    CP:  9.60D-01  6.46D-01  5.59D-01  3.32D-01  9.46D-01
                    CP:  6.54D-01  9.09D-01  7.73D-01  7.38D-01  7.84D-01
 E= -1034.03897267302     Delta-E=       -0.000000022978 Rises=F Damp=F
 DIIS: error= 1.51D-06 at cycle  11 NSaved=  11.
 NSaved=11 IEnMin=11 EnMin= -1034.03897267302     IErMin=11 ErrMin= 1.51D-06
 ErrMax= 1.51D-06  0.00D+00 EMaxC= 1.00D-01 BMatC= 1.30D-09 BMatP= 2.29D-08
 IDIUse=1 WtCom= 1.00D+00 WtEn= 0.00D+00
 Coeff-Com:  0.247D-04-0.393D-04 0.143D-04 0.252D-04-0.395D-03 0.252D-02
 Coeff-Com:  0.209D-01 0.407D-01 0.900D-01 0.236D+00 0.611D+00
 Coeff:      0.247D-04-0.393D-04 0.143D-04 0.252D-04-0.395D-03 0.252D-02
 Coeff:      0.209D-01 0.407D-01 0.900D-01 0.236D+00 0.611D+00
 Gap=     0.086 Goal=   None    Shift=    0.000
 RMSDP=3.96D-08 MaxDP=3.52D-06 DE=-2.30D-08 OVMax= 9.51D-06

 Cycle  12  Pass 1  IDiag  1:
 RMSU=  2.74D-08    CP:  9.60D-01  6.46D-01  5.59D-01  3.32D-01  9.46D-01
                    CP:  6.54D-01  9.09D-01  7.75D-01  7.35D-01  8.07D-01
                    CP:  8.60D-01
 E= -1034.03897267418     Delta-E=       -0.000000001165 Rises=F Damp=F
 DIIS: error= 3.80D-07 at cycle  12 NSaved=  12.
 NSaved=12 IEnMin=12 EnMin= -1034.03897267418     IErMin=12 ErrMin= 3.80D-07
 ErrMax= 3.80D-07  0.00D+00 EMaxC= 1.00D-01 BMatC= 1.25D-10 BMatP= 1.30D-09
 IDIUse=1 WtCom= 1.00D+00 WtEn= 0.00D+00
 Coeff-Com:  0.115D-04-0.207D-04-0.107D-06 0.152D-04-0.182D-03 0.923D-03
 Coeff-Com:  0.765D-02 0.153D-01 0.369D-01 0.113D+00 0.357D+00 0.470D+00
 Coeff:      0.115D-04-0.207D-04-0.107D-06 0.152D-04-0.182D-03 0.923D-03
 Coeff:      0.765D-02 0.153D-01 0.369D-01 0.113D+00 0.357D+00 0.470D+00
 Gap=     0.086 Goal=   None    Shift=    0.000
 RMSDP=1.28D-08 MaxDP=8.59D-07 DE=-1.16D-09 OVMax= 3.50D-06

 Cycle  13  Pass 1  IDiag  1:
 RMSU=  1.09D-08    CP:  9.60D-01  6.46D-01  5.59D-01  3.32D-01  9.46D-01
                    CP:  6.54D-01  9.09D-01  7.75D-01  7.37D-01  8.09D-01
                    CP:  8.49D-01  8.13D-01
 E= -1034.03897267433     Delta-E=       -0.000000000147 Rises=F Damp=F
 DIIS: error= 7.89D-08 at cycle  13 NSaved=  13.
 NSaved=13 IEnMin=13 EnMin= -1034.03897267433     IErMin=13 ErrMin= 7.89D-08
 ErrMax= 7.89D-08  0.00D+00 EMaxC= 1.00D-01 BMatC= 5.17D-12 BMatP= 1.25D-10
 IDIUse=1 WtCom= 1.00D+00 WtEn= 0.00D+00
 Coeff-Com:  0.162D-05-0.311D-05-0.226D-05 0.255D-05-0.228D-04 0.755D-04
 Coeff-Com:  0.559D-03 0.132D-02 0.454D-02 0.183D-01 0.722D-01 0.193D+00
 Coeff-Com:  0.710D+00
 Coeff:      0.162D-05-0.311D-05-0.226D-05 0.255D-05-0.228D-04 0.755D-04
 Coeff:      0.559D-03 0.132D-02 0.454D-02 0.183D-01 0.722D-01 0.193D+00
 Coeff:      0.710D+00
 Gap=     0.086 Goal=   None    Shift=    0.000
 RMSDP=3.36D-09 MaxDP=1.97D-07 DE=-1.47D-10 OVMax= 9.18D-07

 Error on total polarization charges =  0.07198
 SCF Done:  E(RPBE-PBE) =  -1034.03897267     A.U. after   13 cycles
            NFock= 13  Conv=0.34D-08     -V/T= 2.0049
 KE= 1.029004739022D+03 PE=-6.684575914359D+03 EE= 2.480681079209D+03
 SMD-CDS (non-electrostatic) energy       (kcal/mol) =      -3.73
 (included in total energy above)
 Leave Link  502 at Sat Mar 27 10:39:30 2021, MaxMem=  5242880000 cpu:      6789.7
 (Enter /opt/nce/packages/global/g09/l601.exe)
 Copying SCF densities to generalized density rwf, IOpCl= 0 IROHF=0.

 **********************************************************************

            Population analysis using the SCF density.

 **********************************************************************

 Alpha  occ. eigenvalues --  -14.02827 -14.02825  -9.93306  -9.93303  -9.93277
 Alpha  occ. eigenvalues --   -9.93277  -9.92803  -9.92802  -9.89167  -9.89167
 Alpha  occ. eigenvalues --   -9.89166  -9.89166  -9.89109  -9.89109  -9.89101
 Alpha  occ. eigenvalues --   -9.89101  -9.89029  -9.89029  -9.88010  -9.88009
 Alpha  occ. eigenvalues --   -9.88008  -9.88007  -9.87712  -9.87712  -9.87673
 Alpha  occ. eigenvalues --   -9.87673  -0.91434  -0.87802  -0.78599  -0.78482
 Alpha  occ. eigenvalues --   -0.77608  -0.75382  -0.69891  -0.68976  -0.68479
 Alpha  occ. eigenvalues --   -0.67995  -0.67993  -0.67544  -0.65399  -0.62800
 Alpha  occ. eigenvalues --   -0.58671  -0.57822  -0.55334  -0.55205  -0.55163
 Alpha  occ. eigenvalues --   -0.53691  -0.51973  -0.51233  -0.50057  -0.48147
 Alpha  occ. eigenvalues --   -0.48076  -0.44502  -0.43679  -0.43079  -0.42548
 Alpha  occ. eigenvalues --   -0.41721  -0.41338  -0.41258  -0.39635  -0.38720
 Alpha  occ. eigenvalues --   -0.38564  -0.38259  -0.37947  -0.37704  -0.37456
 Alpha  occ. eigenvalues --   -0.37204  -0.37187  -0.33822  -0.33539  -0.33039
 Alpha  occ. eigenvalues --   -0.32679  -0.32206  -0.31836  -0.31688  -0.30695
 Alpha  occ. eigenvalues --   -0.30578  -0.30514  -0.29419  -0.28935  -0.28194
 Alpha  occ. eigenvalues --   -0.24316  -0.23869  -0.23554  -0.23476  -0.23234
 Alpha  occ. eigenvalues --   -0.22820  -0.19898  -0.14256
 Alpha virt. eigenvalues --   -0.05635  -0.05376  -0.05247  -0.05130  -0.03988
 Alpha virt. eigenvalues --   -0.03088  -0.02859   0.00105   0.02785   0.03623
 Alpha virt. eigenvalues --    0.03730   0.05017   0.05398   0.05670   0.06587
 Alpha virt. eigenvalues --    0.07142   0.07255   0.08017   0.08029   0.08085
 Alpha virt. eigenvalues --    0.08789   0.09047   0.09634   0.09989   0.10055
 Alpha virt. eigenvalues --    0.10205   0.10288   0.10560   0.10667   0.11757
 Alpha virt. eigenvalues --    0.12093   0.13131   0.13398   0.15279   0.16019
 Alpha virt. eigenvalues --    0.16077   0.16401   0.16870   0.17451   0.17931
 Alpha virt. eigenvalues --    0.17989   0.18295   0.18475   0.18543   0.18895
 Alpha virt. eigenvalues --    0.18951   0.19613   0.19781   0.19969   0.20451
 Alpha virt. eigenvalues --    0.20789   0.20851   0.21103   0.21448   0.21740
 Alpha virt. eigenvalues --    0.21751   0.22067   0.22313   0.22796   0.23480
 Alpha virt. eigenvalues --    0.23715   0.24250   0.24704   0.25050   0.25283
 Alpha virt. eigenvalues --    0.25482   0.25868   0.25883   0.26354   0.27171
 Alpha virt. eigenvalues --    0.27521   0.28097   0.29205   0.29243   0.29303
 Alpha virt. eigenvalues --    0.29908   0.30418   0.30489   0.31315   0.31490
 Alpha virt. eigenvalues --    0.32081   0.32105   0.32405   0.32693   0.32840
 Alpha virt. eigenvalues --    0.33126   0.33361   0.34156   0.34414   0.34555
 Alpha virt. eigenvalues --    0.35190   0.35272   0.35554   0.35845   0.36907
 Alpha virt. eigenvalues --    0.38420   0.38743   0.38919   0.38943   0.39048
 Alpha virt. eigenvalues --    0.39303   0.39729   0.39826   0.39944   0.40337
 Alpha virt. eigenvalues --    0.41073   0.41550   0.41716   0.41740   0.42113
 Alpha virt. eigenvalues --    0.42241   0.42259   0.43301   0.43582   0.43790
 Alpha virt. eigenvalues --    0.44263   0.44583   0.44770   0.45521   0.45594
 Alpha virt. eigenvalues --    0.45724   0.46009   0.46341   0.46389   0.46549
 Alpha virt. eigenvalues --    0.46843   0.47053   0.47369   0.47712   0.48108
 Alpha virt. eigenvalues --    0.48987   0.50345   0.50547   0.51371   0.51726
 Alpha virt. eigenvalues --    0.53048   0.53112   0.53309   0.55081   0.55768
 Alpha virt. eigenvalues --    0.55908   0.57799   0.58074   0.58122   0.58684
 Alpha virt. eigenvalues --    0.59824   0.60055   0.60084   0.61133   0.61231
 Alpha virt. eigenvalues --    0.61902   0.62131   0.62278   0.62473   0.63758
 Alpha virt. eigenvalues --    0.64036   0.64270   0.64371   0.64382   0.65033
 Alpha virt. eigenvalues --    0.65175   0.65723   0.65832   0.66547   0.67282
 Alpha virt. eigenvalues --    0.67778   0.68711   0.68949   0.69685   0.69726
 Alpha virt. eigenvalues --    0.70054   0.70154   0.70241   0.70513   0.70720
 Alpha virt. eigenvalues --    0.72182   0.72247   0.72502   0.72674   0.73350
 Alpha virt. eigenvalues --    0.74193   0.74548   0.75205   0.75364   0.76232
 Alpha virt. eigenvalues --    0.77434   0.78060   0.78707   0.79476   0.79870
 Alpha virt. eigenvalues --    0.80545   0.81488   0.81513   0.81862   0.82657
 Alpha virt. eigenvalues --    0.84248   0.84312   0.84500   0.84711   0.84791
 Alpha virt. eigenvalues --    0.84805   0.84995   0.86290   0.86676   0.86704
 Alpha virt. eigenvalues --    0.87512   0.89381   0.89693   0.90104   0.90973
 Alpha virt. eigenvalues --    0.91520   0.92451   0.93692   0.95853   0.96129
 Alpha virt. eigenvalues --    0.96383   0.96833   0.97290   0.98411   0.99418
 Alpha virt. eigenvalues --    0.99544   1.01086   1.01332   1.01643   1.02089
 Alpha virt. eigenvalues --    1.02480   1.02632   1.02915   1.03386   1.03897
 Alpha virt. eigenvalues --    1.05286   1.06686   1.06726   1.07367   1.07689
 Alpha virt. eigenvalues --    1.09557   1.09632   1.10626   1.10711   1.11085
 Alpha virt. eigenvalues --    1.11094   1.11741   1.12420   1.14028   1.14783
 Alpha virt. eigenvalues --    1.15354   1.15416   1.15777   1.16857   1.17536
 Alpha virt. eigenvalues --    1.18146   1.18345   1.18964   1.19586   1.20973
 Alpha virt. eigenvalues --    1.21074   1.21107   1.21156   1.21611   1.21965
 Alpha virt. eigenvalues --    1.22748   1.23007   1.23409   1.23629   1.24986
 Alpha virt. eigenvalues --    1.26007   1.27627   1.28109   1.28347   1.28965
 Alpha virt. eigenvalues --    1.30477   1.31864   1.32389   1.33089   1.33191
 Alpha virt. eigenvalues --    1.33310   1.33621   1.33949   1.34634   1.36039
 Alpha virt. eigenvalues --    1.37804   1.38245   1.38847   1.39499   1.39903
 Alpha virt. eigenvalues --    1.40785   1.41342   1.41405   1.42454   1.43110
 Alpha virt. eigenvalues --    1.43227   1.43648   1.43765   1.43997   1.44096
 Alpha virt. eigenvalues --    1.44902   1.45622   1.46962   1.47085   1.47498
 Alpha virt. eigenvalues --    1.48982   1.49467   1.49637   1.51929   1.52186
 Alpha virt. eigenvalues --    1.52769   1.52959   1.53039   1.53858   1.54632
 Alpha virt. eigenvalues --    1.55771   1.56064   1.56767   1.57172   1.57650
 Alpha virt. eigenvalues --    1.58078   1.58084   1.58900   1.59186   1.59607
 Alpha virt. eigenvalues --    1.59685   1.60240   1.61501   1.62486   1.62945
 Alpha virt. eigenvalues --    1.63076   1.63172   1.63290   1.63706   1.64004
 Alpha virt. eigenvalues --    1.64602   1.65186   1.65926   1.66436   1.66800
 Alpha virt. eigenvalues --    1.67227   1.67531   1.68173   1.68212   1.69074
 Alpha virt. eigenvalues --    1.69620   1.70222   1.70379   1.71001   1.72718
 Alpha virt. eigenvalues --    1.73247   1.74400   1.76330   1.78523   1.78875
 Alpha virt. eigenvalues --    1.78899   1.79823   1.80609   1.81452   1.81570
 Alpha virt. eigenvalues --    1.82426   1.83124   1.85332   1.85831   1.86188
 Alpha virt. eigenvalues --    1.86273   1.86803   1.87745   1.87859   1.89456
 Alpha virt. eigenvalues --    1.92486   1.92651   1.92780   1.93808   1.94128
 Alpha virt. eigenvalues --    1.94971   1.94992   1.95620   1.97121   1.97748
 Alpha virt. eigenvalues --    1.97889   1.99682   1.99841   2.00456   2.02261
 Alpha virt. eigenvalues --    2.02614   2.04266   2.04728   2.05120   2.06802
 Alpha virt. eigenvalues --    2.07268   2.07416   2.07548   2.09300   2.09318
 Alpha virt. eigenvalues --    2.10790   2.10856   2.11468   2.11849   2.11982
 Alpha virt. eigenvalues --    2.12620   2.14071   2.15095   2.15843   2.16582
 Alpha virt. eigenvalues --    2.17128   2.17775   2.18723   2.20031   2.20238
 Alpha virt. eigenvalues --    2.20651   2.22932   2.23837   2.24579   2.25237
 Alpha virt. eigenvalues --    2.26242   2.27097   2.31954   2.32113   2.32151
 Alpha virt. eigenvalues --    2.32467   2.34403   2.36364   2.37494   2.40068
 Alpha virt. eigenvalues --    2.40117   2.40157   2.40955   2.40982   2.42397
 Alpha virt. eigenvalues --    2.44368   2.44482   2.45566   2.45919   2.47176
 Alpha virt. eigenvalues --    2.47754   2.47989   2.49717   2.50526   2.50707
 Alpha virt. eigenvalues --    2.51243   2.51789   2.51923   2.52437   2.52989
 Alpha virt. eigenvalues --    2.53700   2.54118   2.54345   2.55134   2.55504
 Alpha virt. eigenvalues --    2.55710   2.56229   2.56590   2.57542   2.57552
 Alpha virt. eigenvalues --    2.57571   2.58514   2.58990   2.59095   2.59754
 Alpha virt. eigenvalues --    2.60459   2.61361   2.62431   2.62899   2.62916
 Alpha virt. eigenvalues --    2.63192   2.63388   2.63932   2.64440   2.64559
 Alpha virt. eigenvalues --    2.64869   2.65015   2.65137   2.65330   2.65804
 Alpha virt. eigenvalues --    2.66030   2.67269   2.68010   2.68358   2.68620
 Alpha virt. eigenvalues --    2.68654   2.69306   2.69487   2.69975   2.70685
 Alpha virt. eigenvalues --    2.71199   2.71809   2.72257   2.72555   2.73135
 Alpha virt. eigenvalues --    2.75508   2.75556   2.75613   2.76388   2.76726
 Alpha virt. eigenvalues --    2.77046   2.77119   2.77538   2.78281   2.78662
 Alpha virt. eigenvalues --    2.79507   2.80039   2.80397   2.80507   2.81236
 Alpha virt. eigenvalues --    2.81622   2.82135   2.83144   2.83213   2.83336
 Alpha virt. eigenvalues --    2.83483   2.84094   2.85337   2.85414   2.85858
 Alpha virt. eigenvalues --    2.87792   2.88034   2.88102   2.90221   2.90391
 Alpha virt. eigenvalues --    2.90922   2.92736   2.94390   2.96047   2.96162
 Alpha virt. eigenvalues --    2.97004   2.97233   2.97489   2.98346   3.00565
 Alpha virt. eigenvalues --    3.00692   3.01654   3.02397   3.02892   3.03085
 Alpha virt. eigenvalues --    3.03684   3.04117   3.04695   3.04872   3.05339
 Alpha virt. eigenvalues --    3.05912   3.06654   3.06801   3.06821   3.07188
 Alpha virt. eigenvalues --    3.07358   3.07962   3.08146   3.08170   3.08436
 Alpha virt. eigenvalues --    3.09731   3.10210   3.10847   3.11193   3.11869
 Alpha virt. eigenvalues --    3.12535   3.13605   3.14001   3.14188   3.14244
 Alpha virt. eigenvalues --    3.15311   3.15367   3.16212   3.16322   3.17277
 Alpha virt. eigenvalues --    3.17522   3.17898   3.18057   3.18989   3.19374
 Alpha virt. eigenvalues --    3.20715   3.21446   3.21843   3.21866   3.22770
 Alpha virt. eigenvalues --    3.23043   3.23434   3.24663   3.24945   3.26249
 Alpha virt. eigenvalues --    3.26275   3.26515   3.27189   3.28012   3.28840
 Alpha virt. eigenvalues --    3.28922   3.29429   3.29985   3.30124   3.30419
 Alpha virt. eigenvalues --    3.30553   3.31050   3.32087   3.32239   3.32420
 Alpha virt. eigenvalues --    3.32427   3.32985   3.33237   3.33716   3.34565
 Alpha virt. eigenvalues --    3.35474   3.35595   3.35833   3.37700   3.37734
 Alpha virt. eigenvalues --    3.38380   3.38778   3.38978   3.40026   3.40569
 Alpha virt. eigenvalues --    3.41255   3.41400   3.41708   3.42416   3.42755
 Alpha virt. eigenvalues --    3.43024   3.43759   3.45009   3.45364   3.45535
 Alpha virt. eigenvalues --    3.46701   3.46716   3.47035   3.47157   3.47384
 Alpha virt. eigenvalues --    3.48391   3.48443   3.48938   3.50678   3.51228
 Alpha virt. eigenvalues --    3.53738   3.53743   3.55906   3.57809   3.57816
[...]
    21  C    0.000323   0.412758   5.055122   0.021889   0.353086  -0.082598
    22  C    0.000323   0.412796   0.021889   5.055179  -0.082586   0.353024
    23  C    0.000007   0.010744   0.353086  -0.082586   5.091510   0.032397
    24  C    0.000007   0.010784  -0.082598   0.353024   0.032397   5.091576
    25  C    0.000001  -0.126265   0.041333   0.041347   0.384135   0.384116
    26  H   -0.000000   0.016924  -0.056054  -0.003465   0.435559   0.013329
    27  H   -0.000000   0.016921  -0.003464  -0.056053   0.013328   0.435558
    28  H    0.000001  -0.072686   0.450921   0.010987  -0.056536  -0.003369
    29  H    0.000000  -0.072673   0.010988   0.450917  -0.003368  -0.056544
    30  H    0.000000  -0.003026   0.012844   0.012845  -0.056212  -0.056213
    31  H   -0.000117  -0.000009   0.000002   0.000002  -0.000000  -0.000000
    32  N   -0.000090   0.076085  -0.039530  -0.039542   0.013561   0.013564
    33  C    0.076084   0.000216  -0.000005  -0.000005  -0.000002  -0.000002
    34  C   -0.039533  -0.000005   0.000012  -0.000004   0.000001  -0.000000
    35  C   -0.039538  -0.000005  -0.000004   0.000012  -0.000000   0.000001
    36  C    0.013561  -0.000002   0.000001  -0.000000   0.000000  -0.000000
    37  H   -0.000760   0.000009  -0.000001   0.000000  -0.000000  -0.000000
    38  C    0.013565  -0.000002  -0.000000   0.000001  -0.000000   0.000000
    39  H   -0.000767   0.000009   0.000000  -0.000001  -0.000000  -0.000000
    40  C    0.001346   0.000000   0.000000   0.000000  -0.000000  -0.000000
    41  H   -0.000402  -0.000000  -0.000000   0.000000  -0.000000   0.000000
    42  H   -0.000402  -0.000000   0.000000  -0.000000   0.000000  -0.000000
    43  H   -0.000007   0.000000  -0.000000  -0.000000   0.000000   0.000000
    44  H   -0.000196   0.003757   0.002130   0.002129  -0.000215  -0.000215
              25         26         27         28         29         30
     1  C    0.000004  -0.000000  -0.000000  -0.000009  -0.000009   0.000000
     2  C   -0.000003   0.000000   0.000000  -0.000006  -0.000006  -0.000000
     3  C    0.000092  -0.000003  -0.000003   0.000600   0.000601   0.000001
     4  C    0.000699  -0.000028  -0.000028   0.003010   0.003012   0.000017
     5  C    0.000491   0.000012   0.000012   0.000738   0.000739  -0.000017
     6  C   -0.000034  -0.000003  -0.000003   0.000055   0.000054  -0.000001
     7  C    0.000698  -0.000028  -0.000028   0.003011   0.003011   0.000017
     8  C    0.000092  -0.000003  -0.000003   0.000600   0.000601   0.000001
     9  C   -0.000003   0.000000   0.000000  -0.000006  -0.000006  -0.000000
    10  H   -0.000000  -0.000000  -0.000000  -0.000001  -0.000001  -0.000000
    11  C    0.000004  -0.000000  -0.000000  -0.000009  -0.000009   0.000000
    12  C   -0.000034  -0.000003  -0.000003   0.000055   0.000055  -0.000001
    13  C    0.000491   0.000012   0.000012   0.000738   0.000740  -0.000017
    14  H   -0.000000  -0.000000  -0.000000  -0.000001  -0.000001  -0.000000
    15  H    0.001192  -0.000020  -0.000020   0.000005   0.000005   0.000017
    16  H   -0.000004   0.000000   0.000000   0.000003   0.000003  -0.000000
    17  H    0.000000   0.000000   0.000000  -0.000000  -0.000000   0.000000
    18  H   -0.000004   0.000000   0.000000   0.000003   0.000003  -0.000000
    19  N    0.000001  -0.000000  -0.000000   0.000001   0.000000   0.000000
    20  C   -0.126265   0.016924   0.016921  -0.072686  -0.072673  -0.003026
    21  C    0.041333  -0.056054  -0.003464   0.450921   0.010988   0.012844
    22  C    0.041347  -0.003465  -0.056053   0.010987   0.450917   0.012845
    23  C    0.384135   0.435559   0.013328  -0.056536  -0.003368  -0.056212
    24  C    0.384116   0.013329   0.435558  -0.003369  -0.056544  -0.056213
    25  C    5.041678  -0.060979  -0.060974   0.013514   0.013513   0.433703
    26  H   -0.060979   0.527531  -0.000276  -0.009311   0.000055  -0.008340
    27  H   -0.060974  -0.000276   0.527528   0.000055  -0.009310  -0.008340
    28  H    0.013514  -0.009311   0.000055   0.517381  -0.000246  -0.000200
    29  H    0.013513   0.000055  -0.009310  -0.000246   0.517380  -0.000200
    30  H    0.433703  -0.008340  -0.008340  -0.000200  -0.000200   0.525915
    31  H    0.000000   0.000000   0.000000  -0.000000  -0.000000   0.000000
    32  N    0.001346  -0.000402  -0.000402  -0.000759  -0.000768  -0.000007
    33  C    0.000000  -0.000000  -0.000000   0.000009   0.000009   0.000000
    34  C    0.000000  -0.000000   0.000000  -0.000001   0.000000  -0.000000
    35  C    0.000000   0.000000  -0.000000   0.000000  -0.000001  -0.000000
    36  C   -0.000000  -0.000000   0.000000  -0.000000  -0.000000   0.000000
    37  H    0.000000   0.000000   0.000000   0.000002   0.000000  -0.000000
    38  C   -0.000000   0.000000  -0.000000  -0.000000  -0.000000   0.000000
    39  H    0.000000   0.000000   0.000000   0.000000   0.000002  -0.000000
    40  C    0.000000   0.000000   0.000000   0.000000   0.000000  -0.000000
    41  H    0.000000   0.000000  -0.000000   0.000000   0.000000   0.000000
    42  H    0.000000  -0.000000   0.000000   0.000000   0.000000   0.000000
    43  H   -0.000000   0.000000   0.000000  -0.000000  -0.000000  -0.000000
    44  H    0.001192  -0.000020  -0.000020   0.000005   0.000005   0.000017
              31         32         33         34         35         36
     1  C    0.452085   0.000622  -0.008680   0.000174   0.000176   0.000176
     2  C   -0.072225   0.002452  -0.027453  -0.000552  -0.000554  -0.001963
     3  C    0.018445  -0.052297  -0.089013   0.007536   0.007555  -0.002712
     4  C   -0.005458   0.420975   0.018947   0.002513   0.002516  -0.000479
     5  C    0.018041  -0.093654  -0.001193  -0.000206  -0.000207   0.000009
     6  C   -0.067255   0.007364   0.000642   0.000036   0.000036   0.000002
     7  C   -0.000007   0.420975   0.018948   0.002515   0.002514  -0.000479
     8  C    0.000035  -0.052297  -0.089014   0.007553   0.007538  -0.002715
     9  C   -0.000002   0.002451  -0.027454  -0.000554  -0.000553  -0.001965
    10  H   -0.000000  -0.000196   0.003757   0.002128   0.002131  -0.000214
    11  C    0.000000   0.000622  -0.008680   0.000175   0.000175   0.000176
    12  C   -0.000000   0.007364   0.000642   0.000036   0.000036   0.000002
    13  C   -0.000000  -0.093653  -0.001193  -0.000206  -0.000206   0.000009
    14  H   -0.008459  -0.000196   0.003757   0.002133   0.002127  -0.000216
    15  H   -0.000223  -0.010277   0.000016  -0.000002  -0.000002   0.000000
    16  H   -0.009246  -0.000117  -0.000009   0.000002   0.000002  -0.000000
    17  H   -0.000000   0.000022   0.000036  -0.000011  -0.000011   0.000004
    18  H    0.000000  -0.000117  -0.000009   0.000002   0.000002  -0.000000
    19  N   -0.000117  -0.000090   0.076084  -0.039533  -0.039538   0.013561
    20  C   -0.000009   0.076085   0.000216  -0.000005  -0.000005  -0.000002
    21  C    0.000002  -0.039530  -0.000005   0.000012  -0.000004   0.000001
    22  C    0.000002  -0.039542  -0.000005  -0.000004   0.000012  -0.000000
    23  C   -0.000000   0.013561  -0.000002   0.000001  -0.000000   0.000000
    24  C   -0.000000   0.013564  -0.000002  -0.000000   0.000001  -0.000000
    25  C    0.000000   0.001346   0.000000   0.000000   0.000000  -0.000000
    26  H    0.000000  -0.000402  -0.000000  -0.000000   0.000000  -0.000000
    27  H    0.000000  -0.000402  -0.000000   0.000000  -0.000000   0.000000
    28  H   -0.000000  -0.000759   0.000009  -0.000001   0.000000  -0.000000
    29  H   -0.000000  -0.000768   0.000009   0.000000  -0.000001  -0.000000
    30  H    0.000000  -0.000007   0.000000  -0.000000  -0.000000   0.000000
    31  H    0.538129   0.000022   0.000036  -0.000011  -0.000011   0.000004
    32  N    0.000022   6.246167  -0.002791   0.000323   0.000324   0.000007
    33  C    0.000036  -0.002791   5.471081   0.412793   0.412760   0.010746
    34  C   -0.000011   0.000323   0.412793   5.055101   0.021889   0.353101
    35  C   -0.000011   0.000324   0.412760   0.021889   5.055200  -0.082589
    36  C    0.000004   0.000007   0.010746   0.353101  -0.082589   5.091500
    37  H    0.000003   0.000001  -0.072684   0.450920   0.010988  -0.056537
    38  C    0.000004   0.000007   0.010782  -0.082595   0.353010   0.032396
    39  H    0.000003   0.000000  -0.072675   0.010987   0.450919  -0.003367
    40  C   -0.000004   0.000001  -0.126265   0.041328   0.041353   0.384137
    41  H    0.000000  -0.000000   0.016924  -0.056055  -0.003465   0.435560
    42  H    0.000000  -0.000000   0.016921  -0.003463  -0.056053   0.013328
    43  H   -0.000000   0.000000  -0.003026   0.012844   0.012845  -0.056212
    44  H   -0.000000  -0.010277   0.000016  -0.000002  -0.000002   0.000000
              37         38         39         40         41         42
     1  C    0.000054   0.000176   0.000055  -0.000034  -0.000003  -0.000003
     2  C    0.000737  -0.001967   0.000741   0.000491   0.000013   0.000012
     3  C    0.003012  -0.002714   0.003010   0.000698  -0.000028  -0.000028
     4  C    0.000601  -0.000479   0.000601   0.000092  -0.000003  -0.000003
     5  C   -0.000007   0.000009  -0.000006  -0.000003   0.000000   0.000000
     6  C   -0.000009   0.000002  -0.000009   0.000004  -0.000000  -0.000000
     7  C    0.000600  -0.000479   0.000601   0.000092  -0.000003  -0.000003
     8  C    0.003009  -0.002711   0.003013   0.000699  -0.000028  -0.000028
     9  C    0.000739  -0.001965   0.000739   0.000491   0.000012   0.000012
    10  H    0.000004  -0.000216   0.000005   0.001192  -0.000020  -0.000020
    11  C    0.000055   0.000176   0.000054  -0.000034  -0.000003  -0.000003
    12  C   -0.000009   0.000002  -0.000009   0.000004  -0.000000  -0.000000
    13  C   -0.000006   0.000009  -0.000006  -0.000003   0.000000   0.000000
    14  H    0.000005  -0.000214   0.000004   0.001192  -0.000020  -0.000020
    15  H   -0.000001   0.000000  -0.000001  -0.000000  -0.000000  -0.000000
    16  H   -0.000000  -0.000000  -0.000000   0.000000   0.000000   0.000000
    17  H    0.000003   0.000004   0.000003  -0.000004   0.000000   0.000000
    18  H   -0.000000  -0.000000  -0.000000   0.000000   0.000000   0.000000
    19  N   -0.000760   0.013565  -0.000767   0.001346  -0.000402  -0.000402
    20  C    0.000009  -0.000002   0.000009   0.000000  -0.000000  -0.000000
    21  C   -0.000001  -0.000000   0.000000   0.000000  -0.000000   0.000000
    22  C    0.000000   0.000001  -0.000001   0.000000   0.000000  -0.000000
    23  C   -0.000000  -0.000000  -0.000000  -0.000000  -0.000000   0.000000
    24  C   -0.000000   0.000000  -0.000000  -0.000000   0.000000  -0.000000
    25  C    0.000000  -0.000000   0.000000   0.000000   0.000000   0.000000
    26  H    0.000000   0.000000   0.000000   0.000000   0.000000  -0.000000
    27  H    0.000000  -0.000000   0.000000   0.000000  -0.000000   0.000000
    28  H    0.000002  -0.000000   0.000000   0.000000   0.000000   0.000000
    29  H    0.000000  -0.000000   0.000002   0.000000   0.000000   0.000000
    30  H   -0.000000   0.000000  -0.000000  -0.000000   0.000000   0.000000
    31  H    0.000003   0.000004   0.000003  -0.000004   0.000000   0.000000
    32  N    0.000001   0.000007   0.000000   0.000001  -0.000000  -0.000000
    33  C   -0.072684   0.010782  -0.072675  -0.126265   0.016924   0.016921
    34  C    0.450920  -0.082595   0.010987   0.041328  -0.056055  -0.003463
    35  C    0.010988   0.353010   0.450919   0.041353  -0.003465  -0.056053
    36  C   -0.056537   0.032396  -0.003367   0.384137   0.435560   0.013328
    37  H    0.517381  -0.003369  -0.000246   0.013514  -0.009311   0.000055
    38  C   -0.003369   5.091585  -0.056543   0.384114   0.013329   0.435557
    39  H   -0.000246  -0.056543   0.517380   0.013513   0.000055  -0.009310
    40  C    0.013514   0.384114   0.013513   5.041678  -0.060978  -0.060975
    41  H   -0.009311   0.013329   0.000055  -0.060978   0.527530  -0.000276
    42  H    0.000055   0.435557  -0.009310  -0.060975  -0.000276   0.527529
    43  H   -0.000200  -0.056213  -0.000200   0.433703  -0.008340  -0.008339
    44  H   -0.000001   0.000000  -0.000001  -0.000000  -0.000000  -0.000000
              43         44
     1  C   -0.000001   0.000002
     2  C   -0.000017   0.000000
     3  C    0.000017   0.000205
     4  C    0.000001  -0.001602
     5  C   -0.000000   0.000082
     6  C    0.000000  -0.000003
     7  C    0.000001  -0.063040
     8  C    0.000017   0.014790
     9  C   -0.000017  -0.003092
    10  H    0.000017   0.000023
    11  C   -0.000001   0.012025
    12  C    0.000000  -0.049871
    13  C   -0.000000   0.440771
    14  H    0.000017   0.000000
    15  H   -0.000000   0.000028
    16  H    0.000000  -0.000000
    17  H   -0.000000  -0.000223
    18  H    0.000000  -0.008459
    19  N   -0.000007  -0.000196
    20  C    0.000000   0.003757
    21  C   -0.000000   0.002130
    22  C   -0.000000   0.002129
    23  C    0.000000  -0.000215
    24  C    0.000000  -0.000215
    25  C   -0.000000   0.001192
    26  H    0.000000  -0.000020
    27  H    0.000000  -0.000020
    28  H   -0.000000   0.000005
    29  H   -0.000000   0.000005
    30  H   -0.000000   0.000017
    31  H   -0.000000  -0.000000
    32  N    0.000000  -0.010277
    33  C   -0.003026   0.000016
    34  C    0.012844  -0.000002
    35  C    0.012845  -0.000002
    36  C   -0.056212   0.000000
    37  H   -0.000200  -0.000001
    38  C   -0.056213   0.000000
    39  H   -0.000200  -0.000001
    40  C    0.433703  -0.000000
    41  H   -0.008340  -0.000000
    42  H   -0.008339  -0.000000
    43  H    0.525915  -0.000000
    44  H   -0.000000   0.511211
 Mulliken charges:
               1
     1  C   -0.200988
     2  C   -0.209291
     3  C    0.027417
     4  C    0.027421
     5  C   -0.209290
     6  C   -0.200988
     7  C    0.027417
     8  C    0.027421
     9  C   -0.209291
    10  H    0.148852
    11  C   -0.200988
    12  C   -0.200988
    13  C   -0.209290
    14  H    0.148851
    15  H    0.148852
    16  H    0.136217
    17  H    0.136217
    18  H    0.136217
    19  N    0.183116
    20  C    0.055030
    21  C   -0.200884
    22  C   -0.200925
    23  C   -0.125267
    24  C   -0.125261
    25  C   -0.111342
    26  H    0.145511
    27  H    0.145512
    28  H    0.141447
    29  H    0.141449
    30  H    0.147196
    31  H    0.136217
    32  N    0.183116
    33  C    0.055031
    34  C   -0.200902
    35  C   -0.200908
    36  C   -0.125265
    37  H    0.141448
    38  C   -0.125262
    39  H    0.141447
    40  C   -0.111343
    41  H    0.145511
    42  H    0.145512
    43  H    0.147196
    44  H    0.148851
 Sum of Mulliken charges =  -0.00000
 Mulliken charges with hydrogens summed into heavy atoms:
               1
     1  C   -0.064771
     2  C   -0.060440
     3  C    0.027417
     4  C    0.027421
     5  C   -0.060439
     6  C   -0.064771
     7  C    0.027417
     8  C    0.027421
     9  C   -0.060439
    11  C   -0.064770
    12  C   -0.064771
    13  C   -0.060439
    19  N    0.183116
    20  C    0.055030
    21  C   -0.059437
    22  C   -0.059477
    23  C    0.020244
    24  C    0.020251
    25  C    0.035854
    32  N    0.183116
    33  C    0.055031
    34  C   -0.059454
    35  C   -0.059460
    36  C    0.020246
    38  C    0.020250
    40  C    0.035853
 Electronic spatial extent (au):  <R**2>=           9036.6604
 Charge=             -0.0000 electrons
 Dipole moment (field-independent basis, Debye):
    X=             -0.0000    Y=             -0.0000    Z=             -0.0001  Tot=              0.0001
 Quadrupole moment (field-independent basis, Debye-Ang):
   XX=           -111.3395   YY=           -156.9441   ZZ=           -144.4893
   XY=             -0.0000   XZ=             -0.0004   YZ=              0.0024
 Traceless Quadrupole moment (field-independent basis, Debye-Ang):
   XX=             26.2515   YY=            -19.3531   ZZ=             -6.8983
   XY=             -0.0000   XZ=             -0.0004   YZ=              0.0024
 Octapole moment (field-independent basis, Debye-Ang**2):
  XXX=             -0.0002  YYY=             -0.0000  ZZZ=              0.0040  XYY=              0.0000
  XXY=             -0.0001  XXZ=              0.0007  XZZ=             -0.0000  YZZ=             -0.0000
  YYZ=             -0.0033  XYZ=              0.0120
 Hexadecapole moment (field-independent basis, Debye-Ang**3):
 XXXX=          -7231.2894 YYYY=          -3051.3684 ZZZZ=           -616.5968 XXXY=             -0.0011
 XXXZ=             -0.0137 YYYX=              0.0007 YYYZ=              0.0225 ZZZX=             -0.0100
 ZZZY=              0.0888 XXYY=          -2104.4752 XXZZ=          -1368.7436 YYZZ=           -752.6094
 XXYZ=              0.0718 YYXZ=             -0.0122 ZZXY=             -0.0005
 N-N= 2.141366778313D+03 E-N=-6.685628623121D+03  KE= 1.029025588438D+03
 Leave Link  601 at Sat Mar 27 15:42:29 2021, MaxMem=  5242880000 cpu:         5.0
 (Enter /opt/nce/packages/global/g09/l9999.exe)
 1\1\GINC-CN013\SP\RPBEPBE TD-FC\Gen\C24H18N2\PNG4RJV\27-Mar-2021\0\\#p
  PBEPBE chkbasis geom=allcheck Guess=Read int=ultrafine scrf=(SMD,solv
 ent=n,n-DiMethylFormamide) td=(NStates=30) EmpiricalDispersion=GD3BJ\\
 Title\\0,1\C,0,0.6946188592,3.6642489868,-0.0001029959\C,0,1.390298040
 3,2.4456725011,-0.0000794707\C,0,0.709606132,1.2237621504,-0.000048521
 3\C,0,-0.7096315127,1.2237467089,-0.0000790788\C,0,-1.390353868,2.4456
 390113,-0.0000833651\C,0,-0.6947052362,3.6642323444,-0.0000963093\C,0,
 -0.7096057387,-1.2237655597,0.000038118\C,0,0.7096315818,-1.2237505226
 ,0.0001073469\C,0,1.3903536956,-2.4456427326,0.0003203928\H,0,2.480072
 4476,-2.4447669581,0.0004077534\C,0,0.6947045669,-3.664236483,0.000406
 4705\C,0,-0.6946196484,-3.6642526082,0.0002945983\C,0,-1.3902979256,-2
 .4456753896,0.0001216381\H,0,2.4800162053,2.4448248067,-0.0000847896\H
 ,0,-2.4800725264,2.4447633479,-0.000093171\H,0,-1.2548780846,4.6005235
 513,-0.0001041827\H,0,1.2548770961,-4.6005278074,0.0005618096\H,0,-1.2
 547700047,-4.6005571574,0.0003462469\N,0,1.3963652566,0.0000122328,-0.
 0000351237\C,0,-2.8300206979,-0.0000275465,-0.0000686142\C,0,-3.523524
 3152,-0.0000145513,-1.2134681976\C,0,-3.5234152207,-0.0000485392,1.213
 3960762\C,0,-4.9200234557,-0.0000245186,-1.2109810888\C,0,-4.919912949
 7,-0.0000611991,1.2110351069\C,0,-5.6184074816,-0.0000489964,0.0000580
 353\H,0,-5.4638573257,-0.0000154739,-2.1572686206\H,0,-5.4636616851,-0
 .0000784298,2.1573716878\H,0,-2.9631547557,0.0000015473,-2.150248519\H
 ,0,-2.9629640062,-0.0000562574,2.1501276427\H,0,-6.7099252527,-0.00005
 72582,0.0001079234\H,0,1.2547688924,4.6005546273,-0.0001303261\N,0,-1.
 3963649686,-0.0000164042,-0.0001399834\C,0,2.8300205942,0.0000244835,-
 0.0000441646\C,0,3.5234524315,-0.0003459627,-1.2134858361\C,0,3.523485
 91,0.0004041107,1.2133786315\C,0,4.919950901,-0.0003373633,-1.21108116
 49\H,0,2.9630278163,-0.0006329321,-2.1502325851\C,0,4.9199844376,0.000
 4210426,1.2109345989\H,0,2.9630898652,0.0006828854,2.1501424634\C,0,5.
 6184074845,0.0000485445,-0.0000828426\H,0,5.4637293075,-0.0006244308,-
 2.1574006368\H,0,5.4637883911,0.000717608,2.1572393786\H,0,6.709924564
 6,0.0000573116,-0.0000985901\H,0,-2.4800168168,-2.4448267201,0.0000462
 586\\Version=ES64L-G09RevE.01\State=1-A\HF=-1034.0391135\RMSD=4.549e-0
 9\PG=C01 [X(C24H18N2)]\\@


 CHARLIE BROWN -- WHICH DO YOU THINK LASTS LONGER IN LIFE, THE GOOD THINGS 
                  OR THE BAD THINGS?
 LINUS --         GOOD THINGS LAST EIGHT SECONDS ..
                  BAD THINGS LAST THREE WEEKS
 CHARLIE BROWN -- WHAT ABOUT IN BETWEEN?
 SNOOPY --        IN BETWEEN YOU SHOULD TAKE A NAP ...
 Job cpu time:       0 days 18 hours 46 minutes 17.3 seconds.
 File lengths (MBytes):  RWF=   3084 Int=      0 D2E=      0 Chk=    745 Scr=      1
 Normal termination of Gaussian 09 at Sat Mar 27 15:42:30 2021.
