 Entering Gaussian System, Link 0=g09
 Input=/home/png4rjv/fotokatalizis/benchmark/OPCs/PA_1_TPSS_def2TZVP.gjf
 Output=/home/png4rjv/fotokatalizis/benchmark/OPCs/PA_1_TPSS_def2TZVP.log
 Initial command:
 /opt/nce/packages/global/g09/l1.exe "/home/png4rjv/fotokatalizis/benchmark/OPCs/PA_1_TPSS_def2TZVP/Gau-32143.inp" -scrdir="/home/png4rjv/fotokatalizis/benchmark/OPCs/PA_1_TPSS_def2TZVP/"
 Default is to use a total of  12 processors:
                               12 via shared-memory
                                1 via Linda
 Entering Link 1 = /opt/nce/packages/global/g09/l1.exe PID=     32144.
  
 Copyright (c) 1988,1990,1992,1993,1995,1998,2003,2009,2015,
            Gaussian, Inc.  All Rights Reserved.
  
 This is part of the Gaussian(R) 09 program.  It is based on
 the Gaussian(R) 03 system (copyright 2003, Gaussian, Inc.),
 the Gaussian(R) 98 system (copyright 1998, Gaussian, Inc.),
 the Gaussian(R) 94 system (copyright 1995, Gaussian, Inc.),
 the Gaussian 92(TM) system (copyright 1992, Gaussian, Inc.),
 the Gaussian 90(TM) system (copyright 1990, Gaussian, Inc.),
 the Gaussian 88(TM) system (copyright 1988, Gaussian, Inc.),
 the Gaussian 86(TM) system (copyright 1986, Carnegie Mellon
 University), and the Gaussian 82(TM) system (copyright 1983,
 Carnegie Mellon University). Gaussian is a federally registered
 trademark of Gaussian, Inc.
  
 This software contains proprietary and confidential information,
 including trade secrets, belonging to Gaussian, Inc.
  
 This software is provided under written license and may be
 used, copied, transmitted, or stored only in accord with that
 written license.
  
 The following legend is applicable only to US Government
 contracts under FAR:
  
                    RESTRICTED RIGHTS LEGEND
  
 Use, reproduction and disclosure by the US Government is
 subject to restrictions as set forth in subparagraphs (a)
 and (c) of the Commercial Computer Software - Restricted
 Rights clause in FAR 52.227-19.
  
 Gaussian, Inc.
 340 Quinnipiac St., Bldg. 40, Wallingford CT 06492
  
  
 ---------------------------------------------------------------
 Warning -- This program may not be used in any manner that
 competes with the business of Gaussian, Inc. or will provide
 assistance to any competitor of Gaussian, Inc.  The licensee
 of this program is prohibited from giving any competitor of
 Gaussian, Inc. access to this program.  By using this program,
 the user acknowledges that Gaussian, Inc. is engaged in the
 business of creating and licensing software in the field of
 computational chemistry and represents and warrants to the
 licensee that it is not a competitor of Gaussian, Inc. and that
 it will not use this program in any manner prohibited above.
 ---------------------------------------------------------------
  

 Cite this work as:
 Gaussian 09, Revision E.01,
 M. J. Frisch, G. W. Trucks, H. B. Schlegel, G. E. Scuseria, 
 M. A. Robb, J. R. Cheeseman, G. Scalmani, V. Barone, B. Mennucci, 
 G. A. Petersson, H. Nakatsuji, M. Caricato, X. Li, H. P. Hratchian, 
 A. F. Izmaylov, J. Bloino, G. Zheng, J. L. Sonnenberg, M. Hada, 
 M. Ehara, K. Toyota, R. Fukuda, J. Hasegawa, M. Ishida, T. Nakajima, 
 Y. Honda, O. Kitao, H. Nakai, T. Vreven, J. A. Montgomery, Jr., 
 J. E. Peralta, F. Ogliaro, M. Bearpark, J. J. Heyd, E. Brothers, 
 K. N. Kudin, V. N. Staroverov, T. Keith, R. Kobayashi, J. Normand, 
 K. Raghavachari, A. Rendell, J. C. Burant, S. S. Iyengar, J. Tomasi, 
 M. Cossi, N. Rega, J. M. Millam, M. Klene, J. E. Knox, J. B. Cross, 
 V. Bakken, C. Adamo, J. Jaramillo, R. Gomperts, R. E. Stratmann, 
 O. Yazyev, A. J. Austin, R. Cammi, C. Pomelli, J. W. Ochterski, 
 R. L. Martin, K. Morokuma, V. G. Zakrzewski, G. A. Voth, 
 P. Salvador, J. J. Dannenberg, S. Dapprich, A. D. Daniels, 
 O. Farkas, J. B. Foresman, J. V. Ortiz, J. Cioslowski, 
 and D. J. Fox, Gaussian, Inc., Wallingford CT, 2013.
 
 ******************************************
 Gaussian 09:  ES64L-G09RevE.01 30-Nov-2015
                30-Mar-2021 
 ******************************************
 %chk=cp.chk
 Default route:  MaxDisk=500GB
 ----------------------------------------------------------------------
 #p TPSSTPSS/def2TZVP opt freq=noraman nosymm int=ultrafine scrf=(SMD,s
 olvent=n,n-DiMethylFormamide)
 ----------------------------------------------------------------------
 1/14=-1,18=20,19=15,26=4,38=1/1,3;
 2/9=110,12=2,15=1,17=6,18=5,40=1/2;
 3/5=44,7=101,11=2,16=1,25=1,30=1,70=32201,71=1,72=148,74=2523,75=-5/1,2,3;
 4//1;
 5/5=2,38=5,53=148/2;
 6/7=2,8=2,9=2,10=2,28=1/1;
 7/30=1/1,2,3,16;
 1/14=-1,18=20,19=15,26=4/3(2);
 2/9=110,15=1/2;
 99//99;
 2/9=110,15=1/2;
 3/5=44,7=101,11=2,16=1,25=1,30=1,70=32205,71=1,72=148,74=2523,75=-5/1,2,3;
 4/5=5,16=3,69=1/1;
 5/5=2,38=5,53=148/2;
 7/30=1/1,2,3,16;
 1/14=-1,18=20,19=15,26=4/3(-5);
 2/9=110,15=1/2;
 6/7=2,8=2,9=2,10=2,19=2,28=1/1;
 99/9=1/99;
 Leave Link    1 at Tue Mar 30 20:05:52 2021, MaxMem=           0 cpu:         1.5
 (Enter /opt/nce/packages/global/g09/l101.exe)
 -----
 Title
 -----
 Symbolic Z-matrix:
 Charge =  0 Multiplicity = 1
 C                     0.69423   3.66641  -0.00009 
 C                     1.3899    2.44889  -0.00011 
 C                     0.70938   1.2276   -0.00008 
 C                    -0.70942   1.22758  -0.00013 
 C                    -1.39001   2.44882  -0.00007 
 C                    -0.6944    3.66638  -0.00004 
 C                    -0.70939  -1.22758  -0.00012 
 C                     0.70943  -1.22756   0.00005 
 C                     1.38998  -2.44883   0.00035 
 H                     2.47923  -2.44826   0.00057 
 C                     0.69437  -3.66637   0.00037 
 C                    -0.69426  -3.66639   0.0001 
 C                    -1.38992  -2.44886  -0.00013 
 H                     2.47915   2.44839  -0.00015 
 H                    -2.47925   2.44823  -0.00007 
 H                    -1.25372   4.60427   0.00001 
 H                     1.25368  -4.60427   0.00059 
 H                    -1.25356  -4.6043    0.00007 
 N                     1.39718   0.00003  -0.00006 
 C                    -2.82436  -0.00003  -0.00012 
 C                    -3.52409   0.00009  -1.21178 
 C                    -3.52382  -0.00014   1.2117 
 C                    -4.92081   0.00009  -1.21064 
 C                    -4.92054  -0.00016   1.21087 
 C                    -5.62009  -0.00005   0.0002 
 H                    -5.46522   0.00018  -2.15786 
 H                    -5.46474  -0.00025   2.15821 
 H                    -2.96099   0.00019  -2.14697 
 H                    -2.96051  -0.00022   2.14676 
 H                    -6.71259  -0.00006   0.00032 
 H                     1.25351   4.60432  -0.00011 
 N                    -1.39718  -0.00002  -0.00028 
 C                     2.82437   0.00003  -0.00004 
 C                     3.52399  -0.00065  -1.21176 
 C                     3.52396   0.00067   1.21171 
 C                     4.92071  -0.00067  -1.21076 
 H                     2.96079  -0.00117  -2.1469 
 C                     4.92068   0.00069   1.21074 
 H                     2.96075   0.00117   2.14684 
 C                     5.6201    0.00002   0. 
 H                     5.46503  -0.0012   -2.15803 
 H                     5.46497   0.00122   2.15803 
 H                     6.71262   0.00003   0.00001 
 H                    -2.47916  -2.44834  -0.00031 
 
 NAtoms=     44 NQM=       44 NQMF=       0 NMMI=      0 NMMIF=      0
                NMic=       0 NMicF=      0.
                    Isotopes and Nuclear Properties:
 (Nuclear quadrupole moments (NQMom) in fm**2, nuclear magnetic moments (NMagM)
  in nuclear magnetons)

  Atom         1           2           3           4           5           6           7           8           9          10
 IAtWgt=          12          12          12          12          12          12          12          12          12           1
 AtmWgt=  12.0000000  12.0000000  12.0000000  12.0000000  12.0000000  12.0000000  12.0000000  12.0000000  12.0000000   1.0078250
 NucSpn=           0           0           0           0           0           0           0           0           0           1
 AtZEff=   0.0000000   0.0000000   0.0000000   0.0000000   0.0000000   0.0000000   0.0000000   0.0000000   0.0000000   0.0000000
 NQMom=    0.0000000   0.0000000   0.0000000   0.0000000   0.0000000   0.0000000   0.0000000   0.0000000   0.0000000   0.0000000
 NMagM=    0.0000000   0.0000000   0.0000000   0.0000000   0.0000000   0.0000000   0.0000000   0.0000000   0.0000000   2.7928460
 AtZNuc=   6.0000000   6.0000000   6.0000000   6.0000000   6.0000000   6.0000000   6.0000000   6.0000000   6.0000000   1.0000000

  Atom        11          12          13          14          15          16          17          18          19          20
 IAtWgt=          12          12          12           1           1           1           1           1          14          12
 AtmWgt=  12.0000000  12.0000000  12.0000000   1.0078250   1.0078250   1.0078250   1.0078250   1.0078250  14.0030740  12.0000000
 NucSpn=           0           0           0           1           1           1           1           1           2           0
 AtZEff=   0.0000000   0.0000000   0.0000000   0.0000000   0.0000000   0.0000000   0.0000000   0.0000000   0.0000000   0.0000000
 NQMom=    0.0000000   0.0000000   0.0000000   0.0000000   0.0000000   0.0000000   0.0000000   0.0000000   2.0440000   0.0000000
 NMagM=    0.0000000   0.0000000   0.0000000   2.7928460   2.7928460   2.7928460   2.7928460   2.7928460   0.4037610   0.0000000
 AtZNuc=   6.0000000   6.0000000   6.0000000   1.0000000   1.0000000   1.0000000   1.0000000   1.0000000   7.0000000   6.0000000

  Atom        21          22          23          24          25          26          27          28          29          30
 IAtWgt=          12          12          12          12          12           1           1           1           1           1
 AtmWgt=  12.0000000  12.0000000  12.0000000  12.0000000  12.0000000   1.0078250   1.0078250   1.0078250   1.0078250   1.0078250
 NucSpn=           0           0           0           0           0           1           1           1           1           1
 AtZEff=   0.0000000   0.0000000   0.0000000   0.0000000   0.0000000   0.0000000   0.0000000   0.0000000   0.0000000   0.0000000
 NQMom=    0.0000000   0.0000000   0.0000000   0.0000000   0.0000000   0.0000000   0.0000000   0.0000000   0.0000000   0.0000000
 NMagM=    0.0000000   0.0000000   0.0000000   0.0000000   0.0000000   2.7928460   2.7928460   2.7928460   2.7928460   2.7928460
 AtZNuc=   6.0000000   6.0000000   6.0000000   6.0000000   6.0000000   1.0000000   1.0000000   1.0000000   1.0000000   1.0000000

  Atom        31          32          33          34          35          36          37          38          39          40
 IAtWgt=           1          14          12          12          12          12           1          12           1          12
 AtmWgt=   1.0078250  14.0030740  12.0000000  12.0000000  12.0000000  12.0000000   1.0078250  12.0000000   1.0078250  12.0000000
 NucSpn=           1           2           0           0           0           0           1           0           1           0
 AtZEff=   0.0000000   0.0000000   0.0000000   0.0000000   0.0000000   0.0000000   0.0000000   0.0000000   0.0000000   0.0000000
 NQMom=    0.0000000   2.0440000   0.0000000   0.0000000   0.0000000   0.0000000   0.0000000   0.0000000   0.0000000   0.0000000
 NMagM=    2.7928460   0.4037610   0.0000000   0.0000000   0.0000000   0.0000000   2.7928460   0.0000000   2.7928460   0.0000000
 AtZNuc=   1.0000000   7.0000000   6.0000000   6.0000000   6.0000000   6.0000000   1.0000000   6.0000000   1.0000000   6.0000000

  Atom        41          42          43          44
 IAtWgt=           1           1           1           1
 AtmWgt=   1.0078250   1.0078250   1.0078250   1.0078250
 NucSpn=           1           1           1           1
 AtZEff=   0.0000000   0.0000000   0.0000000   0.0000000
 NQMom=    0.0000000   0.0000000   0.0000000   0.0000000
 NMagM=    2.7928460   2.7928460   2.7928460   2.7928460
 AtZNuc=   1.0000000   1.0000000   1.0000000   1.0000000
 Leave Link  101 at Tue Mar 30 20:05:53 2021, MaxMem=  5242880000 cpu:         4.5
 (Enter /opt/nce/packages/global/g09/l103.exe)

 GradGradGradGradGradGradGradGradGradGradGradGradGradGradGradGradGradGrad
 Berny optimization.
 Initialization pass.
                           ----------------------------
                           !    Initial Parameters    !
                           ! (Angstroms and Degrees)  !
 --------------------------                            --------------------------
 ! Name  Definition              Value          Derivative Info.                !
 --------------------------------------------------------------------------------
 ! R1    R(1,2)                  1.4023         estimate D2E/DX2                !
 ! R2    R(1,6)                  1.3886         estimate D2E/DX2                !
 ! R3    R(1,31)                 1.092          estimate D2E/DX2                !
 ! R4    R(2,3)                  1.3981         estimate D2E/DX2                !
 ! R5    R(2,14)                 1.0892         estimate D2E/DX2                !
 ! R6    R(3,4)                  1.4188         estimate D2E/DX2                !
 ! R7    R(3,19)                 1.4071         estimate D2E/DX2                !
 ! R8    R(4,5)                  1.3981         estimate D2E/DX2                !
 ! R9    R(4,32)                 1.4071         estimate D2E/DX2                !
 ! R10   R(5,6)                  1.4023         estimate D2E/DX2                !
 ! R11   R(5,15)                 1.0892         estimate D2E/DX2                !
 ! R12   R(6,16)                 1.092          estimate D2E/DX2                !
 ! R13   R(7,8)                  1.4188         estimate D2E/DX2                !
 ! R14   R(7,13)                 1.3981         estimate D2E/DX2                !
 ! R15   R(7,32)                 1.4071         estimate D2E/DX2                !
 ! R16   R(8,9)                  1.3981         estimate D2E/DX2                !
 ! R17   R(8,19)                 1.4071         estimate D2E/DX2                !
 ! R18   R(9,10)                 1.0892         estimate D2E/DX2                !
 ! R19   R(9,11)                 1.4022         estimate D2E/DX2                !
 ! R20   R(11,12)                1.3886         estimate D2E/DX2                !
 ! R21   R(11,17)                1.092          estimate D2E/DX2                !
 ! R22   R(12,13)                1.4022         estimate D2E/DX2                !
 ! R23   R(12,18)                1.092          estimate D2E/DX2                !
 ! R24   R(13,44)                1.0892         estimate D2E/DX2                !
 ! R25   R(19,33)                1.4272         estimate D2E/DX2                !
 ! R26   R(20,21)                1.3992         estimate D2E/DX2                !
 ! R27   R(20,22)                1.3992         estimate D2E/DX2                !
 ! R28   R(20,32)                1.4272         estimate D2E/DX2                !
 ! R29   R(21,23)                1.3967         estimate D2E/DX2                !
 ! R30   R(21,28)                1.0916         estimate D2E/DX2                !
 ! R31   R(22,24)                1.3967         estimate D2E/DX2                !
 ! R32   R(22,29)                1.0916         estimate D2E/DX2                !
 ! R33   R(23,25)                1.3982         estimate D2E/DX2                !
 ! R34   R(23,26)                1.0925         estimate D2E/DX2                !
 ! R35   R(24,25)                1.3983         estimate D2E/DX2                !
 ! R36   R(24,27)                1.0925         estimate D2E/DX2                !
 ! R37   R(25,30)                1.0925         estimate D2E/DX2                !
 ! R38   R(33,34)                1.3992         estimate D2E/DX2                !
 ! R39   R(33,35)                1.3992         estimate D2E/DX2                !
 ! R40   R(34,36)                1.3967         estimate D2E/DX2                !
 ! R41   R(34,37)                1.0916         estimate D2E/DX2                !
 ! R42   R(35,38)                1.3967         estimate D2E/DX2                !
 ! R43   R(35,39)                1.0916         estimate D2E/DX2                !
 ! R44   R(36,40)                1.3983         estimate D2E/DX2                !
 ! R45   R(36,41)                1.0925         estimate D2E/DX2                !
 ! R46   R(38,40)                1.3982         estimate D2E/DX2                !
 ! R47   R(38,42)                1.0925         estimate D2E/DX2                !
 ! R48   R(40,43)                1.0925         estimate D2E/DX2                !
 ! A1    A(2,1,6)              119.7415         estimate D2E/DX2                !
 ! A2    A(2,1,31)             119.4494         estimate D2E/DX2                !
 ! A3    A(6,1,31)             120.8091         estimate D2E/DX2                !
 ! A4    A(1,2,3)              121.13           estimate D2E/DX2                !
 ! A5    A(1,2,14)             119.7693         estimate D2E/DX2                !
 ! A6    A(3,2,14)             119.1007         estimate D2E/DX2                !
 ! A7    A(2,3,4)              119.1281         estimate D2E/DX2                !
 ! A8    A(2,3,19)             121.6112         estimate D2E/DX2                !
 ! A9    A(4,3,19)             119.2607         estimate D2E/DX2                !
 ! A10   A(3,4,5)              119.1294         estimate D2E/DX2                !
 ! A11   A(3,4,32)             119.2604         estimate D2E/DX2                !
 ! A12   A(5,4,32)             121.6101         estimate D2E/DX2                !
 ! A13   A(4,5,6)              121.1297         estimate D2E/DX2                !
 ! A14   A(4,5,15)             119.0994         estimate D2E/DX2                !
 ! A15   A(6,5,15)             119.7709         estimate D2E/DX2                !
 ! A16   A(1,6,5)              119.7413         estimate D2E/DX2                !
 ! A17   A(1,6,16)             120.8086         estimate D2E/DX2                !
 ! A18   A(5,6,16)             119.4501         estimate D2E/DX2                !
 ! A19   A(8,7,13)             119.1287         estimate D2E/DX2                !
 ! A20   A(8,7,32)             119.2603         estimate D2E/DX2                !
 ! A21   A(13,7,32)            121.611          estimate D2E/DX2                !
 ! A22   A(7,8,9)              119.1278         estimate D2E/DX2                !
 ! A23   A(7,8,19)             119.2606         estimate D2E/DX2                !
 ! A24   A(9,8,19)             121.6116         estimate D2E/DX2                !
 ! A25   A(8,9,10)             119.0987         estimate D2E/DX2                !
 ! A26   A(8,9,11)             121.1306         estimate D2E/DX2                !
 ! A27   A(10,9,11)            119.7707         estimate D2E/DX2                !
 ! A28   A(9,11,12)            119.7413         estimate D2E/DX2                !
 ! A29   A(9,11,17)            119.4498         estimate D2E/DX2                !
 ! A30   A(12,11,17)           120.8089         estimate D2E/DX2                !
 ! A31   A(11,12,13)           119.7415         estimate D2E/DX2                !
 ! A32   A(11,12,18)           120.8094         estimate D2E/DX2                !
 ! A33   A(13,12,18)           119.4491         estimate D2E/DX2                !
 ! A34   A(7,13,12)            121.1301         estimate D2E/DX2                !
 ! A35   A(7,13,44)            119.1003         estimate D2E/DX2                !
 ! A36   A(12,13,44)           119.7696         estimate D2E/DX2                !
 ! A37   A(3,19,8)             121.4788         estimate D2E/DX2                !
 ! A38   A(3,19,33)            119.2617         estimate D2E/DX2                !
 ! A39   A(8,19,33)            119.2595         estimate D2E/DX2                !
 ! A40   A(21,20,22)           120.0004         estimate D2E/DX2                !
 ! A41   A(21,20,32)           119.9998         estimate D2E/DX2                !
 ! A42   A(22,20,32)           119.9998         estimate D2E/DX2                !
 ! A43   A(20,21,23)           119.9593         estimate D2E/DX2                !
 ! A44   A(20,21,28)           118.9405         estimate D2E/DX2                !
 ! A45   A(23,21,28)           121.1002         estimate D2E/DX2                !
 ! A46   A(20,22,24)           119.9593         estimate D2E/DX2                !
 ! A47   A(20,22,29)           118.9409         estimate D2E/DX2                !
 ! A48   A(24,22,29)           121.0998         estimate D2E/DX2                !
 ! A49   A(21,23,25)           120.0542         estimate D2E/DX2                !
 ! A50   A(21,23,26)           119.8409         estimate D2E/DX2                !
 ! A51   A(25,23,26)           120.1049         estimate D2E/DX2                !
 ! A52   A(22,24,25)           120.0542         estimate D2E/DX2                !
 ! A53   A(22,24,27)           119.841          estimate D2E/DX2                !
 ! A54   A(25,24,27)           120.1048         estimate D2E/DX2                !
 ! A55   A(23,25,24)           119.9726         estimate D2E/DX2                !
 ! A56   A(23,25,30)           120.0137         estimate D2E/DX2                !
 ! A57   A(24,25,30)           120.0137         estimate D2E/DX2                !
 ! A58   A(4,32,7)             121.4792         estimate D2E/DX2                !
 ! A59   A(4,32,20)            119.2599         estimate D2E/DX2                !
 ! A60   A(7,32,20)            119.261          estimate D2E/DX2                !
 ! A61   A(19,33,34)           120.0001         estimate D2E/DX2                !
 ! A62   A(19,33,35)           120.0007         estimate D2E/DX2                !
 ! A63   A(34,33,35)           119.9991         estimate D2E/DX2                !
 ! A64   A(33,34,36)           119.9602         estimate D2E/DX2                !
 ! A65   A(33,34,37)           118.9396         estimate D2E/DX2                !
 ! A66   A(36,34,37)           121.1001         estimate D2E/DX2                !
 ! A67   A(33,35,38)           119.9602         estimate D2E/DX2                !
 ! A68   A(33,35,39)           118.9405         estimate D2E/DX2                !
 ! A69   A(38,35,39)           121.0994         estimate D2E/DX2                !
 ! A70   A(34,36,40)           120.0538         estimate D2E/DX2                !
 ! A71   A(34,36,41)           119.8417         estimate D2E/DX2                !
 ! A72   A(40,36,41)           120.1046         estimate D2E/DX2                !
 ! A73   A(35,38,40)           120.0537         estimate D2E/DX2                !
 ! A74   A(35,38,42)           119.8413         estimate D2E/DX2                !
 ! A75   A(40,38,42)           120.105          estimate D2E/DX2                !
 ! A76   A(36,40,38)           119.9731         estimate D2E/DX2                !
 ! A77   A(36,40,43)           120.0134         estimate D2E/DX2                !
 ! A78   A(38,40,43)           120.0136         estimate D2E/DX2                !
 ! D1    D(6,1,2,3)             -0.0004         estimate D2E/DX2                !
 ! D2    D(6,1,2,14)           179.9997         estimate D2E/DX2                !
 ! D3    D(31,1,2,3)           179.9999         estimate D2E/DX2                !
 ! D4    D(31,1,2,14)            0.0            estimate D2E/DX2                !
 ! D5    D(2,1,6,5)             -0.0023         estimate D2E/DX2                !
 ! D6    D(2,1,6,16)           179.9982         estimate D2E/DX2                !
 ! D7    D(31,1,6,5)           179.9974         estimate D2E/DX2                !
 ! D8    D(31,1,6,16)           -0.0022         estimate D2E/DX2                !
 ! D9    D(1,2,3,4)              0.0049         estimate D2E/DX2                !
 ! D10   D(1,2,3,19)          -179.9984         estimate D2E/DX2                !
 ! D11   D(14,2,3,4)          -179.9952         estimate D2E/DX2                !
 ! D12   D(14,2,3,19)            0.0015         estimate D2E/DX2                !
 ! D13   D(2,3,4,5)             -0.0066         estimate D2E/DX2                !
 ! D14   D(2,3,4,32)           179.9913         estimate D2E/DX2                !
 ! D15   D(19,3,4,5)           179.9966         estimate D2E/DX2                !
 ! D16   D(19,3,4,32)           -0.0055         estimate D2E/DX2                !
 ! D17   D(2,3,19,8)           179.9963         estimate D2E/DX2                !
 ! D18   D(2,3,19,33)            0.0021         estimate D2E/DX2                !
 ! D19   D(4,3,19,8)            -0.007          estimate D2E/DX2                !
 ! D20   D(4,3,19,33)          179.9988         estimate D2E/DX2                !
 ! D21   D(3,4,5,6)              0.004          estimate D2E/DX2                !
 ! D22   D(3,4,5,15)          -179.998          estimate D2E/DX2                !
 ! D23   D(32,4,5,6)          -179.9938         estimate D2E/DX2                !
 ! D24   D(32,4,5,15)            0.0042         estimate D2E/DX2                !
 ! D25   D(3,4,32,7)             0.0126         estimate D2E/DX2                !
 ! D26   D(3,4,32,20)          179.9902         estimate D2E/DX2                !
 ! D27   D(5,4,32,7)          -179.9896         estimate D2E/DX2                !
 ! D28   D(5,4,32,20)           -0.012          estimate D2E/DX2                !
 ! D29   D(4,5,6,1)              0.0005         estimate D2E/DX2                !
 ! D30   D(4,5,6,16)          -180.0            estimate D2E/DX2                !
 ! D31   D(15,5,6,1)          -179.9975         estimate D2E/DX2                !
 ! D32   D(15,5,6,16)            0.002          estimate D2E/DX2                !
 ! D33   D(13,7,8,9)            -0.0072         estimate D2E/DX2                !
 ! D34   D(13,7,8,19)          179.9944         estimate D2E/DX2                !
 ! D35   D(32,7,8,9)           179.993          estimate D2E/DX2                !
 ! D36   D(32,7,8,19)           -0.0054         estimate D2E/DX2                !
 ! D37   D(8,7,13,12)            0.0036         estimate D2E/DX2                !
 ! D38   D(8,7,13,44)         -179.9973         estimate D2E/DX2                !
 ! D39   D(32,7,13,12)        -179.9966         estimate D2E/DX2                !
 ! D40   D(32,7,13,44)           0.0025         estimate D2E/DX2                !
 ! D41   D(8,7,32,4)            -0.0071         estimate D2E/DX2                !
 ! D42   D(8,7,32,20)         -179.9847         estimate D2E/DX2                !
 ! D43   D(13,7,32,4)          179.9931         estimate D2E/DX2                !
 ! D44   D(13,7,32,20)           0.0155         estimate D2E/DX2                !
 ! D45   D(7,8,9,10)          -179.9949         estimate D2E/DX2                !
 ! D46   D(7,8,9,11)             0.006          estimate D2E/DX2                !
 ! D47   D(19,8,9,10)            0.0035         estimate D2E/DX2                !
 ! D48   D(19,8,9,11)         -179.9956         estimate D2E/DX2                !
 ! D49   D(7,8,19,3)             0.0125         estimate D2E/DX2                !
 ! D50   D(7,8,19,33)         -179.9933         estimate D2E/DX2                !
 ! D51   D(9,8,19,3)          -179.9859         estimate D2E/DX2                !
 ! D52   D(9,8,19,33)            0.0083         estimate D2E/DX2                !
 ! D53   D(8,9,11,12)           -0.0012         estimate D2E/DX2                !
 ! D54   D(8,9,11,17)          179.9988         estimate D2E/DX2                !
 ! D55   D(10,9,11,12)         179.9998         estimate D2E/DX2                !
 ! D56   D(10,9,11,17)          -0.0002         estimate D2E/DX2                !
 ! D57   D(9,11,12,13)          -0.0025         estimate D2E/DX2                !
 ! D58   D(9,11,12,18)         179.9977         estimate D2E/DX2                !
 ! D59   D(17,11,12,13)        179.9975         estimate D2E/DX2                !
 ! D60   D(17,11,12,18)         -0.0023         estimate D2E/DX2                !
 ! D61   D(11,12,13,7)           0.0012         estimate D2E/DX2                !
 ! D62   D(11,12,13,44)       -179.9978         estimate D2E/DX2                !
 ! D63   D(18,12,13,7)        -179.9989         estimate D2E/DX2                !
 ! D64   D(18,12,13,44)          0.0021         estimate D2E/DX2                !
 ! D65   D(3,19,33,34)         -90.0321         estimate D2E/DX2                !
 ! D66   D(3,19,33,35)          89.9695         estimate D2E/DX2                !
 ! D67   D(8,19,33,34)          89.9736         estimate D2E/DX2                !
 ! D68   D(8,19,33,35)         -90.0248         estimate D2E/DX2                !
 ! D69   D(22,20,21,23)         -0.0008         estimate D2E/DX2                !
 ! D70   D(22,20,21,28)        179.9993         estimate D2E/DX2                !
 ! D71   D(32,20,21,23)       -180.0            estimate D2E/DX2                !
 ! D72   D(32,20,21,28)          0.0001         estimate D2E/DX2                !
 ! D73   D(21,20,22,24)          0.0013         estimate D2E/DX2                !
 ! D74   D(21,20,22,29)       -179.9993         estimate D2E/DX2                !
 ! D75   D(32,20,22,24)       -179.9995         estimate D2E/DX2                !
 ! D76   D(32,20,22,29)         -0.0001         estimate D2E/DX2                !
 ! D77   D(21,20,32,4)          90.005          estimate D2E/DX2                !
 ! D78   D(21,20,32,7)         -90.0169         estimate D2E/DX2                !
 ! D79   D(22,20,32,4)         -89.9942         estimate D2E/DX2                !
 ! D80   D(22,20,32,7)          89.9839         estimate D2E/DX2                !
 ! D81   D(20,21,23,25)         -0.0002         estimate D2E/DX2                !
 ! D82   D(20,21,23,26)       -179.9998         estimate D2E/DX2                !
 ! D83   D(28,21,23,25)        179.9997         estimate D2E/DX2                !
 ! D84   D(28,21,23,26)          0.0001         estimate D2E/DX2                !
 ! D85   D(20,22,24,25)         -0.0009         estimate D2E/DX2                !
 ! D86   D(20,22,24,27)        179.9995         estimate D2E/DX2                !
 ! D87   D(29,22,24,25)        179.9997         estimate D2E/DX2                !
 ! D88   D(29,22,24,27)          0.0001         estimate D2E/DX2                !
 ! D89   D(21,23,25,24)          0.0006         estimate D2E/DX2                !
 ! D90   D(21,23,25,30)       -179.9996         estimate D2E/DX2                !
 ! D91   D(26,23,25,24)       -179.9998         estimate D2E/DX2                !
 ! D92   D(26,23,25,30)          0.0            estimate D2E/DX2                !
 ! D93   D(22,24,25,23)         -0.0001         estimate D2E/DX2                !
 ! D94   D(22,24,25,30)       -179.9998         estimate D2E/DX2                !
 ! D95   D(27,24,25,23)        179.9995         estimate D2E/DX2                !
 ! D96   D(27,24,25,30)         -0.0002         estimate D2E/DX2                !
 ! D97   D(19,33,34,36)       -179.9993         estimate D2E/DX2                !
 ! D98   D(19,33,34,37)          0.0005         estimate D2E/DX2                !
 ! D99   D(35,33,34,36)         -0.0009         estimate D2E/DX2                !
 ! D100  D(35,33,34,37)        179.9989         estimate D2E/DX2                !
 ! D101  D(19,33,35,38)       -179.999          estimate D2E/DX2                !
 ! D102  D(19,33,35,39)          0.0            estimate D2E/DX2                !
 ! D103  D(34,33,35,38)          0.0025         estimate D2E/DX2                !
 ! D104  D(34,33,35,39)       -179.9984         estimate D2E/DX2                !
 ! D105  D(33,34,36,40)         -0.0011         estimate D2E/DX2                !
 ! D106  D(33,34,36,41)        179.9999         estimate D2E/DX2                !
 ! D107  D(37,34,36,40)        179.9991         estimate D2E/DX2                !
 ! D108  D(37,34,36,41)          0.0001         estimate D2E/DX2                !
 ! D109  D(33,35,38,40)         -0.0022         estimate D2E/DX2                !
 ! D110  D(33,35,38,42)        179.9987         estimate D2E/DX2                !
 ! D111  D(39,35,38,40)        179.9988         estimate D2E/DX2                !
 ! D112  D(39,35,38,42)         -0.0003         estimate D2E/DX2                !
 ! D113  D(34,36,40,38)          0.0015         estimate D2E/DX2                !
 ! D114  D(34,36,40,43)       -179.9989         estimate D2E/DX2                !
 ! D115  D(41,36,40,38)       -179.9996         estimate D2E/DX2                !
 ! D116  D(41,36,40,43)          0.0001         estimate D2E/DX2                !
 ! D117  D(35,38,40,36)          0.0002         estimate D2E/DX2                !
 ! D118  D(35,38,40,43)       -179.9995         estimate D2E/DX2                !
 ! D119  D(42,38,40,36)        179.9992         estimate D2E/DX2                !
 ! D120  D(42,38,40,43)         -0.0004         estimate D2E/DX2                !
 --------------------------------------------------------------------------------
 Trust Radius=3.00D-01 FncErr=1.00D-07 GrdErr=1.00D-06
 Number of steps in this run=    256 maximum allowed number of steps=    264.
 GradGradGradGradGradGradGradGradGradGradGradGradGradGradGradGradGradGrad

 Leave Link  103 at Tue Mar 30 20:05:53 2021, MaxMem=  5242880000 cpu:         0.3
 (Enter /opt/nce/packages/global/g09/l202.exe)
                          Input orientation:                          
 ---------------------------------------------------------------------
 Center     Atomic      Atomic             Coordinates (Angstroms)
 Number     Number       Type             X           Y           Z
 ---------------------------------------------------------------------
      1          6           0        0.694232    3.666410   -0.000086
      2          6           0        1.389901    2.448889   -0.000107
      3          6           0        0.709381    1.227599   -0.000075
      4          6           0       -0.709422    1.227576   -0.000126
      5          6           0       -1.390007    2.448822   -0.000067
      6          6           0       -0.694399    3.666378   -0.000042
      7          6           0       -0.709387   -1.227582   -0.000122
      8          6           0        0.709427   -1.227557    0.000048
      9          6           0        1.389983   -2.448828    0.000354
     10          1           0        2.479228   -2.448255    0.000569
     11          6           0        0.694367   -3.666370    0.000368
     12          6           0       -0.694263   -3.666389    0.000099
     13          6           0       -1.389917   -2.448864   -0.000132
     14          1           0        2.479145    2.448386   -0.000147
     15          1           0       -2.479253    2.448234   -0.000073
     16          1           0       -1.253717    4.604272    0.000005
     17          1           0        1.253681   -4.604267    0.000591
     18          1           0       -1.253560   -4.604297    0.000067
     19          7           0        1.397179    0.000031   -0.000062
     20          6           0       -2.824362   -0.000026   -0.000120
     21          6           0       -3.524090    0.000093   -1.211779
     22          6           0       -3.523819   -0.000137    1.211699
     23          6           0       -4.920812    0.000085   -1.210635
     24          6           0       -4.920538   -0.000156    1.210869
     25          6           0       -5.620089   -0.000046    0.000195
     26          1           0       -5.465222    0.000175   -2.157858
     27          1           0       -5.464737   -0.000251    2.158213
     28          1           0       -2.960989    0.000190   -2.146965
     29          1           0       -2.960514   -0.000217    2.146763
     30          1           0       -6.712593   -0.000058    0.000318
     31          1           0        1.253510    4.604319   -0.000110
     32          7           0       -1.397175   -0.000017   -0.000281
     33          6           0        2.824368    0.000029   -0.000036
     34          6           0        3.523992   -0.000651   -1.211762
     35          6           0        3.523959    0.000674    1.211707
     36          6           0        4.920709   -0.000667   -1.210763
     37          1           0        2.960791   -0.001166   -2.146897
     38          6           0        4.920682    0.000692    1.210744
     39          1           0        2.960747    0.001173    2.146835
     40          6           0        5.620104    0.000020    0.000001
     41          1           0        5.465033   -0.001200   -2.158034
     42          1           0        5.464975    0.001217    2.158033
     43          1           0        6.712617    0.000026    0.000012
     44          1           0       -2.479155   -2.448343   -0.000307
 ---------------------------------------------------------------------
                    Distance matrix (angstroms):
                    1          2          3          4          5
     1  C    0.000000
     2  C    1.402253   0.000000
     3  C    2.438858   1.398090   0.000000
     4  C    2.813922   2.428737   1.418803   0.000000
     5  C    2.413829   2.779908   2.428748   1.398084   0.000000
     6  C    1.388631   2.413832   2.813937   2.438848   1.402253
     7  C    5.091297   4.233609   2.835633   2.455158   3.738875
     8  C    4.893991   3.738890   2.455156   2.835632   4.233602
     9  C    6.154690   4.897717   3.738895   4.233609   5.631636
    10  H    6.369877   5.016837   4.079738   4.866130   6.241181
    11  C    7.332780   6.154686   4.893992   5.091300   6.460665
    12  C    7.463100   6.460678   5.091300   4.893988   6.154662
    13  C    6.460670   5.631640   4.233607   3.738888   4.897686
    14  H    2.160902   1.089244   2.149973   3.414284   3.869152
    15  H    3.399259   3.869154   3.414284   2.149955   1.089246
    16  H    2.161964   3.410922   3.905851   3.420283   2.159755
    17  H    8.289577   7.054471   5.857211   6.153387   7.532274
    18  H    8.496969   7.532285   6.153385   5.857203   7.054439
    19  N    3.733158   2.448869   1.407121   2.438162   3.710119
    20  C    5.081659   4.874136   3.740909   2.445399   2.837998
    21  C    5.718769   5.622460   4.571354   3.301087   3.466818
    22  C    5.718736   5.622352   4.571183   3.301004   3.466833
    23  C    6.814403   6.876563   5.888236   4.550590   4.464120
    24  C    6.814379   6.876476   5.888103   4.550531   4.464136
    25  C    7.301613   7.425446   6.447426   5.061789   4.887796
    26  H    7.485729   7.592417   6.654947   5.364695   5.221045
    27  H    7.485690   7.592279   6.654739   5.364607   5.221068
    28  H    5.604543   5.434645   4.425753   3.344391   3.615654
    29  H    5.604488   5.434453   4.425446   3.344252   3.615683
    30  H    8.264626   8.464499   7.522821   6.127410   5.858919
    31  H    1.092001   2.159741   3.420280   3.905828   3.410916
    32  N    4.220980   3.710112   2.438159   1.407121   2.448850
    33  C    4.240263   2.838065   2.445424   3.740928   4.874171
    34  C    4.787801   3.467376   3.301336   4.571477   5.622767
    35  C    4.786796   3.466476   3.300850   4.571142   5.622178
    36  C    5.725059   4.464596   4.550790   5.888344   6.876839
    37  H    4.816347   3.616514   3.344780   4.425934   5.435142
    38  C    5.724201   4.463882   4.550433   5.888083   6.876351
    39  H    4.814595   3.615001   3.343949   4.425341   5.434081
    40  C    6.140572   4.887901   5.061833   6.447464   7.425516
    41  H    6.392859   5.221713   5.364975   6.655100   7.592826
    42  H    6.391487   5.220622   5.364431   6.654681   7.592032
    43  H    7.047221   5.859030   6.127461   7.522868   8.464580
    44  H    6.889165   6.241192   4.866139   4.079747   5.016819
                    6          7          8          9         10
     6  C    0.000000
     7  C    4.893983   0.000000
     8  C    5.091299   1.418814   0.000000
     9  C    6.460681   2.428744   1.398091   0.000000
    10  H    6.889169   3.414280   2.149953   1.089245   0.000000
    11  C    7.463100   2.813932   2.438860   1.402245   2.160910
    12  C    7.332767   2.438854   2.813938   2.413822   3.399249
    13  C    6.154667   1.398088   2.428752   2.779900   3.869145
    14  H    3.399248   4.866156   4.079762   5.016869   4.896641
    15  H    2.160921   4.079712   4.866120   6.241170   6.968654
    16  H    1.092008   5.857202   6.153386   7.532288   7.979537
    17  H    8.496975   3.905847   3.420290   2.159744   2.479991
    18  H    8.289555   3.420282   3.905853   3.410919   4.310710
    19  N    4.220995   2.438166   1.407116   2.448870   2.676740
    20  C    4.240196   2.445407   3.740922   4.874150   5.841395
    21  C    4.787181   3.301189   4.571468   5.622686   6.595758
    22  C    4.787198   3.300933   4.571108   5.622179   6.595202
    23  C    5.724492   4.550671   5.888332   6.876758   7.888091
    24  C    5.724511   4.550480   5.888048   6.876337   7.887620
    25  C    6.140447   5.061802   6.447446   7.425473   8.461245
    26  H    6.392024   5.364809   6.655086   7.592716   8.588824
    27  H    6.392054   5.364523   6.654642   7.592040   8.588057
    28  H    4.815355   3.344558   4.425944   5.435037   6.340564
    29  H    4.815389   3.344116   4.425293   5.434114   6.339545
    30  H    7.047085   6.127422   7.522841   8.464527   9.512268
    31  H    2.161963   6.153376   5.857201   7.054467   7.158295
    32  N    3.733142   1.407113   2.438160   3.710111   4.584798
    33  C    5.081716   3.740916   2.445392   2.838021   2.472492
    34  C    5.719282   4.571097   3.300842   3.466524   2.924388
    35  C    5.718415   4.571472   3.301251   3.467173   2.924991
    36  C    6.814874   5.888035   4.550409   4.463891   3.663174
    37  H    5.605379   4.425262   3.343957   3.615131   3.291164
    38  C    6.814132   5.888339   4.550720   4.464418   3.663682
    39  H    5.603829   4.425963   3.344684   3.616239   3.292114
    40  C    7.301721   6.447438   5.061788   4.887820   3.982355
    41  H    7.486432   6.654627   5.364425   5.220685   4.422971
    42  H    7.485224   6.655098   5.364888   5.221481   4.423714
    43  H    8.264746   7.522843   6.127418   5.858952   4.890364
    44  H    6.369864   2.149962   3.414290   3.869138   4.958383
                   11         12         13         14         15
    11  C    0.000000
    12  C    1.388630   0.000000
    13  C    2.413827   1.402249   0.000000
    14  H    6.369904   6.889194   6.241210   0.000000
    15  H    6.889140   6.369835   5.016794   4.958398   0.000000
    16  H    8.496973   8.289561   7.054451   4.310696   2.480008
    17  H    1.092009   2.161967   3.410920   7.158329   7.979509
    18  H    2.161973   1.092009   2.159742   7.979563   7.158248
    19  N    3.733154   4.220991   3.710120   2.676769   4.584803
    20  C    5.081686   4.240229   2.838035   5.841396   2.472464
    21  C    5.719059   4.787448   3.467012   6.595530   2.924604
    22  C    5.718538   4.787041   3.466747   6.595408   2.924727
    23  C    6.814665   5.724738   4.464290   7.887891   3.663346
    24  C    6.814220   5.724389   4.464076   7.887790   3.663450
    25  C    7.301663   6.140508   4.887849   8.461230   3.982327
    26  H    7.486122   6.392380   5.221272   8.588505   4.423239
    27  H    7.485405   6.391827   5.220950   8.588341   4.423391
    28  H    5.605027   4.815779   3.615940   6.340154   3.291525
    29  H    5.604092   4.815068   3.615495   6.339934   3.291721
    30  H    8.264678   7.047147   5.858970   9.512251   4.890327
    31  H    8.289568   8.496966   7.532270   2.479965   4.310710
    32  N    4.220982   3.733145   2.448858   4.584816   2.676719
    33  C    4.240211   5.081671   4.874144   2.472576   5.841413
    34  C    4.786808   5.718384   5.622126   2.925320   6.595770
    35  C    4.787603   5.719156   5.622719   2.924298   6.595265
    36  C    5.724175   6.814075   6.876285   3.663971   7.888113
    37  H    4.814680   5.603826   5.434012   3.292541   6.340544
    38  C    5.724866   6.814745   6.876787   3.663136   7.887685
    39  H    4.816085   5.605228   5.435110   3.290946   6.339631
    40  C    6.140464   7.301629   7.425458   3.982477   8.461285
    41  H    6.391512   7.485190   7.591965   4.424079   8.588842
    42  H    6.392606   7.486269   7.592767   4.422845   8.588136
    43  H    7.047112   8.264652   8.464521   4.890476   9.512318
    44  H    3.399240   2.160897   1.089238   6.968694   4.896577
                   16         17         18         19         20
    16  H    0.000000
    17  H    9.543806   0.000000
    18  H    9.208569   2.507241   0.000000
    19  N    5.312841   4.606534   5.312839   0.000000
    20  C    4.864821   6.150567   4.864846   4.221541   0.000000
    21  C    5.274607   6.745151   5.274873   5.068249   1.399191
    22  C    5.274670   6.744576   5.274506   5.067996   1.399195
    23  C    6.009307   7.796890   6.009565   6.432923   2.420836
    24  C    6.009370   7.796383   6.009233   6.432721   2.420836
    25  C    6.345467   8.273304   6.345526   7.017268   2.795727
    26  H    6.602337   8.426354   6.602719   7.193652   3.410275
    27  H    6.602438   8.425523   6.602185   7.193333   3.410276
    28  H    5.359275   6.601247   5.359698   4.858273   2.151188
    29  H    5.359388   6.600210   5.359062   4.857813   2.151196
    30  H    7.141371   9.201101   7.141432   8.109772   3.888231
    31  H    2.507227   9.208586   9.543794   4.606529   6.150531
    32  N    4.606523   5.312829   4.606519   2.794354   1.427187
    33  C    6.150596   4.864833   6.150554   1.427189   5.648730
    34  C    6.745383   5.274220   6.744412   2.447764   6.462946
    35  C    6.744444   5.275078   6.745259   2.447770   6.462949
    36  C    7.797112   6.008960   7.796224   3.725730   7.839119
    37  H    6.601615   5.358588   6.599926   2.655896   6.170628
    38  C    7.796284   6.009743   7.796982   3.725738   7.839126
    39  H    6.599932   5.360085   6.601466   2.655920   6.170649
    40  C    8.273364   6.345479   8.273270   4.222925   8.444466
    41  H    8.426690   6.601770   8.425283   4.604811   8.565668
    42  H    8.425320   6.603032   8.426523   4.604817   8.565672
    43  H    9.201172   7.141393   9.201074   5.315438   9.536979
    44  H    7.158287   4.310693   2.479964   4.584812   2.472534
                   21         22         23         24         25
    21  C    0.000000
    22  C    2.423478   0.000000
    23  C    1.396722   2.796300   0.000000
    24  C    2.796299   1.396719   2.421504   0.000000
    25  C    2.421176   2.421175   1.398248   1.398250   0.000000
    26  H    2.159412   3.888825   1.092526   3.412477   2.163603
    27  H    3.888825   2.159410   3.412476   1.092526   2.163603
    28  H    1.091630   3.405496   2.172008   3.887786   3.417764
    29  H    3.405499   1.091631   3.887787   2.172002   3.417761
    30  H    3.411119   3.411118   2.162611   2.162613   1.092504
    31  H    6.744813   6.744803   7.796576   7.796572   8.273242
    32  N    2.447753   2.447756   3.725718   3.725718   4.222914
    33  C    6.463067   6.462800   7.839220   7.838996   8.444457
    34  C    7.048082   7.452839   8.444804   8.785171   9.224048
    35  C    7.453072   7.047778   8.785323   8.444497   9.223957
    36  C    8.444799   8.785122   9.841521  10.134813  10.610129
    37  H    6.551956   7.302762   7.937018   8.566793   8.845423
    38  C    8.785374   8.444501  10.134993   9.841220  10.610056
    39  H    7.302972   6.551647   8.566888   7.936667   8.845271
    40  C    9.224137   9.223857  10.610210  10.609964  11.240193
    41  H    9.038790   9.599717  10.428967  10.918315  11.293267
    42  H    9.599944   9.038472  10.918448  10.428615  11.293136
    43  H   10.308182  10.307900  11.696253  11.696002  12.332706
    44  H    2.924789   2.924721   3.663520   3.663457   3.982414
                   26         27         28         29         30
    26  H    0.000000
    27  H    4.316071   0.000000
    28  H    2.504257   4.980292   0.000000
    29  H    4.980294   2.504249   4.293728   0.000000
    30  H    2.492721   2.492720   4.322656   4.322652   0.000000
    31  H    8.425876   8.425869   6.600681   6.600668   9.201037
    32  N    4.604796   4.604797   2.655893   2.655904   5.315418
    33  C    8.565833   8.565471   6.170872   6.170381   9.536961
    34  C    9.038864   9.599686   6.552067   7.302637  10.308094
    35  C    9.599966   9.038392   7.303097   6.551543  10.307980
    36  C   10.429025  10.918218   7.937105   8.566601  11.696172
    37  H    8.426020   9.461686   5.921780   7.314190   9.908829
    38  C   10.918538  10.428549   8.567085   7.936585  11.696077
    39  H    9.461889   8.425492   7.314621   5.921261   9.908635
    40  C   11.293397  11.292988   8.845599   8.845089  12.332697
    41  H   10.930255  11.751164   8.426029   9.461560  12.367419
    42  H   11.751431  10.929712   9.462023   8.425497  12.367251
    43  H   12.367545  12.367125   9.908994   9.908481  13.425210
    44  H    4.423445   4.423354   3.291750   3.291647   4.890409
                   31         32         33         34         35
    31  H    0.000000
    32  N    5.312819   0.000000
    33  C    4.864882   4.221543   0.000000
    34  C    5.275314   5.068093   1.399198   0.000000
    35  C    5.274181   5.068183   1.399196   2.423469   0.000000
    36  C    6.009985   6.432801   2.420848   1.396717   2.796296
    37  H    5.360410   4.857966   2.151191   1.091638   3.405493
    38  C    6.008968   6.432876   2.420851   2.796298   1.396723
    39  H    5.358450   4.858147   2.151199   3.405499   1.091637
    40  C    6.345606   7.017279   2.795736   2.421168   2.421168
    41  H    6.603360   7.193455   3.410289   2.159415   3.888821
    42  H    6.601709   7.193568   3.410289   3.888822   2.159416
    43  H    7.141524   8.109792   3.888249   3.411118   3.411121
    44  H    7.979526   2.676748   5.841394   6.595195   6.595759
                   36         37         38         39         40
    36  C    0.000000
    37  H    2.172010   0.000000
    38  C    2.421507   3.887792   0.000000
    39  H    3.887791   4.293733   2.172006   0.000000
    40  C    1.398250   3.417765   1.398245   3.417759   0.000000
    41  H    1.092525   2.504267   3.412475   4.980296   2.163600
    42  H    3.412479   4.980298   1.092525   2.504253   2.163601
    43  H    2.162617   4.322663   2.162615   4.322659   1.092513
    44  H    7.887605   6.339522   7.888093   6.340574   8.461234
                   41         42         43         44
    41  H    0.000000
    42  H    4.316068   0.000000
    43  H    2.492715   2.492723   0.000000
    44  H    8.588039   8.588829   9.512265   0.000000
 Symmetry turned off by external request.
 Stoichiometry    C24H18N2
 Framework group  C1[X(C24H18N2)]
 Deg. of freedom   126
 Full point group                 C1      NOp   1
 Rotational constants (GHZ):      0.3907847      0.1504828      0.1176605
 Leave Link  202 at Tue Mar 30 20:05:53 2021, MaxMem=  5242880000 cpu:         0.7
 (Enter /opt/nce/packages/global/g09/l301.exe)
 Standard basis: def2TZVP (5D, 7F)
 Ernie: Thresh=  0.10000D-02 Tol=  0.10000D-05 Strict=F.
   914 basis functions,  1470 primitive gaussians,  1044 cartesian basis functions
    88 alpha electrons       88 beta electrons
       nuclear repulsion energy      2140.9244984179 Hartrees.
 IExCor= 2523 DFT=T Ex=TPSS Corr=TPSS ExCW=0 ScaHFX=  0.000000
 ScaDFX=  1.000000  1.000000  1.000000  1.000000 ScalE2=  1.000000  1.000000
 IRadAn=      5 IRanWt=     -1 IRanGd=            0 ICorTp=0 IEmpDi=  4
 NAtoms=   44 NActive=   44 NUniq=   44 SFac= 1.00D+00 NAtFMM=   60 NAOKFM=F Big=F
 Integral buffers will be    131072 words long.
 Raffenetti 2 integral format.
 Two-electron integral symmetry is turned off.
 ------------------------------------------------------------------------------
 Polarizable Continuum Model (PCM)
 =================================
 Model                : PCM (using non-symmetric T matrix).
 Atomic radii         : SMD-Coulomb.
 Polarization charges : Total charges.
 Charge compensation  : None.
 Solution method      : On-the-fly selection.
 Cavity type          : VdW (van der Waals Surface) (Alpha=1.000).
 Cavity algorithm     : GePol (No added spheres)
                        Default sphere list used, NSphG=   44.
                        Lebedev-Laikov grids with approx.  5.0 points / Ang**2.
                        Smoothing algorithm: York/Karplus (Gamma=1.0000).
                        Polarization charges: spherical gaussians, with
                                              point-specific exponents (IZeta= 3).
                        Self-potential: point-specific (ISelfS= 7).
                        Self-field    : sphere-specific E.n sum rule (ISelfD= 2).
 1st derivatives      : Analytical E(r).r(x)/FMM algorithm (CHGder, D1EAlg=3).
                        Cavity 1st derivative terms included.
 Solvent              : n,n-DiMethylFormamide, Eps=  37.219000 Eps(inf)=   2.046330
 ------------------------------------------------------------------------------
 GePol: Number of generator spheres                  =      44
 GePol: Total number of spheres                      =      44
 GePol: Number of exposed spheres                    =      44 (100.00%)
 GePol: Number of points                             =    3298
 GePol: Average weight of points                     =       0.11
 GePol: Minimum weight of points                     =   0.84D-10
 GePol: Maximum weight of points                     =    0.17992
 GePol: Number of points with low weight             =     136
 GePol: Fraction of low-weight points (<1% of avg)   =       4.12%
 GePol: Cavity surface area                          =    355.656 Ang**2
 GePol: Cavity volume                                =    345.008 Ang**3
 ------------------------------------------------------------------------------
 Atomic radii for non-electrostatic terms: SMD-CDS.
 ------------------------------------------------------------------------------
 PCM non-electrostatic energy =        -0.0059414956 Hartrees.
 Nuclear repulsion after PCM non-electrostatic terms =     2140.9185569222 Hartrees.
 Leave Link  301 at Tue Mar 30 20:05:54 2021, MaxMem=  5242880000 cpu:         3.4
 (Enter /opt/nce/packages/global/g09/l302.exe)
 NPDir=0 NMtPBC=     1 NCelOv=     1 NCel=       1 NClECP=     1 NCelD=      1
         NCelK=      1 NCelE2=     1 NClLst=     1 CellRange=     0.0.
 One-electron integrals computed using PRISM.
   1 Symmetry operations used in ECPInt.
 ECPInt:  NShTT=   64261 NPrTT=  198132 LenC2=   54977 LenP2D=  118401.
 LDataN:  DoStor=T MaxTD1= 6 Len=  172
 NBasis=   914 RedAO= T EigKep=  3.86D-06  NBF=   914
 NBsUse=   914 1.00D-06 EigRej= -1.00D+00 NBFU=   914
 Precomputing XC quadrature grid using
 IXCGrd= 4 IRadAn=           5 IRanWt=          -1 IRanGd=           0 AccXCQ= 0.00D+00.
 Generated NRdTot=       0 NPtTot=           0 NUsed=           0 NTot=          32
 NSgBfM=  1017  1017  1017  1017  1017 MxSgAt=    44 MxSgA2=    44.
 Leave Link  302 at Tue Mar 30 20:05:56 2021, MaxMem=  5242880000 cpu:        25.7
 (Enter /opt/nce/packages/global/g09/l303.exe)
 DipDrv:  MaxL=1.
 Leave Link  303 at Tue Mar 30 20:05:56 2021, MaxMem=  5242880000 cpu:         2.3
 (Enter /opt/nce/packages/global/g09/l401.exe)
 ExpMin= 9.52D-02 ExpMax= 1.97D+04 ExpMxC= 6.73D+02 IAcc=3 IRadAn=         5 AccDes= 0.00D+00
 Harris functional with IExCor= 1009 and IRadAn=       5 diagonalized for initial guess.
 HarFok:  IExCor= 1009 AccDes= 0.00D+00 IRadAn=         5 IDoV= 1 UseB2=F ITyADJ=14
 ICtDFT=  3500011 ScaDFX=  1.000000  1.000000  1.000000  1.000000
 FoFCou: FMM=F IPFlag=           0 FMFlag=      100000 FMFlg1=           0
         NFxFlg=           0 DoJE=T BraDBF=F KetDBF=T FulRan=T
         wScrn=  0.000000 ICntrl=     500 IOpCl=  0 I1Cent=   200000004 NGrid=           0
         NMat0=    1 NMatS0=      1 NMatT0=    0 NMatD0=    1 NMtDS0=    0 NMtDT0=    0
 Symmetry not used in FoFCou.
 Harris En= -1034.36512541287    
 JPrj=0 DoOrth=F DoCkMO=F.
 Leave Link  401 at Tue Mar 30 20:06:05 2021, MaxMem=  5242880000 cpu:       104.2
 (Enter /opt/nce/packages/global/g09/l502.exe)
 Closed shell SCF:
 Using DIIS extrapolation, IDIIS=  1040.
 Two-electron integral symmetry not used.
 IVT=     3307238 IEndB=     3307238 NGot=  5242880000 MDV=  5240680383
 LenX=  5240680383 LenY=  5239589403
 Requested convergence on RMS density matrix=1.00D-08 within 128 cycles.
 Requested convergence on MAX density matrix=1.00D-06.
 Requested convergence on             energy=1.00D-06.
 No special actions if energy rises.
 Fock matrices will be formed incrementally for  20 cycles.

 Cycle   1  Pass 1  IDiag  1:
 FoFJK:  IHMeth= 1 ICntrl=     500 DoSepK=F KAlg= 0 I1Cent=   0 FoldK=F
 IRaf= 750000000 NMat=   1 IRICut=       1 DoRegI=T DoRafI=F ISym2E= 0.
 FoFCou: FMM=F IPFlag=           0 FMFlag=      100000 FMFlg1=           0
         NFxFlg=           0 DoJE=T BraDBF=F KetDBF=F FulRan=T
         wScrn=  0.000000 ICntrl=     500 IOpCl=  0 I1Cent=           0 NGrid=           0
         NMat0=    1 NMatS0=      1 NMatT0=    0 NMatD0=    1 NMtDS0=    0 NMtDT0=    0
 Symmetry not used in FoFCou.
 Inv3:  Mode=1 IEnd=    32630412.
 Iteration    1 A*A^-1 deviation from unit magnitude is 6.22D-15 for   3295.
 Iteration    1 A*A^-1 deviation from orthogonality  is 4.49D-15 for   3295   3020.
 Iteration    1 A^-1*A deviation from unit magnitude is 5.55D-15 for   3291.
 Iteration    1 A^-1*A deviation from orthogonality  is 4.18D-13 for   1326   1258.
 E= -1034.93615136719    
 DIIS: error= 2.90D-02 at cycle   1 NSaved=   1.
 NSaved= 1 IEnMin= 1 EnMin= -1034.93615136719     IErMin= 1 ErrMin= 2.90D-02
 ErrMax= 2.90D-02  0.00D+00 EMaxC= 1.00D-01 BMatC= 5.56D-01 BMatP= 5.56D-01
 IDIUse=3 WtCom= 7.10D-01 WtEn= 2.90D-01
 Coeff-Com:  0.100D+01
 Coeff-En:   0.100D+01
 Coeff:      0.100D+01
 Gap=     0.135 Goal=   None    Shift=    0.000
 GapD=    0.135 DampG=1.000 DampE=0.500 DampFc=0.5000 IDamp=-1.
 Damping current iteration by 5.00D-01
 RMSDP=2.17D-03 MaxDP=7.19D-02              OVMax= 4.21D-01

 Cycle   2  Pass 1  IDiag  1:
 RMSU=  1.07D-03    CP:  9.68D-01
 E= -1035.04682801330     Delta-E=       -0.110676646118 Rises=F Damp=T
 DIIS: error= 1.81D-02 at cycle   2 NSaved=   2.
 NSaved= 2 IEnMin= 2 EnMin= -1035.04682801330     IErMin= 2 ErrMin= 1.81D-02
 ErrMax= 1.81D-02  0.00D+00 EMaxC= 1.00D-01 BMatC= 1.18D-01 BMatP= 5.56D-01
 IDIUse=3 WtCom= 8.19D-01 WtEn= 1.81D-01
 Coeff-Com:  0.219D+00 0.781D+00
 Coeff-En:   0.393D+00 0.607D+00
 Coeff:      0.250D+00 0.750D+00
 Gap=     0.097 Goal=   None    Shift=    0.000
 RMSDP=8.93D-04 MaxDP=5.66D-02 DE=-1.11D-01 OVMax= 5.00D-01

 Cycle   3  Pass 1  IDiag  1:
 RMSU=  8.11D-04    CP:  9.47D-01  6.68D-01
 E= -1035.29860884108     Delta-E=       -0.251780827777 Rises=F Damp=F
 DIIS: error= 2.18D-02 at cycle   3 NSaved=   3.
 NSaved= 3 IEnMin= 3 EnMin= -1035.29860884108     IErMin= 2 ErrMin= 1.81D-02
 ErrMax= 2.18D-02  0.00D+00 EMaxC= 1.00D-01 BMatC= 1.46D-01 BMatP= 1.18D-01
 IDIUse=2 WtCom= 0.00D+00 WtEn= 1.00D+00
 Coeff-En:   0.000D+00 0.149D+00 0.851D+00
 Coeff:      0.000D+00 0.149D+00 0.851D+00
 Gap=     0.130 Goal=   None    Shift=    0.000
 RMSDP=1.11D-03 MaxDP=8.89D-02 DE=-2.52D-01 OVMax= 4.62D-01

 Cycle   4  Pass 1  IDiag  1:
 RMSU=  8.24D-04    CP:  9.52D-01  8.69D-01  1.26D-01
 E= -1034.83119763693     Delta-E=        0.467411204154 Rises=F Damp=F
 DIIS: error= 4.89D-02 at cycle   4 NSaved=   4.
 NSaved= 4 IEnMin= 3 EnMin= -1035.29860884108     IErMin= 2 ErrMin= 1.81D-02
 ErrMax= 4.89D-02  0.00D+00 EMaxC= 1.00D-01 BMatC= 5.70D-01 BMatP= 1.18D-01
 IDIUse=2 WtCom= 0.00D+00 WtEn= 1.00D+00
 Coeff-En:   0.000D+00 0.000D+00 0.720D+00 0.280D+00
 Coeff:      0.000D+00 0.000D+00 0.720D+00 0.280D+00
 Gap=     0.118 Goal=   None    Shift=    0.000
 RMSDP=5.26D-04 MaxDP=4.04D-02 DE= 4.67D-01 OVMax= 2.29D-01

 Cycle   5  Pass 1  IDiag  1:
 RMSU=  1.88D-04    CP:  9.53D-01  7.23D-01  4.82D-01  5.57D-01
 E= -1035.43337639077     Delta-E=       -0.602178753842 Rises=F Damp=F
 DIIS: error= 1.03D-02 at cycle   5 NSaved=   5.
 NSaved= 5 IEnMin= 5 EnMin= -1035.43337639077     IErMin= 5 ErrMin= 1.03D-02
 ErrMax= 1.03D-02  0.00D+00 EMaxC= 1.00D-01 BMatC= 3.16D-02 BMatP= 1.18D-01
 IDIUse=3 WtCom= 8.97D-01 WtEn= 1.03D-01
 Coeff-Com: -0.119D-01 0.416D-01 0.244D+00-0.874D-01 0.813D+00
 Coeff-En:   0.000D+00 0.000D+00 0.240D+00 0.000D+00 0.760D+00
 Coeff:     -0.107D-01 0.373D-01 0.244D+00-0.784D-01 0.808D+00
 Gap=     0.090 Goal=   None    Shift=    0.000
 RMSDP=1.94D-04 MaxDP=1.81D-02 DE=-6.02D-01 OVMax= 9.75D-02

 Cycle   6  Pass 1  IDiag  1:
 RMSU=  5.16D-05    CP:  9.51D-01  7.11D-01  6.33D-01  3.86D-01  9.82D-01
 E= -1035.46812629208     Delta-E=       -0.034749901311 Rises=F Damp=F
 DIIS: error= 1.29D-03 at cycle   6 NSaved=   6.
 NSaved= 6 IEnMin= 6 EnMin= -1035.46812629208     IErMin= 6 ErrMin= 1.29D-03
 ErrMax= 1.29D-03  0.00D+00 EMaxC= 1.00D-01 BMatC= 8.19D-04 BMatP= 3.16D-02
 IDIUse=3 WtCom= 9.87D-01 WtEn= 1.29D-02
 Coeff-Com: -0.100D-01 0.244D-01 0.130D+00-0.669D-01 0.527D+00 0.396D+00
 Coeff-En:   0.000D+00 0.000D+00 0.000D+00 0.000D+00 0.000D+00 0.100D+01
 Coeff:     -0.988D-02 0.241D-01 0.128D+00-0.660D-01 0.520D+00 0.403D+00
 Gap=     0.091 Goal=   None    Shift=    0.000
 RMSDP=2.56D-05 MaxDP=2.72D-03 DE=-3.47D-02 OVMax= 6.28D-03

 Cycle   7  Pass 1  IDiag  1:
 RMSU=  1.68D-05    CP:  9.51D-01  7.13D-01  6.33D-01  3.88D-01  9.73D-01
                    CP:  6.31D-01
 E= -1035.46881159543     Delta-E=       -0.000685303353 Rises=F Damp=F
 DIIS: error= 1.66D-04 at cycle   7 NSaved=   7.
 NSaved= 7 IEnMin= 7 EnMin= -1035.46881159543     IErMin= 7 ErrMin= 1.66D-04
 ErrMax= 1.66D-04  0.00D+00 EMaxC= 1.00D-01 BMatC= 1.36D-05 BMatP= 8.19D-04
 IDIUse=3 WtCom= 9.98D-01 WtEn= 1.66D-03
 Coeff-Com: -0.124D-02 0.256D-02 0.160D-01-0.840D-02 0.613D-01 0.129D+00
 Coeff-Com:  0.801D+00
 Coeff-En:   0.000D+00 0.000D+00 0.000D+00 0.000D+00 0.000D+00 0.000D+00
 Coeff-En:   0.100D+01
 Coeff:     -0.124D-02 0.255D-02 0.159D-01-0.839D-02 0.612D-01 0.129D+00
 Coeff:      0.801D+00
 Gap=     0.091 Goal=   None    Shift=    0.000
 RMSDP=4.07D-06 MaxDP=2.45D-04 DE=-6.85D-04 OVMax= 6.89D-04

 Cycle   8  Pass 1  IDiag  1:
 RMSU=  3.29D-06    CP:  9.51D-01  7.13D-01  6.34D-01  3.87D-01  9.76D-01
                    CP:  6.71D-01  9.50D-01
 E= -1035.46882145600     Delta-E=       -0.000009860571 Rises=F Damp=F
 DIIS: error= 5.75D-05 at cycle   8 NSaved=   8.
 NSaved= 8 IEnMin= 8 EnMin= -1035.46882145600     IErMin= 8 ErrMin= 5.75D-05
 ErrMax= 5.75D-05  0.00D+00 EMaxC= 1.00D-01 BMatC= 1.57D-06 BMatP= 1.36D-05
 IDIUse=1 WtCom= 1.00D+00 WtEn= 0.00D+00
 Coeff-Com: -0.146D-03 0.172D-03 0.255D-02-0.129D-02 0.697D-02 0.521D-01
 Coeff-Com:  0.439D+00 0.500D+00
 Coeff:     -0.146D-03 0.172D-03 0.255D-02-0.129D-02 0.697D-02 0.521D-01
 Coeff:      0.439D+00 0.500D+00
 Gap=     0.091 Goal=   None    Shift=    0.000
 RMSDP=1.45D-06 MaxDP=7.80D-05 DE=-9.86D-06 OVMax= 4.02D-04

 Cycle   9  Pass 1  IDiag  1:
 RMSU=  1.14D-06    CP:  9.51D-01  7.13D-01  6.34D-01  3.87D-01  9.77D-01
                    CP:  6.72D-01  9.78D-01  8.10D-01
 E= -1035.46882285409     Delta-E=       -0.000001398087 Rises=F Damp=F
 DIIS: error= 2.49D-05 at cycle   9 NSaved=   9.
 NSaved= 9 IEnMin= 9 EnMin= -1035.46882285409     IErMin= 9 ErrMin= 2.49D-05
 ErrMax= 2.49D-05  0.00D+00 EMaxC= 1.00D-01 BMatC= 1.92D-07 BMatP= 1.57D-06
 IDIUse=1 WtCom= 1.00D+00 WtEn= 0.00D+00
 Coeff-Com:  0.567D-04-0.202D-03 0.736D-04 0.460D-04-0.186D-02 0.194D-01
 Coeff-Com:  0.186D+00 0.305D+00 0.492D+00
 Coeff:      0.567D-04-0.202D-03 0.736D-04 0.460D-04-0.186D-02 0.194D-01
 Coeff:      0.186D+00 0.305D+00 0.492D+00
 Gap=     0.091 Goal=   None    Shift=    0.000
 RMSDP=5.64D-07 MaxDP=2.28D-05 DE=-1.40D-06 OVMax= 1.52D-04

 Cycle  10  Pass 1  IDiag  1:
 RMSU=  4.56D-07    CP:  9.51D-01  7.13D-01  6.34D-01  3.87D-01  9.76D-01
                    CP:  6.75D-01  9.81D-01  8.20D-01  7.95D-01
 E= -1035.46882304959     Delta-E=       -0.000000195500 Rises=F Damp=F
 DIIS: error= 6.26D-06 at cycle  10 NSaved=  10.
 NSaved=10 IEnMin=10 EnMin= -1035.46882304959     IErMin=10 ErrMin= 6.26D-06
 ErrMax= 6.26D-06  0.00D+00 EMaxC= 1.00D-01 BMatC= 1.75D-08 BMatP= 1.92D-07
 IDIUse=1 WtCom= 1.00D+00 WtEn= 0.00D+00
 Coeff-Com:  0.482D-04-0.129D-03-0.114D-03 0.100D-03-0.155D-02 0.782D-02
 Coeff-Com:  0.766D-01 0.144D+00 0.301D+00 0.472D+00
 Coeff:      0.482D-04-0.129D-03-0.114D-03 0.100D-03-0.155D-02 0.782D-02
 Coeff:      0.766D-01 0.144D+00 0.301D+00 0.472D+00
 Gap=     0.091 Goal=   None    Shift=    0.000
 RMSDP=1.72D-07 MaxDP=1.26D-05 DE=-1.95D-07 OVMax= 4.13D-05

 Cycle  11  Pass 1  IDiag  1:
 RMSU=  1.32D-07    CP:  9.51D-01  7.13D-01  6.34D-01  3.87D-01  9.76D-01
                    CP:  6.75D-01  9.82D-01  8.27D-01  8.26D-01  8.22D-01
 E= -1035.46882306727     Delta-E=       -0.000000017679 Rises=F Damp=F
 DIIS: error= 1.12D-06 at cycle  11 NSaved=  11.
 NSaved=11 IEnMin=11 EnMin= -1035.46882306727     IErMin=11 ErrMin= 1.12D-06
 ErrMax= 1.12D-06  0.00D+00 EMaxC= 1.00D-01 BMatC= 8.49D-10 BMatP= 1.75D-08
 IDIUse=1 WtCom= 1.00D+00 WtEn= 0.00D+00
 Coeff-Com:  0.172D-04-0.391D-04-0.509D-04 0.422D-04-0.459D-03 0.115D-02
 Coeff-Com:  0.111D-01 0.261D-01 0.774D-01 0.225D+00 0.660D+00
 Coeff:      0.172D-04-0.391D-04-0.509D-04 0.422D-04-0.459D-03 0.115D-02
 Coeff:      0.111D-01 0.261D-01 0.774D-01 0.225D+00 0.660D+00
 Gap=     0.091 Goal=   None    Shift=    0.000
 RMSDP=3.97D-08 MaxDP=3.47D-06 DE=-1.77D-08 OVMax= 9.53D-06

 Cycle  12  Pass 1  IDiag  1:
 RMSU=  2.84D-08    CP:  9.51D-01  7.13D-01  6.34D-01  3.87D-01  9.76D-01
                    CP:  6.75D-01  9.82D-01  8.30D-01  8.31D-01  8.60D-01
                    CP:  9.20D-01
 E= -1035.46882306798     Delta-E=       -0.000000000708 Rises=F Damp=F
 DIIS: error= 4.28D-07 at cycle  12 NSaved=  12.
 NSaved=12 IEnMin=12 EnMin= -1035.46882306798     IErMin=12 ErrMin= 4.28D-07
 ErrMax= 4.28D-07  0.00D+00 EMaxC= 1.00D-01 BMatC= 1.30D-10 BMatP= 8.49D-10
 IDIUse=1 WtCom= 1.00D+00 WtEn= 0.00D+00
 Coeff-Com:  0.679D-05-0.157D-04-0.233D-04 0.188D-04-0.162D-03 0.182D-03
 Coeff-Com:  0.156D-02 0.564D-02 0.249D-01 0.969D-01 0.381D+00 0.490D+00
 Coeff:      0.679D-05-0.157D-04-0.233D-04 0.188D-04-0.162D-03 0.182D-03
 Coeff:      0.156D-02 0.564D-02 0.249D-01 0.969D-01 0.381D+00 0.490D+00
 Gap=     0.091 Goal=   None    Shift=    0.000
 RMSDP=1.37D-08 MaxDP=9.79D-07 DE=-7.08D-10 OVMax= 3.53D-06

 Cycle  13  Pass 1  IDiag  1:
 RMSU=  1.16D-08    CP:  9.51D-01  7.13D-01  6.34D-01  3.87D-01  9.76D-01
                    CP:  6.75D-01  9.82D-01  8.30D-01  8.36D-01  8.65D-01
                    CP:  9.22D-01  8.96D-01
 E= -1035.46882306811     Delta-E=       -0.000000000134 Rises=F Damp=F
 DIIS: error= 9.28D-08 at cycle  13 NSaved=  13.
 NSaved=13 IEnMin=13 EnMin= -1035.46882306811     IErMin=13 ErrMin= 9.28D-08
 ErrMax= 9.28D-08  0.00D+00 EMaxC= 1.00D-01 BMatC= 5.99D-12 BMatP= 1.30D-10
 IDIUse=1 WtCom= 1.00D+00 WtEn= 0.00D+00
 Coeff-Com:  0.353D-06-0.554D-06-0.437D-05 0.161D-05-0.536D-05-0.646D-04
 Coeff-Com: -0.751D-03-0.885D-03 0.114D-02 0.129D-01 0.767D-01 0.196D+00
 Coeff-Com:  0.715D+00
 Coeff:      0.353D-06-0.554D-06-0.437D-05 0.161D-05-0.536D-05-0.646D-04
 Coeff:     -0.751D-03-0.885D-03 0.114D-02 0.129D-01 0.767D-01 0.196D+00
 Coeff:      0.715D+00
 Gap=     0.091 Goal=   None    Shift=    0.000
 RMSDP=4.14D-09 MaxDP=2.16D-07 DE=-1.34D-10 OVMax= 8.61D-07

 Error on total polarization charges =  0.06805
 SCF Done:  E(RTPSS-TPSS) =  -1035.46882307     A.U. after   13 cycles
            NFock= 13  Conv=0.41D-08     -V/T= 2.0049
 KE= 1.030468885747D+03 PE=-6.686193556094D+03 EE= 2.479337290356D+03
 SMD-CDS (non-electrostatic) energy       (kcal/mol) =      -3.73
 (included in total energy above)
 Leave Link  502 at Tue Mar 30 20:17:27 2021, MaxMem=  5242880000 cpu:      8120.8
 (Enter /opt/nce/packages/global/g09/l601.exe)
 Copying SCF densities to generalized density rwf, IOpCl= 0 IROHF=0.

 **********************************************************************

            Population analysis using the SCF density.

 **********************************************************************

 Alpha  occ. eigenvalues --  -14.13899 -14.13898 -10.03382 -10.03381 -10.03351
 Alpha  occ. eigenvalues --  -10.03351 -10.02847 -10.02847  -9.99370  -9.99370
 Alpha  occ. eigenvalues --   -9.99370  -9.99370  -9.99311  -9.99311  -9.99301
 Alpha  occ. eigenvalues --   -9.99301  -9.99240  -9.99240  -9.98236  -9.98236
 Alpha  occ. eigenvalues --   -9.98235  -9.98235  -9.97948  -9.97948  -9.97908
 Alpha  occ. eigenvalues --   -9.97908  -0.92862  -0.89181  -0.80040  -0.79898
 Alpha  occ. eigenvalues --   -0.79055  -0.76792  -0.71072  -0.70222  -0.69729
 Alpha  occ. eigenvalues --   -0.69414  -0.69412  -0.68839  -0.66759  -0.63978
 Alpha  occ. eigenvalues --   -0.59541  -0.58573  -0.56232  -0.56195  -0.56122
 Alpha  occ. eigenvalues --   -0.54711  -0.52875  -0.51464  -0.50976  -0.48683
 Alpha  occ. eigenvalues --   -0.48668  -0.45288  -0.44379  -0.43884  -0.42802
 Alpha  occ. eigenvalues --   -0.41926  -0.41895  -0.41712  -0.40458  -0.39411
 Alpha  occ. eigenvalues --   -0.39185  -0.38482  -0.38478  -0.38316  -0.38089
 Alpha  occ. eigenvalues --   -0.37684  -0.37453  -0.33968  -0.33721  -0.33298
 Alpha  occ. eigenvalues --   -0.33242  -0.32737  -0.32251  -0.32163  -0.31098
 Alpha  occ. eigenvalues --   -0.31069  -0.31017  -0.29783  -0.29187  -0.28308
 Alpha  occ. eigenvalues --   -0.24211  -0.23760  -0.23458  -0.23382  -0.23154
 Alpha  occ. eigenvalues --   -0.22748  -0.19809  -0.14082
 Alpha virt. eigenvalues --   -0.04990  -0.04695  -0.04584  -0.04463  -0.03317
 Alpha virt. eigenvalues --   -0.02438  -0.02215   0.00798   0.03805   0.04602
 Alpha virt. eigenvalues --    0.04677   0.05978   0.06402   0.06781   0.07557
 Alpha virt. eigenvalues --    0.08088   0.08330   0.09020   0.09033   0.09178
 Alpha virt. eigenvalues --    0.09746   0.10132   0.10561   0.10927   0.11085
 Alpha virt. eigenvalues --    0.11248   0.11283   0.11479   0.11563   0.12921
 Alpha virt. eigenvalues --    0.13061   0.14238   0.14309   0.16365   0.17120
 Alpha virt. eigenvalues --    0.17222   0.17541   0.18136   0.18651   0.19222
 Alpha virt. eigenvalues --    0.19292   0.19445   0.19613   0.19808   0.20033
 Alpha virt. eigenvalues --    0.20128   0.20969   0.21001   0.21257   0.21657
 Alpha virt. eigenvalues --    0.21954   0.22012   0.22289   0.22628   0.22958
 Alpha virt. eigenvalues --    0.23017   0.23338   0.23643   0.23974   0.24622
 Alpha virt. eigenvalues --    0.25044   0.25345   0.26074   0.26353   0.26529
 Alpha virt. eigenvalues --    0.26730   0.26961   0.27197   0.27626   0.28260
 Alpha virt. eigenvalues --    0.28948   0.29329   0.30475   0.30560   0.30671
 Alpha virt. eigenvalues --    0.30958   0.31643   0.31902   0.32741   0.32857
 Alpha virt. eigenvalues --    0.33471   0.33567   0.33776   0.33973   0.33997
 Alpha virt. eigenvalues --    0.34454   0.34756   0.35528   0.35556   0.35663
 Alpha virt. eigenvalues --    0.36485   0.36619   0.36855   0.37295   0.38232
 Alpha virt. eigenvalues --    0.39607   0.40209   0.40243   0.40293   0.40389
 Alpha virt. eigenvalues --    0.40573   0.41062   0.41086   0.41350   0.41814
 Alpha virt. eigenvalues --    0.42488   0.43097   0.43139   0.43310   0.43610
 Alpha virt. eigenvalues --    0.43674   0.43675   0.44741   0.45102   0.45343
 Alpha virt. eigenvalues --    0.45703   0.46075   0.46482   0.46868   0.47018
 Alpha virt. eigenvalues --    0.47277   0.47508   0.47774   0.47892   0.47961
 Alpha virt. eigenvalues --    0.48308   0.48553   0.48802   0.49213   0.49786
 Alpha virt. eigenvalues --    0.50413   0.51751   0.52031   0.53202   0.53357
 Alpha virt. eigenvalues --    0.54558   0.54744   0.54780   0.56828   0.57542
 Alpha virt. eigenvalues --    0.57846   0.59304   0.59667   0.59818   0.60374
 Alpha virt. eigenvalues --    0.61587   0.61751   0.61828   0.62996   0.63069
 Alpha virt. eigenvalues --    0.63666   0.63685   0.64234   0.64566   0.65784
 Alpha virt. eigenvalues --    0.65815   0.66103   0.66167   0.66323   0.66807
 Alpha virt. eigenvalues --    0.67137   0.67325   0.67508   0.68282   0.69269
 Alpha virt. eigenvalues --    0.69687   0.70756   0.70772   0.71652   0.71668
 Alpha virt. eigenvalues --    0.71842   0.71906   0.72198   0.72386   0.72554
 Alpha virt. eigenvalues --    0.74125   0.74155   0.74288   0.74449   0.75110
 Alpha virt. eigenvalues --    0.75940   0.76455   0.76970   0.77303   0.78099
 Alpha virt. eigenvalues --    0.79396   0.80092   0.80487   0.81725   0.82001
 Alpha virt. eigenvalues --    0.82796   0.83534   0.83721   0.84046   0.84621
 Alpha virt. eigenvalues --    0.86076   0.86366   0.86496   0.86633   0.86769
 Alpha virt. eigenvalues --    0.86821   0.86905   0.88376   0.88613   0.89046
 Alpha virt. eigenvalues --    0.89425   0.91755   0.91905   0.92463   0.93189
 Alpha virt. eigenvalues --    0.93775   0.94750   0.95877   0.98207   0.98372
 Alpha virt. eigenvalues --    0.98709   0.99413   0.99569   1.00774   1.01690
 Alpha virt. eigenvalues --    1.01905   1.03580   1.03940   1.04408   1.04460
 Alpha virt. eigenvalues --    1.05011   1.05088   1.05727   1.05758   1.06701
 Alpha virt. eigenvalues --    1.07782   1.09343   1.09434   1.09788   1.10564
 Alpha virt. eigenvalues --    1.12088   1.12359   1.13315   1.13589   1.13815
 Alpha virt. eigenvalues --    1.14164   1.14305   1.15265   1.16657   1.17665
 Alpha virt. eigenvalues --    1.18176   1.18336   1.18345   1.19815   1.20359
 Alpha virt. eigenvalues --    1.20888   1.21350   1.21505   1.22286   1.23772
 Alpha virt. eigenvalues --    1.23904   1.24085   1.24147   1.24535   1.24700
 Alpha virt. eigenvalues --    1.25501   1.25820   1.26197   1.26533   1.27873
 Alpha virt. eigenvalues --    1.29184   1.30607   1.31110   1.31254   1.31877
 Alpha virt. eigenvalues --    1.33558   1.35172   1.35392   1.36010   1.36560
 Alpha virt. eigenvalues --    1.36609   1.36817   1.37034   1.38071   1.39151
 Alpha virt. eigenvalues --    1.40977   1.41306   1.42195   1.42827   1.43016
 Alpha virt. eigenvalues --    1.44060   1.44493   1.44734   1.45734   1.46363
 Alpha virt. eigenvalues --    1.46506   1.46743   1.47225   1.47462   1.47466
 Alpha virt. eigenvalues --    1.48468   1.49251   1.50530   1.50658   1.51092
 Alpha virt. eigenvalues --    1.52459   1.53044   1.53188   1.55369   1.55667
 Alpha virt. eigenvalues --    1.56298   1.56305   1.56443   1.57669   1.58307
 Alpha virt. eigenvalues --    1.59595   1.59864   1.60172   1.60797   1.61183
 Alpha virt. eigenvalues --    1.61601   1.61755   1.62455   1.62638   1.63251
 Alpha virt. eigenvalues --    1.63353   1.63794   1.65488   1.66278   1.66534
 Alpha virt. eigenvalues --    1.67275   1.67353   1.67506   1.67550   1.68190
 Alpha virt. eigenvalues --    1.68404   1.68941   1.69668   1.69991   1.70976
 Alpha virt. eigenvalues --    1.71195   1.71340   1.72107   1.72695   1.73667
 Alpha virt. eigenvalues --    1.74187   1.74252   1.74691   1.75478   1.76901
 Alpha virt. eigenvalues --    1.77578   1.79440   1.80283   1.82469   1.83025
 Alpha virt. eigenvalues --    1.83277   1.84060   1.85509   1.85812   1.86852
 Alpha virt. eigenvalues --    1.86856   1.87610   1.89734   1.90355   1.90471
 Alpha virt. eigenvalues --    1.91063   1.92147   1.92756   1.92912   1.93634
 Alpha virt. eigenvalues --    1.97316   1.97561   1.98232   1.99108   1.99184
 Alpha virt. eigenvalues --    1.99896   1.99988   2.01348   2.02434   2.03097
 Alpha virt. eigenvalues --    2.03667   2.04178   2.04463   2.05428   2.07649
 Alpha virt. eigenvalues --    2.07700   2.09375   2.09539   2.10071   2.11320
 Alpha virt. eigenvalues --    2.11854   2.11906   2.12414   2.13907   2.14109
 Alpha virt. eigenvalues --    2.15499   2.15864   2.16578   2.16619   2.16705
 Alpha virt. eigenvalues --    2.17727   2.19863   2.20984   2.21357   2.21695
 Alpha virt. eigenvalues --    2.23262   2.23887   2.25346   2.25459   2.25725
 Alpha virt. eigenvalues --    2.26517   2.27041   2.29455   2.30179   2.30737
 Alpha virt. eigenvalues --    2.31481   2.32796   2.36668   2.37423   2.37762
 Alpha virt. eigenvalues --    2.37854   2.40190   2.41156   2.43400   2.45314
 Alpha virt. eigenvalues --    2.45333   2.45814   2.46411   2.46880   2.47871
 Alpha virt. eigenvalues --    2.49266   2.50064   2.50940   2.51903   2.52774
 Alpha virt. eigenvalues --    2.54130   2.54203   2.54496   2.56623   2.56672
 Alpha virt. eigenvalues --    2.56943   2.56952   2.57917   2.58380   2.58705
 Alpha virt. eigenvalues --    2.58815   2.59742   2.59832   2.60350   2.61418
 Alpha virt. eigenvalues --    2.61479   2.61676   2.62234   2.62354   2.63098
 Alpha virt. eigenvalues --    2.63561   2.64608   2.64862   2.65047   2.65063
 Alpha virt. eigenvalues --    2.65457   2.67240   2.67931   2.68090   2.68226
 Alpha virt. eigenvalues --    2.68280   2.68324   2.69236   2.69408   2.69776
 Alpha virt. eigenvalues --    2.70418   2.70675   2.70912   2.71288   2.71620
 Alpha virt. eigenvalues --    2.71688   2.72598   2.73521   2.73912   2.74409
 Alpha virt. eigenvalues --    2.74422   2.75081   2.75307   2.75488   2.76424
 Alpha virt. eigenvalues --    2.77166   2.77472   2.77652   2.78096   2.78846
 Alpha virt. eigenvalues --    2.81852   2.81889   2.81984   2.82133   2.83134
 Alpha virt. eigenvalues --    2.83154   2.83287   2.83609   2.83952   2.84036
 Alpha virt. eigenvalues --    2.86032   2.86145   2.86297   2.86403   2.87543
 Alpha virt. eigenvalues --    2.87862   2.87871   2.88684   2.89237   2.89273
 Alpha virt. eigenvalues --    2.89681   2.90007   2.91233   2.91510   2.91644
 Alpha virt. eigenvalues --    2.93909   2.93927   2.94421   2.96035   2.96557
 Alpha virt. eigenvalues --    2.96930   2.98607   3.00541   3.01933   3.02018
 Alpha virt. eigenvalues --    3.02855   3.03378   3.03641   3.04445   3.06336
 Alpha virt. eigenvalues --    3.06502   3.07226   3.08114   3.09050   3.09079
 Alpha virt. eigenvalues --    3.10457   3.10464   3.11163   3.11182   3.11608
 Alpha virt. eigenvalues --    3.11823   3.12937   3.12961   3.13096   3.13196
 Alpha virt. eigenvalues --    3.13215   3.14471   3.14476   3.14598   3.14943
 Alpha virt. eigenvalues --    3.16175   3.16953   3.17072   3.17615   3.18187
 Alpha virt. eigenvalues --    3.18370   3.19932   3.20132   3.20420   3.20933
 Alpha virt. eigenvalues --    3.22141   3.22173   3.22775   3.22914   3.23686
 Alpha virt. eigenvalues --    3.23736   3.24298   3.24829   3.25699   3.26410
 Alpha virt. eigenvalues --    3.26989   3.28277   3.28443   3.28473   3.29939
 Alpha virt. eigenvalues --    3.30296   3.31018   3.31024   3.31720   3.32860
 Alpha virt. eigenvalues --    3.33267   3.33337   3.34438   3.34796   3.35547
 Alpha virt. eigenvalues --    3.35986   3.36185   3.36190   3.36371   3.36618
 Alpha virt. eigenvalues --    3.38008   3.38859   3.39533   3.39947   3.40257
 Alpha virt. eigenvalues --    3.40526   3.40767   3.41165   3.41303   3.41637
 Alpha virt. eigenvalues --    3.42218   3.42432   3.43323   3.43771   3.45939
 Alpha virt. eigenvalues --    3.46096   3.47356   3.47518   3.47671   3.47738
 Alpha virt. eigenvalues --    3.47912   3.49251   3.49540   3.49862   3.50064
 Alpha virt. eigenvalues --    3.50307   3.50701   3.51959   3.52830   3.53207
 Alpha virt. eigenvalues --    3.54069   3.54368   3.54988   3.55435   3.55577
 Alpha virt. eigenvalues --    3.55696   3.56520   3.56791   3.58904   3.59339
 Alpha virt. eigenvalues --    3.61858   3.62379   3.63231   3.65111   3.65919
 Alpha virt. eigenvalues --    3.66614   3.67179   3.67277   3.68747   3.71064
 Alpha virt. eigenvalues --    3.71079   3.71416   3.71864   3.72915   3.74197
 Alpha virt. eigenvalues --    3.76166   3.76822   3.78875   3.79473   3.79539
[...]
    17  H   -0.000104  -0.000013   0.000002   0.000002  -0.000000  -0.000000
    18  H    0.000022   0.000003  -0.000003  -0.000003   0.000006   0.000006
    19  N    6.314610  -0.002727   0.000331   0.000331   0.000005   0.000006
    20  C   -0.002727   5.498839   0.399619   0.399678   0.026112   0.026145
    21  C    0.000331   0.399619   5.025673   0.049286   0.339162  -0.101693
    22  C    0.000331   0.399678   0.049286   5.025704  -0.101678   0.339110
    23  C    0.000005   0.026112   0.339162  -0.101678   5.106621   0.051984
    24  C    0.000006   0.026145  -0.101693   0.339110   0.051984   5.106684
    25  C    0.000001  -0.140683   0.061507   0.061516   0.362090   0.362073
    26  H   -0.000000   0.018570  -0.059596  -0.004196   0.441856   0.015049
    27  H   -0.000000   0.018567  -0.004194  -0.059595   0.015048   0.441854
    28  H   -0.000001  -0.070899   0.458027   0.012302  -0.063554  -0.004061
    29  H   -0.000001  -0.070883   0.012303   0.458021  -0.004060  -0.063562
    30  H    0.000000  -0.004500   0.015195   0.015196  -0.060706  -0.060708
    31  H   -0.000104  -0.000013   0.000002   0.000002  -0.000000  -0.000000
    32  N   -0.000708   0.066801  -0.035815  -0.035832   0.013227   0.013230
    33  C    0.066801   0.000195  -0.000012  -0.000012  -0.000001  -0.000001
    34  C   -0.035819  -0.000012   0.000016  -0.000006   0.000001  -0.000000
    35  C   -0.035828  -0.000012  -0.000006   0.000016  -0.000000   0.000001
    36  C    0.013226  -0.000001   0.000001  -0.000000   0.000000  -0.000000
    37  H   -0.001923   0.000006  -0.000000   0.000000  -0.000000  -0.000000
    38  C    0.013231  -0.000001  -0.000000   0.000001  -0.000000   0.000000
    39  H   -0.001929   0.000006   0.000000  -0.000000  -0.000000  -0.000000
    40  C    0.001141   0.000000   0.000000   0.000000   0.000000   0.000000
    41  H   -0.000424  -0.000000  -0.000000   0.000000  -0.000000   0.000000
    42  H   -0.000424  -0.000000   0.000000  -0.000000   0.000000  -0.000000
    43  H   -0.000003   0.000000  -0.000000  -0.000000   0.000000   0.000000
    44  H   -0.000182   0.005517   0.000313   0.000312  -0.000597  -0.000597
              25         26         27         28         29         30
     1  C    0.000006  -0.000000  -0.000000  -0.000003  -0.000003   0.000000
     2  C   -0.000004   0.000000   0.000000  -0.000013  -0.000013  -0.000000
     3  C    0.000086  -0.000003  -0.000003   0.000417   0.000417   0.000001
     4  C    0.000563  -0.000036  -0.000036   0.002265   0.002267   0.000017
     5  C    0.000408   0.000022   0.000022   0.001021   0.001022  -0.000017
     6  C   -0.000036  -0.000002  -0.000002   0.000053   0.000053  -0.000001
     7  C    0.000563  -0.000036  -0.000036   0.002266   0.002266   0.000017
     8  C    0.000086  -0.000003  -0.000003   0.000417   0.000417   0.000001
     9  C   -0.000004   0.000000   0.000000  -0.000013  -0.000013  -0.000000
    10  H   -0.000000  -0.000000  -0.000000  -0.000001  -0.000001  -0.000000
    11  C    0.000006  -0.000000  -0.000000  -0.000003  -0.000003   0.000000
    12  C   -0.000036  -0.000002  -0.000002   0.000053   0.000053  -0.000001
    13  C    0.000408   0.000022   0.000022   0.001021   0.001023  -0.000017
    14  H   -0.000000  -0.000000  -0.000000  -0.000001  -0.000001  -0.000000
    15  H    0.001102  -0.000016  -0.000016   0.000090   0.000090   0.000019
    16  H   -0.000004   0.000000   0.000000   0.000002   0.000002  -0.000000
    17  H    0.000000   0.000000   0.000000  -0.000000  -0.000000   0.000000
    18  H   -0.000004   0.000000   0.000000   0.000002   0.000002  -0.000000
    19  N    0.000001  -0.000000  -0.000000  -0.000001  -0.000001   0.000000
    20  C   -0.140683   0.018570   0.018567  -0.070899  -0.070883  -0.004500
    21  C    0.061507  -0.059596  -0.004194   0.458027   0.012303   0.015195
    22  C    0.061516  -0.004196  -0.059595   0.012302   0.458021   0.015196
    23  C    0.362090   0.441856   0.015048  -0.063554  -0.004060  -0.060706
    24  C    0.362073   0.015049   0.441854  -0.004061  -0.063562  -0.060708
    25  C    5.051850  -0.064819  -0.064815   0.014996   0.014995   0.441294
    26  H   -0.064819   0.531553  -0.000261  -0.009634   0.000049  -0.008876
    27  H   -0.064815  -0.000261   0.531550   0.000049  -0.009634  -0.008876
    28  H    0.014996  -0.009634   0.000049   0.525295  -0.000217  -0.000183
    29  H    0.014995   0.000049  -0.009634  -0.000217   0.525296  -0.000183
    30  H    0.441294  -0.008876  -0.008876  -0.000183  -0.000183   0.529158
    31  H    0.000000   0.000000   0.000000  -0.000000  -0.000000   0.000000
    32  N    0.001141  -0.000425  -0.000424  -0.001922  -0.001930  -0.000003
    33  C    0.000000  -0.000000  -0.000000   0.000006   0.000006   0.000000
    34  C    0.000000  -0.000000   0.000000  -0.000000   0.000000  -0.000000
    35  C    0.000000   0.000000  -0.000000   0.000000  -0.000000  -0.000000
    36  C    0.000000  -0.000000   0.000000  -0.000000  -0.000000   0.000000
    37  H    0.000000   0.000000  -0.000000   0.000001   0.000000  -0.000000
    38  C    0.000000   0.000000  -0.000000  -0.000000  -0.000000   0.000000
    39  H    0.000000  -0.000000   0.000000   0.000000   0.000001  -0.000000
    40  C    0.000000   0.000000   0.000000   0.000000   0.000000  -0.000000
    41  H    0.000000   0.000000  -0.000000   0.000000  -0.000000   0.000000
    42  H    0.000000  -0.000000   0.000000  -0.000000   0.000000   0.000000
    43  H   -0.000000   0.000000   0.000000  -0.000000  -0.000000  -0.000000
    44  H    0.001102  -0.000016  -0.000016   0.000090   0.000090   0.000019
              31         32         33         34         35         36
     1  C    0.461683   0.001077  -0.007978   0.000372   0.000373   0.000130
     2  C   -0.078496   0.000213  -0.015159  -0.003518  -0.003523  -0.002225
     3  C    0.020784  -0.054261  -0.080256   0.005856   0.005870  -0.002045
     4  C   -0.006891   0.427829   0.017402   0.001354   0.001357  -0.000417
     5  C    0.020757  -0.082367  -0.000854  -0.000135  -0.000136   0.000010
     6  C   -0.072938   0.005809   0.000593  -0.000005  -0.000005  -0.000002
     7  C   -0.000016   0.427830   0.017403   0.001356   0.001355  -0.000417
     8  C    0.000048  -0.054261  -0.080256   0.005868   0.005858  -0.002047
     9  C   -0.000001   0.000213  -0.015160  -0.003523  -0.003519  -0.002228
    10  H   -0.000000  -0.000182   0.005518   0.000310   0.000314  -0.000596
    11  C    0.000000   0.001077  -0.007978   0.000373   0.000373   0.000130
    12  C   -0.000000   0.005809   0.000593  -0.000005  -0.000005  -0.000002
    13  C   -0.000000  -0.082367  -0.000854  -0.000136  -0.000135   0.000010
    14  H   -0.008680  -0.000182   0.005517   0.000316   0.000308  -0.000598
    15  H   -0.000196  -0.011457   0.000018  -0.000002  -0.000002   0.000000
    16  H   -0.009889  -0.000104  -0.000013   0.000002   0.000002  -0.000000
    17  H   -0.000000   0.000022   0.000003  -0.000002  -0.000003   0.000006
    18  H    0.000000  -0.000104  -0.000013   0.000002   0.000002  -0.000000
    19  N   -0.000104  -0.000708   0.066801  -0.035819  -0.035828   0.013226
    20  C   -0.000013   0.066801   0.000195  -0.000012  -0.000012  -0.000001
    21  C    0.000002  -0.035815  -0.000012   0.000016  -0.000006   0.000001
    22  C    0.000002  -0.035832  -0.000012  -0.000006   0.000016  -0.000000
    23  C   -0.000000   0.013227  -0.000001   0.000001  -0.000000   0.000000
    24  C   -0.000000   0.013230  -0.000001  -0.000000   0.000001  -0.000000
    25  C    0.000000   0.001141   0.000000   0.000000   0.000000   0.000000
    26  H    0.000000  -0.000425  -0.000000  -0.000000   0.000000  -0.000000
    27  H    0.000000  -0.000424  -0.000000   0.000000  -0.000000   0.000000
    28  H   -0.000000  -0.001922   0.000006  -0.000000   0.000000  -0.000000
    29  H   -0.000000  -0.001930   0.000006   0.000000  -0.000000  -0.000000
    30  H    0.000000  -0.000003   0.000000  -0.000000  -0.000000   0.000000
    31  H    0.541466   0.000022   0.000003  -0.000003  -0.000002   0.000006
    32  N    0.000022   6.314611  -0.002727   0.000331   0.000331   0.000005
    33  C    0.000003  -0.002727   5.498839   0.399654   0.399643   0.026112
    34  C   -0.000003   0.000331   0.399654   5.025650   0.049286   0.339183
    35  C   -0.000002   0.000331   0.399643   0.049286   5.025727  -0.101681
    36  C    0.000006   0.000005   0.026112   0.339183  -0.101681   5.106605
    37  H    0.000002  -0.000001  -0.070896   0.458026   0.012303  -0.063554
    38  C    0.000006   0.000006   0.026145  -0.101690   0.339090   0.051984
    39  H    0.000002  -0.000001  -0.070885   0.012303   0.458022  -0.004060
    40  C   -0.000004   0.000001  -0.140683   0.061500   0.061523   0.362093
    41  H    0.000000  -0.000000   0.018570  -0.059597  -0.004196   0.441857
    42  H    0.000000  -0.000000   0.018567  -0.004194  -0.059595   0.015048
    43  H   -0.000000   0.000000  -0.004500   0.015195   0.015196  -0.060707
    44  H   -0.000000  -0.011457   0.000018  -0.000002  -0.000002   0.000000
              37         38         39         40         41         42
     1  C    0.000053   0.000130   0.000053  -0.000036  -0.000002  -0.000002
     2  C    0.001019  -0.002230   0.001024   0.000408   0.000023   0.000022
     3  C    0.002267  -0.002046   0.002265   0.000563  -0.000036  -0.000036
     4  C    0.000417  -0.000417   0.000417   0.000086  -0.000003  -0.000003
     5  C   -0.000013   0.000010  -0.000013  -0.000004   0.000000   0.000000
     6  C   -0.000003  -0.000002  -0.000003   0.000006  -0.000000  -0.000000
     7  C    0.000417  -0.000417   0.000417   0.000086  -0.000003  -0.000003
     8  C    0.002264  -0.002044   0.002269   0.000563  -0.000036  -0.000036
     9  C    0.001022  -0.002227   0.001021   0.000408   0.000022   0.000022
    10  H    0.000090  -0.000598   0.000090   0.001102  -0.000016  -0.000016
    11  C    0.000053   0.000130   0.000053  -0.000036  -0.000002  -0.000002
    12  C   -0.000003  -0.000002  -0.000003   0.000006  -0.000000  -0.000000
    13  C   -0.000013   0.000010  -0.000013  -0.000004   0.000000   0.000000
    14  H    0.000091  -0.000596   0.000090   0.001102  -0.000016  -0.000016
    15  H   -0.000001   0.000000  -0.000001  -0.000000  -0.000000  -0.000000
    16  H   -0.000000  -0.000000  -0.000000   0.000000   0.000000   0.000000
    17  H    0.000002   0.000006   0.000002  -0.000004   0.000000   0.000000
    18  H   -0.000000  -0.000000  -0.000000   0.000000   0.000000   0.000000
    19  N   -0.001923   0.013231  -0.001929   0.001141  -0.000424  -0.000424
    20  C    0.000006  -0.000001   0.000006   0.000000  -0.000000  -0.000000
    21  C   -0.000000  -0.000000   0.000000   0.000000  -0.000000   0.000000
    22  C    0.000000   0.000001  -0.000000   0.000000   0.000000  -0.000000
    23  C   -0.000000  -0.000000  -0.000000   0.000000  -0.000000   0.000000
    24  C   -0.000000   0.000000  -0.000000   0.000000   0.000000  -0.000000
    25  C    0.000000   0.000000   0.000000   0.000000   0.000000   0.000000
    26  H    0.000000   0.000000  -0.000000   0.000000   0.000000  -0.000000
    27  H   -0.000000  -0.000000   0.000000   0.000000  -0.000000   0.000000
    28  H    0.000001  -0.000000   0.000000   0.000000   0.000000  -0.000000
    29  H    0.000000  -0.000000   0.000001   0.000000  -0.000000   0.000000
    30  H   -0.000000   0.000000  -0.000000  -0.000000   0.000000   0.000000
    31  H    0.000002   0.000006   0.000002  -0.000004   0.000000   0.000000
    32  N   -0.000001   0.000006  -0.000001   0.000001  -0.000000  -0.000000
    33  C   -0.070896   0.026145  -0.070885  -0.140683   0.018570   0.018567
    34  C    0.458026  -0.101690   0.012303   0.061500  -0.059597  -0.004194
    35  C    0.012303   0.339090   0.458022   0.061523  -0.004196  -0.059595
    36  C   -0.063554   0.051984  -0.004060   0.362093   0.441857   0.015048
    37  H    0.525295  -0.004061  -0.000217   0.014996  -0.009634   0.000049
    38  C   -0.004061   5.106700  -0.063561   0.362070   0.015049   0.441853
    39  H   -0.000217  -0.063561   0.525296   0.014995   0.000049  -0.009634
    40  C    0.014996   0.362070   0.014995   5.051850  -0.064819  -0.064815
    41  H   -0.009634   0.015049   0.000049  -0.064819   0.531552  -0.000261
    42  H    0.000049   0.441853  -0.009634  -0.064815  -0.000261   0.531551
    43  H   -0.000183  -0.060707  -0.000183   0.441294  -0.008876  -0.008875
    44  H   -0.000001   0.000000  -0.000001  -0.000000  -0.000000  -0.000000
              43         44
     1  C   -0.000001   0.000002
     2  C   -0.000017  -0.000002
     3  C    0.000017   0.000202
     4  C    0.000001  -0.001495
     5  C   -0.000000   0.000064
     6  C    0.000000  -0.000007
     7  C    0.000001  -0.061111
     8  C    0.000017   0.016855
     9  C   -0.000017  -0.003819
    10  H    0.000019   0.000008
    11  C   -0.000001   0.013289
    12  C    0.000000  -0.055080
    13  C   -0.000000   0.444599
    14  H    0.000019   0.000000
    15  H   -0.000000   0.000029
    16  H    0.000000  -0.000000
    17  H   -0.000000  -0.000196
    18  H    0.000000  -0.008680
    19  N   -0.000003  -0.000182
    20  C    0.000000   0.005517
    21  C   -0.000000   0.000313
    22  C   -0.000000   0.000312
    23  C    0.000000  -0.000597
    24  C    0.000000  -0.000597
    25  C   -0.000000   0.001102
    26  H    0.000000  -0.000016
    27  H    0.000000  -0.000016
    28  H   -0.000000   0.000090
    29  H   -0.000000   0.000090
    30  H   -0.000000   0.000019
    31  H   -0.000000  -0.000000
    32  N    0.000000  -0.011457
    33  C   -0.004500   0.000018
    34  C    0.015195  -0.000002
    35  C    0.015196  -0.000002
    36  C   -0.060707   0.000000
    37  H   -0.000183  -0.000001
    38  C   -0.060707   0.000000
    39  H   -0.000183  -0.000001
    40  C    0.441294  -0.000000
    41  H   -0.008876  -0.000000
    42  H   -0.008875  -0.000000
    43  H    0.529158  -0.000000
    44  H   -0.000000   0.511541
 Mulliken charges:
               1
     1  C   -0.189078
     2  C   -0.205573
     3  C    0.058515
     4  C    0.058518
     5  C   -0.205572
     6  C   -0.189078
     7  C    0.058515
     8  C    0.058518
     9  C   -0.205572
    10  H    0.149209
    11  C   -0.189078
    12  C   -0.189078
    13  C   -0.205573
    14  H    0.149209
    15  H    0.149210
    16  H    0.132450
    17  H    0.132450
    18  H    0.132450
    19  N    0.096944
    20  C   -0.003368
    21  C   -0.168287
    22  C   -0.168318
    23  C   -0.115828
    24  C   -0.115821
    25  C   -0.105384
    26  H    0.140798
    27  H    0.140800
    28  H    0.132130
    29  H    0.132130
    30  H    0.143154
    31  H    0.132450
    32  N    0.096943
    33  C   -0.003367
    34  C   -0.168304
    35  C   -0.168301
    36  C   -0.115826
    37  H    0.132131
    38  C   -0.115822
    39  H    0.132128
    40  C   -0.105384
    41  H    0.140799
    42  H    0.140799
    43  H    0.143154
    44  H    0.149209
 Sum of Mulliken charges =  -0.00000
 Mulliken charges with hydrogens summed into heavy atoms:
               1
     1  C   -0.056628
     2  C   -0.056364
     3  C    0.058515
     4  C    0.058518
     5  C   -0.056363
     6  C   -0.056628
     7  C    0.058515
     8  C    0.058518
     9  C   -0.056363
    11  C   -0.056628
    12  C   -0.056628
    13  C   -0.056364
    19  N    0.096944
    20  C   -0.003368
    21  C   -0.036158
    22  C   -0.036188
    23  C    0.024971
    24  C    0.024979
    25  C    0.037770
    32  N    0.096943
    33  C   -0.003367
    34  C   -0.036173
    35  C   -0.036173
    36  C    0.024972
    38  C    0.024977
    40  C    0.037770
 Electronic spatial extent (au):  <R**2>=           9065.0022
 Charge=             -0.0000 electrons
 Dipole moment (field-independent basis, Debye):
    X=             -0.0000    Y=             -0.0000    Z=             -0.0001  Tot=              0.0001
 Quadrupole moment (field-independent basis, Debye-Ang):
   XX=           -110.9646   YY=           -155.7755   ZZ=           -143.9600
   XY=             -0.0000   XZ=             -0.0004   YZ=              0.0025
 Traceless Quadrupole moment (field-independent basis, Debye-Ang):
   XX=             25.9354   YY=            -18.8755   ZZ=             -7.0600
   XY=             -0.0000   XZ=             -0.0004   YZ=              0.0025
 Octapole moment (field-independent basis, Debye-Ang**2):
  XXX=             -0.0000  YYY=             -0.0002  ZZZ=              0.0040  XYY=             -0.0000
  XXY=             -0.0001  XXZ=              0.0007  XZZ=             -0.0000  YZZ=             -0.0000
  YYZ=             -0.0034  XYZ=              0.0124
 Hexadecapole moment (field-independent basis, Debye-Ang**3):
 XXXX=          -7238.7633 YYYY=          -3033.6496 ZZZZ=           -609.8425 XXXY=             -0.0010
 XXXZ=             -0.0132 YYYX=              0.0005 YYYZ=              0.0194 ZZZX=             -0.0090
 ZZZY=              0.0839 XXYY=          -2098.4584 XXZZ=          -1369.0756 YYZZ=           -745.7640
 XXYZ=              0.0723 YYXZ=             -0.0127 ZZXY=             -0.0004
 N-N= 2.139356140214D+03 E-N=-6.683216302583D+03  KE= 1.030587135350D+03
 Leave Link  601 at Wed Mar 31 02:56:29 2021, MaxMem=  5242880000 cpu:         5.7
 (Enter /opt/nce/packages/global/g09/l9999.exe)
 1\1\GINC-CN017\SP\RTPSSTPSS TD-FC\Gen\C24H18N2\PNG4RJV\31-Mar-2021\0\\
 #p TPSSTPSS chkbasis geom=allcheck Guess=Read int=ultrafine scrf=(SMD,
 solvent=n,n-DiMethylFormamide) td=(NStates=30)\\Title\\0,1\C,0,0.69393
 61582,3.6660137525,-0.0000919242\C,0,1.3883791935,2.4478346151,-0.0000
 700102\C,0,0.7090282139,1.226267812,-0.0000429739\C,0,-0.7090535759,1.
 2262530465,-0.0000775063\C,0,-1.3884343391,2.447802275,-0.0000800997\C
 ,0,-0.694020864,3.6659977756,-0.0000879892\C,0,-0.7090282638,-1.226270
 3799,0.0000331054\C,0,0.7090540277,-1.2262554054,0.0001102503\C,0,1.38
 84333621,-2.4478056435,0.0003294814\H,0,2.4732500432,-2.4484548269,0.0
 004263432\C,0,0.6940196832,-3.6660010773,0.000410005\C,0,-0.6939374052
 ,-3.6660166076,0.0002859405\C,0,-1.3883793532,-2.447836875,0.000108420
 8\H,0,2.4731953016,2.4485119915,-0.000072742\H,0,-2.4732509266,2.44845
 12933,-0.0000927079\H,0,-1.2526221388,4.5977497971,-0.000093537\H,0,1.
 2526210358,-4.5977530229,0.0005702819\H,0,-1.2525179951,-4.597781011,0
 .0003306476\N,0,1.400812316,0.0000128299,-0.0000299835\C,0,-2.84043090
 16,-0.0000280383,-0.0000709905\C,0,-3.5356979344,-0.0000120226,-1.2125
 451842\C,0,-3.5355875098,-0.0000526923,1.2124693516\C,0,-4.931602727,-
 0.0000225818,-1.2097316643\C,0,-4.9314909717,-0.0000658737,1.209782981
 8\C,0,-5.6301636693,-0.0000507003,0.0000570655\H,0,-5.4725416201,-0.00
 00110597,-2.1521570145\H,0,-5.4723442899,-0.0000856774,2.152257536\H,0
 ,-2.981768071,0.0000068836,-2.1473695716\H,0,-2.9815755543,-0.00006201
 95,2.1472451644\H,0,-6.7168793846,-0.0000596056,0.0001073688\H,0,1.252
 5159133,4.5977789695,-0.0001155572\N,0,-1.4008121205,-0.0000162098,-0.
 0001462792\C,0,2.8404304832,0.000025283,-0.0000424181\C,0,3.5356222384
 ,-0.0003644265,-1.2125613187\C,0,3.5356630331,0.0004237005,1.212452855
 5\C,0,4.9315260331,-0.0003560814,-1.2098356021\H,0,2.9816336116,-0.000
 6651821,-2.1473507646\C,0,4.9315674382,0.0004405282,1.2096788556\H,0,2
 .9817095651,0.00071494,2.1472630881\C,0,5.6301637285,0.0000490557,-0.0
 000899839\H,0,5.472406675,-0.0006576839,-2.1522943489\H,0,5.4724791002
 ,0.0007509212,2.152119794\H,0,6.71687927,0.0000582287,-0.0001092587\H,
 0,-2.4731958089,-2.4485129944,0.0000248927\\Version=ES64L-G09RevE.01\S
 tate=1-A\HF=-1035.4694068\RMSD=7.217e-09\PG=C01 [X(C24H18N2)]\\@


 NEVER LOSE YOUR IGNORANCE, IT CAN'T BE REPLACED.
   -- ANDY CAPP
 Job cpu time:       1 days  4 hours 45 minutes 12.2 seconds.
 File lengths (MBytes):  RWF=   3088 Int=      0 D2E=      0 Chk=    745 Scr=      1
 Normal termination of Gaussian 09 at Wed Mar 31 02:56:30 2021.
