 Entering Gaussian System, Link 0=g09
 Input=/home/png4rjv/fotokatalizis/benchmark/OPCs/PTZ_2_M06_def2TZVP.gjf
 Output=/home/png4rjv/fotokatalizis/benchmark/OPCs/PTZ_2_M06_def2TZVP.log
 Initial command:
 /opt/nce/packages/global/g09/l1.exe "/home/png4rjv/fotokatalizis/benchmark/OPCs/PTZ_2_M06_def2TZVP/Gau-17471.inp" -scrdir="/home/png4rjv/fotokatalizis/benchmark/OPCs/PTZ_2_M06_def2TZVP/"
 Default is to use a total of  12 processors:
                               12 via shared-memory
                                1 via Linda
 Entering Link 1 = /opt/nce/packages/global/g09/l1.exe PID=     17472.
  
 Copyright (c) 1988,1990,1992,1993,1995,1998,2003,2009,2015,
            Gaussian, Inc.  All Rights Reserved.
  
 This is part of the Gaussian(R) 09 program.  It is based on
 the Gaussian(R) 03 system (copyright 2003, Gaussian, Inc.),
 the Gaussian(R) 98 system (copyright 1998, Gaussian, Inc.),
 the Gaussian(R) 94 system (copyright 1995, Gaussian, Inc.),
 the Gaussian 92(TM) system (copyright 1992, Gaussian, Inc.),
 the Gaussian 90(TM) system (copyright 1990, Gaussian, Inc.),
 the Gaussian 88(TM) system (copyright 1988, Gaussian, Inc.),
 the Gaussian 86(TM) system (copyright 1986, Carnegie Mellon
 University), and the Gaussian 82(TM) system (copyright 1983,
 Carnegie Mellon University). Gaussian is a federally registered
 trademark of Gaussian, Inc.
  
 This software contains proprietary and confidential information,
 including trade secrets, belonging to Gaussian, Inc.
  
 This software is provided under written license and may be
 used, copied, transmitted, or stored only in accord with that
 written license.
  
 The following legend is applicable only to US Government
 contracts under FAR:
  
                    RESTRICTED RIGHTS LEGEND
  
 Use, reproduction and disclosure by the US Government is
 subject to restrictions as set forth in subparagraphs (a)
 and (c) of the Commercial Computer Software - Restricted
 Rights clause in FAR 52.227-19.
  
 Gaussian, Inc.
 340 Quinnipiac St., Bldg. 40, Wallingford CT 06492
  
  
 ---------------------------------------------------------------
 Warning -- This program may not be used in any manner that
 competes with the business of Gaussian, Inc. or will provide
 assistance to any competitor of Gaussian, Inc.  The licensee
 of this program is prohibited from giving any competitor of
 Gaussian, Inc. access to this program.  By using this program,
 the user acknowledges that Gaussian, Inc. is engaged in the
 business of creating and licensing software in the field of
 computational chemistry and represents and warrants to the
 licensee that it is not a competitor of Gaussian, Inc. and that
 it will not use this program in any manner prohibited above.
 ---------------------------------------------------------------
  

 Cite this work as:
 Gaussian 09, Revision E.01,
 M. J. Frisch, G. W. Trucks, H. B. Schlegel, G. E. Scuseria, 
 M. A. Robb, J. R. Cheeseman, G. Scalmani, V. Barone, B. Mennucci, 
 G. A. Petersson, H. Nakatsuji, M. Caricato, X. Li, H. P. Hratchian, 
 A. F. Izmaylov, J. Bloino, G. Zheng, J. L. Sonnenberg, M. Hada, 
 M. Ehara, K. Toyota, R. Fukuda, J. Hasegawa, M. Ishida, T. Nakajima, 
 Y. Honda, O. Kitao, H. Nakai, T. Vreven, J. A. Montgomery, Jr., 
 J. E. Peralta, F. Ogliaro, M. Bearpark, J. J. Heyd, E. Brothers, 
 K. N. Kudin, V. N. Staroverov, T. Keith, R. Kobayashi, J. Normand, 
 K. Raghavachari, A. Rendell, J. C. Burant, S. S. Iyengar, J. Tomasi, 
 M. Cossi, N. Rega, J. M. Millam, M. Klene, J. E. Knox, J. B. Cross, 
 V. Bakken, C. Adamo, J. Jaramillo, R. Gomperts, R. E. Stratmann, 
 O. Yazyev, A. J. Austin, R. Cammi, C. Pomelli, J. W. Ochterski, 
 R. L. Martin, K. Morokuma, V. G. Zakrzewski, G. A. Voth, 
 P. Salvador, J. J. Dannenberg, S. Dapprich, A. D. Daniels, 
 O. Farkas, J. B. Foresman, J. V. Ortiz, J. Cioslowski, 
 and D. J. Fox, Gaussian, Inc., Wallingford CT, 2013.
 
 ******************************************
 Gaussian 09:  ES64L-G09RevE.01 30-Nov-2015
                21-Feb-2021 
 ******************************************
 %chk=cp.chk
 Default route:  MaxDisk=500GB
 ----------------------------------------------------------------------
 #p m06/def2TZVP opt freq=noraman nosymm int=ultrafine scrf=(SMD,solven
 t=n,n-DiMethylAcetamide)
 ----------------------------------------------------------------------
 1/14=-1,18=20,19=15,26=4,38=1/1,3;
 2/9=110,12=2,15=1,17=6,18=5,40=1/2;
 3/5=44,7=101,11=2,16=1,25=1,30=1,70=32201,71=1,72=147,74=-54,75=-5/1,2,3;
 4//1;
 5/5=2,38=5,53=147/2;
 6/7=2,8=2,9=2,10=2,28=1/1;
 7/30=1/1,2,3,16;
 1/14=-1,18=20,19=15,26=4/3(2);
 2/9=110,15=1/2;
 99//99;
 2/9=110,15=1/2;
 3/5=44,7=101,11=2,16=1,25=1,30=1,70=32205,71=1,72=147,74=-54,75=-5/1,2,3;
 4/5=5,16=3,69=1/1;
 5/5=2,38=5,53=147/2;
 7/30=1/1,2,3,16;
 1/14=-1,18=20,19=15,26=4/3(-5);
 2/9=110,15=1/2;
 6/7=2,8=2,9=2,10=2,19=2,28=1/1;
 99/9=1/99;
 Leave Link    1 at Sun Feb 21 03:41:37 2021, MaxMem=           0 cpu:         3.6
 (Enter /opt/nce/packages/global/g09/l101.exe)
 -----
 Title
 -----
 Symbolic Z-matrix:
 Charge =  0 Multiplicity = 1
 C                    -1.96983   3.5769   -0.31917 
 C                    -2.35017   2.49065   0.46963 
 C                    -1.57707   1.32453   0.46712 
 C                    -0.42654   1.23187  -0.33713 
 C                    -0.07864   2.31188  -1.15811 
 C                    -0.83901   3.48215  -1.13547 
 C                    -0.4181   -1.19096  -0.39704 
 C                    -1.56109  -1.36184   0.40242 
 C                    -2.29929  -2.54958   0.33255 
 H                    -3.19273  -2.66168   0.95051 
 C                    -1.89264  -3.57349  -0.5237 
 C                    -0.77064  -3.39741  -1.34136 
 C                    -0.04988  -2.20414  -1.29236 
 H                    -3.24813   2.53722   1.08943 
 H                     0.8052    2.23246  -1.78603 
 H                    -0.54733   4.32397  -1.76741 
 H                    -2.4645   -4.50301  -0.56723 
 H                    -0.46409  -4.18699  -2.03088 
 C                     1.69499  -0.00085  -0.00283 
 C                     2.31494  -1.17271   0.49248 
 C                     3.67153  -1.12759   0.78515 
 C                     3.67484   1.16474   0.12689 
 C                     4.38526   0.06283   0.59813 
 H                     4.16948  -2.0191    1.17483 
 H                     4.17957   2.12618  -0.0249 
 H                     1.7399   -2.08139   0.66147 
 H                     5.45154   0.13442   0.81827 
 H                    -2.56744   4.49121  -0.30784 
 N                     0.32399   0.01796  -0.30451 
 H                     0.82065  -2.05149  -1.93283 
 S                    -2.03918  -0.05054   1.50312 
 N                     2.37499   1.1342   -0.17127 
 
 NAtoms=     32 NQM=       32 NQMF=       0 NMMI=      0 NMMIF=      0
                NMic=       0 NMicF=      0.
                    Isotopes and Nuclear Properties:
 (Nuclear quadrupole moments (NQMom) in fm**2, nuclear magnetic moments (NMagM)
  in nuclear magnetons)

  Atom         1           2           3           4           5           6           7           8           9          10
 IAtWgt=          12          12          12          12          12          12          12          12          12           1
 AtmWgt=  12.0000000  12.0000000  12.0000000  12.0000000  12.0000000  12.0000000  12.0000000  12.0000000  12.0000000   1.0078250
 NucSpn=           0           0           0           0           0           0           0           0           0           1
 AtZEff=   0.0000000   0.0000000   0.0000000   0.0000000   0.0000000   0.0000000   0.0000000   0.0000000   0.0000000   0.0000000
 NQMom=    0.0000000   0.0000000   0.0000000   0.0000000   0.0000000   0.0000000   0.0000000   0.0000000   0.0000000   0.0000000
 NMagM=    0.0000000   0.0000000   0.0000000   0.0000000   0.0000000   0.0000000   0.0000000   0.0000000   0.0000000   2.7928460
 AtZNuc=   6.0000000   6.0000000   6.0000000   6.0000000   6.0000000   6.0000000   6.0000000   6.0000000   6.0000000   1.0000000

  Atom        11          12          13          14          15          16          17          18          19          20
 IAtWgt=          12          12          12           1           1           1           1           1          12          12
 AtmWgt=  12.0000000  12.0000000  12.0000000   1.0078250   1.0078250   1.0078250   1.0078250   1.0078250  12.0000000  12.0000000
 NucSpn=           0           0           0           1           1           1           1           1           0           0
 AtZEff=   0.0000000   0.0000000   0.0000000   0.0000000   0.0000000   0.0000000   0.0000000   0.0000000   0.0000000   0.0000000
 NQMom=    0.0000000   0.0000000   0.0000000   0.0000000   0.0000000   0.0000000   0.0000000   0.0000000   0.0000000   0.0000000
 NMagM=    0.0000000   0.0000000   0.0000000   2.7928460   2.7928460   2.7928460   2.7928460   2.7928460   0.0000000   0.0000000
 AtZNuc=   6.0000000   6.0000000   6.0000000   1.0000000   1.0000000   1.0000000   1.0000000   1.0000000   6.0000000   6.0000000

  Atom        21          22          23          24          25          26          27          28          29          30
 IAtWgt=          12          12          12           1           1           1           1           1          14           1
 AtmWgt=  12.0000000  12.0000000  12.0000000   1.0078250   1.0078250   1.0078250   1.0078250   1.0078250  14.0030740   1.0078250
 NucSpn=           0           0           0           1           1           1           1           1           2           1
 AtZEff=   0.0000000   0.0000000   0.0000000   0.0000000   0.0000000   0.0000000   0.0000000   0.0000000   0.0000000   0.0000000
 NQMom=    0.0000000   0.0000000   0.0000000   0.0000000   0.0000000   0.0000000   0.0000000   0.0000000   2.0440000   0.0000000
 NMagM=    0.0000000   0.0000000   0.0000000   2.7928460   2.7928460   2.7928460   2.7928460   2.7928460   0.4037610   2.7928460
 AtZNuc=   6.0000000   6.0000000   6.0000000   1.0000000   1.0000000   1.0000000   1.0000000   1.0000000   7.0000000   1.0000000

  Atom        31          32
 IAtWgt=          32          14
 AtmWgt=  31.9720718  14.0030740
 NucSpn=           0           2
 AtZEff=   0.0000000   0.0000000
 NQMom=    0.0000000   2.0440000
 NMagM=    0.0000000   0.4037610
 AtZNuc=  16.0000000   7.0000000
 Leave Link  101 at Sun Feb 21 03:41:43 2021, MaxMem=  5242880000 cpu:        29.0
 (Enter /opt/nce/packages/global/g09/l103.exe)

 GradGradGradGradGradGradGradGradGradGradGradGradGradGradGradGradGradGrad
 Berny optimization.
 Initialization pass.
                           ----------------------------
                           !    Initial Parameters    !
                           ! (Angstroms and Degrees)  !
 --------------------------                            --------------------------
 ! Name  Definition              Value          Derivative Info.                !
 --------------------------------------------------------------------------------
 ! R1    R(1,2)                  1.3953         estimate D2E/DX2                !
 ! R2    R(1,6)                  1.3979         estimate D2E/DX2                !
 ! R3    R(1,28)                 1.0923         estimate D2E/DX2                !
 ! R4    R(2,3)                  1.3991         estimate D2E/DX2                !
 ! R5    R(2,14)                 1.0921         estimate D2E/DX2                !
 ! R6    R(3,4)                  1.4068         estimate D2E/DX2                !
 ! R7    R(3,31)                 1.7826         estimate D2E/DX2                !
 ! R8    R(4,5)                  1.4005         estimate D2E/DX2                !
 ! R9    R(4,29)                 1.4276         estimate D2E/DX2                !
 ! R10   R(5,6)                  1.3958         estimate D2E/DX2                !
 ! R11   R(5,15)                 1.0871         estimate D2E/DX2                !
 ! R12   R(6,16)                 1.0923         estimate D2E/DX2                !
 ! R13   R(7,8)                  1.4053         estimate D2E/DX2                !
 ! R14   R(7,13)                 1.4013         estimate D2E/DX2                !
 ! R15   R(7,29)                 1.4215         estimate D2E/DX2                !
 ! R16   R(8,9)                  1.4002         estimate D2E/DX2                !
 ! R17   R(8,31)                 1.7775         estimate D2E/DX2                !
 ! R18   R(9,10)                 1.0921         estimate D2E/DX2                !
 ! R19   R(9,11)                 1.3953         estimate D2E/DX2                !
 ! R20   R(11,12)                1.3994         estimate D2E/DX2                !
 ! R21   R(11,17)                1.0922         estimate D2E/DX2                !
 ! R22   R(12,13)                1.3949         estimate D2E/DX2                !
 ! R23   R(12,18)                1.0922         estimate D2E/DX2                !
 ! R24   R(13,30)                1.0915         estimate D2E/DX2                !
 ! R25   R(19,20)                1.4152         estimate D2E/DX2                !
 ! R26   R(19,29)                1.4039         estimate D2E/DX2                !
 ! R27   R(19,32)                1.3338         estimate D2E/DX2                !
 ! R28   R(20,21)                1.3885         estimate D2E/DX2                !
 ! R29   R(20,26)                1.0885         estimate D2E/DX2                !
 ! R30   R(21,23)                1.4005         estimate D2E/DX2                !
 ! R31   R(21,24)                1.093          estimate D2E/DX2                !
 ! R32   R(22,23)                1.3932         estimate D2E/DX2                !
 ! R33   R(22,25)                1.0964         estimate D2E/DX2                !
 ! R34   R(22,32)                1.334          estimate D2E/DX2                !
 ! R35   R(23,27)                1.0911         estimate D2E/DX2                !
 ! A1    A(2,1,6)              119.8594         estimate D2E/DX2                !
 ! A2    A(2,1,28)             119.7773         estimate D2E/DX2                !
 ! A3    A(6,1,28)             120.3553         estimate D2E/DX2                !
 ! A4    A(1,2,3)              119.8168         estimate D2E/DX2                !
 ! A5    A(1,2,14)             120.7825         estimate D2E/DX2                !
 ! A6    A(3,2,14)             119.4006         estimate D2E/DX2                !
 ! A7    A(2,3,4)              120.5191         estimate D2E/DX2                !
 ! A8    A(2,3,31)             119.9097         estimate D2E/DX2                !
 ! A9    A(4,3,31)             119.5676         estimate D2E/DX2                !
 ! A10   A(3,4,5)              119.1753         estimate D2E/DX2                !
 ! A11   A(3,4,29)             118.2232         estimate D2E/DX2                !
 ! A12   A(5,4,29)             122.5837         estimate D2E/DX2                !
 ! A13   A(4,5,6)              120.1142         estimate D2E/DX2                !
 ! A14   A(4,5,15)             118.9618         estimate D2E/DX2                !
 ! A15   A(6,5,15)             120.8991         estimate D2E/DX2                !
 ! A16   A(1,6,5)              120.4634         estimate D2E/DX2                !
 ! A17   A(1,6,16)             120.1077         estimate D2E/DX2                !
 ! A18   A(5,6,16)             119.4276         estimate D2E/DX2                !
 ! A19   A(8,7,13)             119.2935         estimate D2E/DX2                !
 ! A20   A(8,7,29)             119.4055         estimate D2E/DX2                !
 ! A21   A(13,7,29)            121.2847         estimate D2E/DX2                !
 ! A22   A(7,8,9)              120.2369         estimate D2E/DX2                !
 ! A23   A(7,8,31)             118.7731         estimate D2E/DX2                !
 ! A24   A(9,8,31)             120.989          estimate D2E/DX2                !
 ! A25   A(8,9,10)             119.35           estimate D2E/DX2                !
 ! A26   A(8,9,11)             119.9632         estimate D2E/DX2                !
 ! A27   A(10,9,11)            120.6866         estimate D2E/DX2                !
 ! A28   A(9,11,12)            119.992          estimate D2E/DX2                !
 ! A29   A(9,11,17)            119.7603         estimate D2E/DX2                !
 ! A30   A(12,11,17)           120.2364         estimate D2E/DX2                !
 ! A31   A(11,12,13)           120.0908         estimate D2E/DX2                !
 ! A32   A(11,12,18)           120.1951         estimate D2E/DX2                !
 ! A33   A(13,12,18)           119.708          estimate D2E/DX2                !
 ! A34   A(7,13,12)            120.3425         estimate D2E/DX2                !
 ! A35   A(7,13,30)            118.9049         estimate D2E/DX2                !
 ! A36   A(12,13,30)           120.7398         estimate D2E/DX2                !
 ! A37   A(20,19,29)           120.9353         estimate D2E/DX2                !
 ! A38   A(20,19,32)           121.7022         estimate D2E/DX2                !
 ! A39   A(29,19,32)           117.3429         estimate D2E/DX2                !
 ! A40   A(19,20,21)           118.3483         estimate D2E/DX2                !
 ! A41   A(19,20,26)           120.9395         estimate D2E/DX2                !
 ! A42   A(21,20,26)           120.6984         estimate D2E/DX2                !
 ! A43   A(20,21,23)           119.8252         estimate D2E/DX2                !
 ! A44   A(20,21,24)           119.5877         estimate D2E/DX2                !
 ! A45   A(23,21,24)           120.5802         estimate D2E/DX2                !
 ! A46   A(23,22,25)           120.3741         estimate D2E/DX2                !
 ! A47   A(23,22,32)           123.6678         estimate D2E/DX2                !
 ! A48   A(25,22,32)           115.9573         estimate D2E/DX2                !
 ! A49   A(21,23,22)           117.2313         estimate D2E/DX2                !
 ! A50   A(21,23,27)           121.7918         estimate D2E/DX2                !
 ! A51   A(22,23,27)           120.9748         estimate D2E/DX2                !
 ! A52   A(4,29,7)             116.5651         estimate D2E/DX2                !
 ! A53   A(4,29,19)            121.9861         estimate D2E/DX2                !
 ! A54   A(7,29,19)            120.823          estimate D2E/DX2                !
 ! A55   A(3,31,8)              98.0164         estimate D2E/DX2                !
 ! A56   A(19,32,22)           119.2112         estimate D2E/DX2                !
 ! D1    D(6,1,2,3)              1.7307         estimate D2E/DX2                !
 ! D2    D(6,1,2,14)          -178.1007         estimate D2E/DX2                !
 ! D3    D(28,1,2,3)          -179.29           estimate D2E/DX2                !
 ! D4    D(28,1,2,14)            0.8786         estimate D2E/DX2                !
 ! D5    D(2,1,6,5)             -0.6166         estimate D2E/DX2                !
 ! D6    D(2,1,6,16)           178.9585         estimate D2E/DX2                !
 ! D7    D(28,1,6,5)          -179.59           estimate D2E/DX2                !
 ! D8    D(28,1,6,16)           -0.0149         estimate D2E/DX2                !
 ! D9    D(1,2,3,4)             -0.7561         estimate D2E/DX2                !
 ! D10   D(1,2,3,31)           178.5563         estimate D2E/DX2                !
 ! D11   D(14,2,3,4)           179.0776         estimate D2E/DX2                !
 ! D12   D(14,2,3,31)           -1.6099         estimate D2E/DX2                !
 ! D13   D(2,3,4,5)             -1.3286         estimate D2E/DX2                !
 ! D14   D(2,3,4,29)          -179.8352         estimate D2E/DX2                !
 ! D15   D(31,3,4,5)           179.3566         estimate D2E/DX2                !
 ! D16   D(31,3,4,29)            0.8499         estimate D2E/DX2                !
 ! D17   D(2,3,31,8)           144.0725         estimate D2E/DX2                !
 ! D18   D(4,3,31,8)           -36.6084         estimate D2E/DX2                !
 ! D19   D(3,4,5,6)              2.4428         estimate D2E/DX2                !
 ! D20   D(3,4,5,15)          -179.3576         estimate D2E/DX2                !
 ! D21   D(29,4,5,6)          -179.1188         estimate D2E/DX2                !
 ! D22   D(29,4,5,15)           -0.9192         estimate D2E/DX2                !
 ! D23   D(3,4,29,7)            46.2269         estimate D2E/DX2                !
 ! D24   D(3,4,29,19)         -124.7689         estimate D2E/DX2                !
 ! D25   D(5,4,29,7)          -132.2256         estimate D2E/DX2                !
 ! D26   D(5,4,29,19)           56.7785         estimate D2E/DX2                !
 ! D27   D(4,5,6,1)             -1.491          estimate D2E/DX2                !
 ! D28   D(4,5,6,16)           178.9311         estimate D2E/DX2                !
 ! D29   D(15,5,6,1)          -179.6551         estimate D2E/DX2                !
 ! D30   D(15,5,6,16)            0.7669         estimate D2E/DX2                !
 ! D31   D(13,7,8,9)             1.9207         estimate D2E/DX2                !
 ! D32   D(13,7,8,31)         -178.45           estimate D2E/DX2                !
 ! D33   D(29,7,8,9)          -179.5253         estimate D2E/DX2                !
 ! D34   D(29,7,8,31)            0.104          estimate D2E/DX2                !
 ! D35   D(8,7,13,12)           -3.2152         estimate D2E/DX2                !
 ! D36   D(8,7,13,30)          178.0805         estimate D2E/DX2                !
 ! D37   D(29,7,13,12)         178.2589         estimate D2E/DX2                !
 ! D38   D(29,7,13,30)          -0.4454         estimate D2E/DX2                !
 ! D39   D(8,7,29,4)           -47.0616         estimate D2E/DX2                !
 ! D40   D(8,7,29,19)          124.046          estimate D2E/DX2                !
 ! D41   D(13,7,29,4)          131.4627         estimate D2E/DX2                !
 ! D42   D(13,7,29,19)         -57.4297         estimate D2E/DX2                !
 ! D43   D(7,8,9,10)          -179.1879         estimate D2E/DX2                !
 ! D44   D(7,8,9,11)             0.6313         estimate D2E/DX2                !
 ! D45   D(31,8,9,10)            1.1911         estimate D2E/DX2                !
 ! D46   D(31,8,9,11)         -178.9897         estimate D2E/DX2                !
 ! D47   D(7,8,31,3)            35.9763         estimate D2E/DX2                !
 ! D48   D(9,8,31,3)          -144.3973         estimate D2E/DX2                !
 ! D49   D(8,9,11,12)           -1.9128         estimate D2E/DX2                !
 ! D50   D(8,9,11,17)          179.3092         estimate D2E/DX2                !
 ! D51   D(10,9,11,12)         177.904          estimate D2E/DX2                !
 ! D52   D(10,9,11,17)          -0.874          estimate D2E/DX2                !
 ! D53   D(9,11,12,13)           0.6256         estimate D2E/DX2                !
 ! D54   D(9,11,12,18)        -178.4699         estimate D2E/DX2                !
 ! D55   D(17,11,12,13)        179.3977         estimate D2E/DX2                !
 ! D56   D(17,11,12,18)          0.3022         estimate D2E/DX2                !
 ! D57   D(11,12,13,7)           1.9591         estimate D2E/DX2                !
 ! D58   D(11,12,13,30)       -179.3606         estimate D2E/DX2                !
 ! D59   D(18,12,13,7)        -178.941          estimate D2E/DX2                !
 ! D60   D(18,12,13,30)         -0.2607         estimate D2E/DX2                !
 ! D61   D(29,19,20,21)       -179.393          estimate D2E/DX2                !
 ! D62   D(29,19,20,26)         -0.7327         estimate D2E/DX2                !
 ! D63   D(32,19,20,21)         -1.046          estimate D2E/DX2                !
 ! D64   D(32,19,20,26)        177.6143         estimate D2E/DX2                !
 ! D65   D(20,19,29,4)         157.0809         estimate D2E/DX2                !
 ! D66   D(20,19,29,7)         -13.5376         estimate D2E/DX2                !
 ! D67   D(32,19,29,4)         -21.3358         estimate D2E/DX2                !
 ! D68   D(32,19,29,7)         168.0457         estimate D2E/DX2                !
 ! D69   D(20,19,32,22)          0.4082         estimate D2E/DX2                !
 ! D70   D(29,19,32,22)        178.812          estimate D2E/DX2                !
 ! D71   D(19,20,21,23)          0.5618         estimate D2E/DX2                !
 ! D72   D(19,20,21,24)        179.6096         estimate D2E/DX2                !
 ! D73   D(26,20,21,23)       -178.1019         estimate D2E/DX2                !
 ! D74   D(26,20,21,24)          0.946          estimate D2E/DX2                !
 ! D75   D(20,21,23,22)          0.4777         estimate D2E/DX2                !
 ! D76   D(20,21,23,27)        179.9616         estimate D2E/DX2                !
 ! D77   D(24,21,23,22)       -178.5605         estimate D2E/DX2                !
 ! D78   D(24,21,23,27)          0.9233         estimate D2E/DX2                !
 ! D79   D(25,22,23,21)        179.1536         estimate D2E/DX2                !
 ! D80   D(25,22,23,27)         -0.3347         estimate D2E/DX2                !
 ! D81   D(32,22,23,21)         -1.1805         estimate D2E/DX2                !
 ! D82   D(32,22,23,27)        179.3312         estimate D2E/DX2                !
 ! D83   D(23,22,32,19)          0.7409         estimate D2E/DX2                !
 ! D84   D(25,22,32,19)       -179.5798         estimate D2E/DX2                !
 --------------------------------------------------------------------------------
 Trust Radius=3.00D-01 FncErr=1.00D-07 GrdErr=1.00D-06
 Number of steps in this run=    185 maximum allowed number of steps=    192.
 GradGradGradGradGradGradGradGradGradGradGradGradGradGradGradGradGradGrad

 Leave Link  103 at Sun Feb 21 03:41:47 2021, MaxMem=  5242880000 cpu:        41.3
 (Enter /opt/nce/packages/global/g09/l202.exe)
                          Input orientation:                          
 ---------------------------------------------------------------------
 Center     Atomic      Atomic             Coordinates (Angstroms)
 Number     Number       Type             X           Y           Z
 ---------------------------------------------------------------------
      1          6           0       -1.969825    3.576904   -0.319172
      2          6           0       -2.350171    2.490645    0.469632
      3          6           0       -1.577065    1.324529    0.467120
      4          6           0       -0.426542    1.231872   -0.337125
      5          6           0       -0.078643    2.311877   -1.158109
      6          6           0       -0.839012    3.482152   -1.135470
      7          6           0       -0.418101   -1.190961   -0.397035
      8          6           0       -1.561091   -1.361840    0.402424
      9          6           0       -2.299294   -2.549577    0.332549
     10          1           0       -3.192727   -2.661677    0.950514
     11          6           0       -1.892637   -3.573490   -0.523697
     12          6           0       -0.770641   -3.397414   -1.341361
     13          6           0       -0.049882   -2.204143   -1.292364
     14          1           0       -3.248134    2.537222    1.089426
     15          1           0        0.805195    2.232461   -1.786029
     16          1           0       -0.547333    4.323967   -1.767406
     17          1           0       -2.464502   -4.503010   -0.567228
     18          1           0       -0.464087   -4.186986   -2.030876
     19          6           0        1.694994   -0.000853   -0.002833
     20          6           0        2.314937   -1.172714    0.492477
     21          6           0        3.671534   -1.127594    0.785152
     22          6           0        3.674841    1.164743    0.126890
     23          6           0        4.385256    0.062831    0.598126
     24          1           0        4.169485   -2.019104    1.174833
     25          1           0        4.179567    2.126181   -0.024899
     26          1           0        1.739896   -2.081386    0.661465
     27          1           0        5.451537    0.134424    0.818271
     28          1           0       -2.567436    4.491206   -0.307841
     29          7           0        0.323988    0.017956   -0.304506
     30          1           0        0.820647   -2.051488   -1.932830
     31         16           0       -2.039182   -0.050543    1.503115
     32          7           0        2.374990    1.134198   -0.171274
 ---------------------------------------------------------------------
                    Distance matrix (angstroms):
                    1          2          3          4          5
     1  C    0.000000
     2  C    1.395290   0.000000
     3  C    2.417790   1.399116   0.000000
     4  C    2.807351   2.436332   1.406804   0.000000
     5  C    2.425011   2.800239   2.421052   1.400521   0.000000
     6  C    1.397876   2.417238   2.787177   2.423065   1.395785
     7  C    5.014623   4.247144   2.901319   2.423588   3.600603
     8  C    5.007889   3.933040   2.687195   2.926000   4.257829
     9  C    6.169851   5.042343   3.943149   4.272589   5.548611
    10  H    6.482861   5.242859   4.328264   4.946667   6.235387
    11  C    7.153735   6.161962   5.007184   5.027499   6.191171
    12  C    7.150107   6.359548   5.120319   4.749440   5.753994
    13  C    6.168775   5.516973   4.228427   3.586161   4.518107
    14  H    2.167755   1.092086   2.156469   3.420580   3.892026
    15  H    3.414664   3.887287   3.402379   2.148878   1.087088
    16  H    2.163092   3.408172   3.879444   3.409009   2.153931
    17  H    8.098842   7.071023   5.984783   6.090575   7.244594
    18  H    8.091673   7.375677   6.152682   5.677519   6.568524
    19  C    5.131405   4.774321   3.561441   2.476343   3.135151
    20  C    6.448010   5.931606   4.624343   3.739783   4.538285
    21  C    7.428106   7.032221   5.801883   4.860125   5.447022
    22  C    6.154652   6.178694   5.265340   4.128094   4.129865
    23  C    7.319645   7.160780   6.095762   5.039321   5.298015
    24  H    8.440289   7.958710   6.686073   5.829093   6.499739
    25  H    6.325047   6.558573   5.832970   4.702501   4.410329
    26  H    6.836660   6.137501   4.758178   4.082685   5.091041
    27  H    8.259604   8.157204   7.137290   6.090250   6.263407
    28  H    1.092344   2.157293   3.407234   3.899685   3.415629
    29  N    4.234136   3.723521   2.432394   1.427568   2.480489
    30  H    6.486095   6.037954   4.786050   3.857746   4.521932
    31  S    4.060038   2.760876   1.782599   2.762549   4.062863
    32  N    4.986592   4.957606   4.007806   2.808136   2.895011
                    6          7          8          9         10
     6  C    0.000000
     7  C    4.749783   0.000000
     8  C    5.133301   1.405262   0.000000
     9  C    6.377245   2.432492   1.400195   0.000000
    10  H    6.902024   3.417227   2.156899   1.092094   0.000000
    11  C    7.160061   2.804772   2.420541   1.395323   2.166780
    12  C    6.882986   2.425793   2.794487   2.420244   3.414748
    13  C    5.742934   1.401334   2.421886   2.796341   3.888099
    14  H    3.412759   4.911008   4.303576   5.229597   5.201050
    15  H    2.165265   3.891732   4.827798   6.082279   6.886555
    16  H    1.092278   5.684105   6.169625   7.397620   7.948863
    17  H    8.168716   3.896972   3.409300   2.157033   2.494867
    18  H    7.730330   3.412875   3.886620   3.410993   4.319807
    19  C    4.453692   2.457015   3.552268   4.750033   5.646120
    20  C    5.853664   2.874206   3.881684   4.817931   5.723738
    21  C    6.729307   4.257546   5.251830   6.154484   7.035541
    22  C    5.228652   4.751422   5.820183   7.037667   7.904640
    23  C    6.479976   5.063060   6.117763   7.181811   8.060580
    24  H    7.790145   4.919607   5.819632   6.544918   7.393604
    25  H    5.315841   5.681590   6.730828   7.997882   8.844531
    26  H    6.390047   2.563246   3.388416   4.079515   4.975043
    27  H    7.388870   6.138914   7.182526   8.216761   9.086197
    28  H    2.165781   6.075740   5.981250   7.074929   7.289594
    29  N    3.747496   1.421527   2.440719   3.725543   4.595954
    30  H    5.831931   2.152596   3.406127   3.887681   4.979274
    31  S    4.569734   2.745729   1.777524   2.771832   2.907586
    32  N    4.095408   3.641248   4.695963   5.972685   6.831292
                   11         12         13         14         15
    11  C    0.000000
    12  C    1.399447   0.000000
    13  C    2.421096   1.394916   0.000000
    14  H    6.463771   6.875071   6.195344   0.000000
    15  H    6.525400   5.863146   4.545142   4.979016   0.000000
    16  H    8.107187   7.736350   6.564247   4.318365   2.490798
    17  H    1.092214   2.165823   3.411891   7.274850   7.585708
    18  H    2.165345   1.092168   2.156069   7.918471   6.548307
    19  C    5.089807   4.405410   3.092243   5.662982   2.993196
    20  C    4.949749   4.222919   3.137176   6.713250   4.366478
    21  C    6.217354   5.422828   4.395903   7.836151   5.110464
    22  C    7.339682   6.536922   5.218931   7.123044   3.610284
    23  C    7.341203   6.505242   5.327624   8.039442   4.817502
    24  H    6.484631   5.712777   4.891253   8.705658   6.177455
    25  H    8.343064   7.533109   6.184368   7.522062   3.807789
    26  H    4.101985   3.470740   2.652512   6.811397   5.047095
    27  H    8.335850   7.473513   6.339502   9.029465   5.724739
    28  H    8.095756   8.156406   7.220461   2.496750   4.319908
    29  N    4.226104   3.733368   2.460359   4.588006   2.707490
    30  H    3.415268   2.166460   1.091477   6.837051   4.286491
    31  S    4.067013   4.571847   4.050927   2.886041   4.911319
    32  N    6.363896   5.639114   4.275672   5.931051   2.505568
                   16         17         18         19         20
    16  H    0.000000
    17  H    9.112161   0.000000
    18  H    8.515437   2.498759   0.000000
    19  C    5.181295   6.155434   5.128187   0.000000
    20  C    6.596451   5.920885   4.814158   1.415245   0.000000
    21  C    7.350776   7.132552   5.864576   2.407733   1.388542
    22  C    5.603196   8.384316   7.101245   2.301138   2.728864
    23  C    6.934224   8.314093   6.963384   2.757302   2.413287
    24  H    8.434435   7.294817   6.037075   3.403431   2.149729
    25  H    5.496379   9.401274   8.089718   3.270759   3.824556
    26  H    7.222145   5.005089   4.066914   2.184474   1.088538
    27  H    7.760441   9.278420   7.860460   3.847613   3.413651
    28  H    2.497822   8.998544   9.094171   6.199995   7.520510
    29  N    4.630444   5.318255   4.613345   1.403929   2.452907
    30  H    6.522665   4.320536   2.494094   2.948640   2.981151
    31  S    5.662001   4.928659   5.663937   4.026713   4.608580
    32  N    4.611099   7.440133   6.311377   1.333832   2.401253
                   21         22         23         24         25
    21  C    0.000000
    22  C    2.384980   0.000000
    23  C    1.400532   1.393184   0.000000
    24  H    1.092976   3.388176   2.171083   0.000000
    25  H    3.391361   1.096427   2.165152   4.315420   0.000000
    26  H    2.157833   3.816692   3.405820   2.484015   4.911895
    27  H    2.182246   2.167075   1.091121   2.531497   2.509171
    28  H    8.467012   7.086633   8.292841   9.485176   7.155100
    29  N    3.702121   3.567834   4.160608   4.596292   4.403213
    30  H    4.045808   4.767915   4.856184   4.568734   5.689944
    31  S    5.855577   6.001748   6.488857   6.521545   6.763564
    32  N    2.776955   1.333959   2.404365   3.869823   2.064450
                   26         27         28         29         30
    26  H    0.000000
    27  H    4.325584   0.000000
    28  H    7.917805   9.195303   0.000000
    29  N    2.710190   5.250329   5.326379   0.000000
    30  H    2.752504   5.813081   7.544968   2.679684   0.000000
    31  S    4.371971   7.524234   4.917936   2.976031   4.897767
    32  N    3.381831   3.382882   5.976264   2.338879   3.958239
                   31         32
    31  S    0.000000
    32  N    4.867454   0.000000
 Symmetry turned off by external request.
 Stoichiometry    C17H12N2S
 Framework group  C1[X(C17H12N2S)]
 Deg. of freedom    90
 Full point group                 C1      NOp   1
 Rotational constants (GHZ):      0.3825642      0.3446792      0.2112543
 Leave Link  202 at Sun Feb 21 03:41:51 2021, MaxMem=  5242880000 cpu:        10.0
 (Enter /opt/nce/packages/global/g09/l301.exe)
 Standard basis: def2TZVP (5D, 7F)
 Ernie: Thresh=  0.10000D-02 Tol=  0.10000D-05 Strict=F.
   698 basis functions,  1134 primitive gaussians,   798 cartesian basis functions
    72 alpha electrons       72 beta electrons
       nuclear repulsion energy      1566.6532973845 Hartrees.
 IExCor= 4235 DFT=T Ex+Corr=M06 ExCW=0 ScaHFX=  0.270000
 ScaDFX=  1.000000  1.000000  1.000000  1.000000 ScalE2=  1.000000  1.000000
 IRadAn=      5 IRanWt=     -1 IRanGd=            0 ICorTp=0 IEmpDi=  4
 NAtoms=   32 NActive=   32 NUniq=   32 SFac= 1.00D+00 NAtFMM=   60 NAOKFM=F Big=F
 Integral buffers will be    131072 words long.
 Raffenetti 2 integral format.
 Two-electron integral symmetry is turned off.
 ------------------------------------------------------------------------------
 Polarizable Continuum Model (PCM)
 =================================
 Model                : PCM (using non-symmetric T matrix).
 Atomic radii         : SMD-Coulomb.
 Polarization charges : Total charges.
 Charge compensation  : None.
 Solution method      : On-the-fly selection.
 Cavity type          : VdW (van der Waals Surface) (Alpha=1.000).
 Cavity algorithm     : GePol (No added spheres)
                        Default sphere list used, NSphG=   32.
                        Lebedev-Laikov grids with approx.  5.0 points / Ang**2.
                        Smoothing algorithm: York/Karplus (Gamma=1.0000).
                        Polarization charges: spherical gaussians, with
                                              point-specific exponents (IZeta= 3).
                        Self-potential: point-specific (ISelfS= 7).
                        Self-field    : sphere-specific E.n sum rule (ISelfD= 2).
 1st derivatives      : Analytical E(r).r(x)/FMM algorithm (CHGder, D1EAlg=3).
                        Cavity 1st derivative terms included.
 Solvent              : n,n-DiMethylAcetamide, Eps=  37.781000 Eps(inf)=   2.067844
 ------------------------------------------------------------------------------
 GePol: Number of generator spheres                  =      32
 GePol: Total number of spheres                      =      32
 GePol: Number of exposed spheres                    =      32 (100.00%)
 GePol: Number of points                             =    2528
 GePol: Average weight of points                     =       0.11
 GePol: Minimum weight of points                     =   0.22D-09
 GePol: Maximum weight of points                     =    0.19854
 GePol: Number of points with low weight             =     136
 GePol: Fraction of low-weight points (<1% of avg)   =       5.38%
 GePol: Cavity surface area                          =    289.266 Ang**2
 GePol: Cavity volume                                =    290.887 Ang**3
 ------------------------------------------------------------------------------
 Atomic radii for non-electrostatic terms: SMD-CDS.
 ------------------------------------------------------------------------------
 PCM non-electrostatic energy =        -0.0058321980 Hartrees.
 Nuclear repulsion after PCM non-electrostatic terms =     1566.6474651866 Hartrees.
 Leave Link  301 at Sun Feb 21 03:42:06 2021, MaxMem=  5242880000 cpu:        20.7
 (Enter /opt/nce/packages/global/g09/l302.exe)
 NPDir=0 NMtPBC=     1 NCelOv=     1 NCel=       1 NClECP=     1 NCelD=      1
         NCelK=      1 NCelE2=     1 NClLst=     1 CellRange=     0.0.
 One-electron integrals computed using PRISM.
   1 Symmetry operations used in ECPInt.
 ECPInt:  NShTT=   36585 NPrTT=  115450 LenC2=   32969 LenP2D=   74222.
 LDataN:  DoStor=T MaxTD1= 6 Len=  172
 NBasis=   698 RedAO= T EigKep=  6.23D-06  NBF=   698
 NBsUse=   698 1.00D-06 EigRej= -1.00D+00 NBFU=   698
 Precomputing XC quadrature grid using
 IXCGrd= 4 IRadAn=           5 IRanWt=          -1 IRanGd=           0 AccXCQ= 0.00D+00.
 Generated NRdTot=       0 NPtTot=           0 NUsed=           0 NTot=          32
 NSgBfM=   786   786   786   786   786 MxSgAt=    32 MxSgA2=    32.
 Leave Link  302 at Sun Feb 21 03:42:17 2021, MaxMem=  5242880000 cpu:        67.7
 (Enter /opt/nce/packages/global/g09/l303.exe)
 DipDrv:  MaxL=1.
 Leave Link  303 at Sun Feb 21 03:42:19 2021, MaxMem=  5242880000 cpu:         4.1
 (Enter /opt/nce/packages/global/g09/l401.exe)
 ExpMin= 9.52D-02 ExpMax= 6.07D+04 ExpMxC= 2.07D+03 IAcc=3 IRadAn=         5 AccDes= 0.00D+00
 Harris functional with IExCor= 1009 and IRadAn=       5 diagonalized for initial guess.
 HarFok:  IExCor= 1009 AccDes= 0.00D+00 IRadAn=         5 IDoV= 1 UseB2=F ITyADJ=14
 ICtDFT=  3500011 ScaDFX=  1.000000  1.000000  1.000000  1.000000
 FoFCou: FMM=F IPFlag=           0 FMFlag=      100000 FMFlg1=           0
         NFxFlg=           0 DoJE=T BraDBF=F KetDBF=T FulRan=T
         wScrn=  0.000000 ICntrl=     500 IOpCl=  0 I1Cent=   200000004 NGrid=           0
         NMat0=    1 NMatS0=      1 NMatT0=    0 NMatD0=    1 NMtDS0=    0 NMtDT0=    0
 Symmetry not used in FoFCou.
 Harris En= -1162.12834876799    
 JPrj=0 DoOrth=F DoCkMO=F.
 Leave Link  401 at Sun Feb 21 03:42:28 2021, MaxMem=  5242880000 cpu:        82.9
 (Enter /opt/nce/packages/global/g09/l502.exe)
 Closed shell SCF:
 Using DIIS extrapolation, IDIIS=  1040.
 Two-electron integral symmetry not used.
 IVT=     1943390 IEndB=     1943390 NGot=  5242880000 MDV=  5241590853
 LenX=  5241590853 LenY=  5240953251
 Requested convergence on RMS density matrix=1.00D-08 within 128 cycles.
 Requested convergence on MAX density matrix=1.00D-06.
 Requested convergence on             energy=1.00D-06.
 No special actions if energy rises.
 Fock matrices will be formed incrementally for  20 cycles.

 Cycle   1  Pass 1  IDiag  1:
 FoFJK:  IHMeth= 1 ICntrl=       0 DoSepK=F KAlg= 0 I1Cent=   0 FoldK=F
 IRaf= 810000000 NMat=   1 IRICut=       1 DoRegI=T DoRafI=F ISym2E= 0.
 FoFCou: FMM=F IPFlag=           0 FMFlag=      100000 FMFlg1=           0
         NFxFlg=           0 DoJE=F BraDBF=F KetDBF=F FulRan=T
         wScrn=  0.000000 ICntrl=       0 IOpCl=  0 I1Cent=           0 NGrid=           0
         NMat0=    1 NMatS0=      1 NMatT0=    0 NMatD0=    1 NMtDS0=    0 NMtDT0=    0
 Symmetry not used in FoFCou.
 Inv3:  Mode=1 IEnd=    19172352.
 Iteration    1 A*A^-1 deviation from unit magnitude is 4.00D-15 for   2498.
 Iteration    1 A*A^-1 deviation from orthogonality  is 2.40D-15 for   2521   1898.
 Iteration    1 A^-1*A deviation from unit magnitude is 3.77D-15 for   2496.
 Iteration    1 A^-1*A deviation from orthogonality  is 2.40D-12 for   1669   1600.
 E= -1162.02413514804    
 DIIS: error= 1.62D-02 at cycle   1 NSaved=   1.
 NSaved= 1 IEnMin= 1 EnMin= -1162.02413514804     IErMin= 1 ErrMin= 1.62D-02
 ErrMax= 1.62D-02  0.00D+00 EMaxC= 1.00D-01 BMatC= 4.11D-01 BMatP= 4.11D-01
 IDIUse=3 WtCom= 8.38D-01 WtEn= 1.62D-01
 Coeff-Com:  0.100D+01
 Coeff-En:   0.100D+01
 Coeff:      0.100D+01
 Gap=     0.306 Goal=   None    Shift=    0.000
 GapD=    0.306 DampG=1.000 DampE=0.500 DampFc=0.5000 IDamp=-1.
 Damping current iteration by 5.00D-01
 RMSDP=3.19D-03 MaxDP=2.01D-01              OVMax= 2.40D-01

 Cycle   2  Pass 1  IDiag  1:
 RMSU=  1.59D-03    CP:  1.00D+00
 E= -1162.18425168628     Delta-E=       -0.160116538242 Rises=F Damp=T
 DIIS: error= 4.28D-03 at cycle   2 NSaved=   2.
 NSaved= 2 IEnMin= 2 EnMin= -1162.18425168628     IErMin= 2 ErrMin= 4.28D-03
 ErrMax= 4.28D-03  0.00D+00 EMaxC= 1.00D-01 BMatC= 3.70D-02 BMatP= 4.11D-01
 IDIUse=3 WtCom= 9.57D-01 WtEn= 4.28D-02
 Coeff-Com:  0.101D+00 0.899D+00
 Coeff-En:   0.200D+00 0.800D+00
 Coeff:      0.105D+00 0.895D+00
 Gap=     0.246 Goal=   None    Shift=    0.000
 RMSDP=1.13D-03 MaxDP=5.09D-02 DE=-1.60D-01 OVMax= 1.90D-01

 Cycle   3  Pass 1  IDiag  1:
 RMSU=  1.10D-03    CP:  9.88D-01  8.50D-01
 E= -1162.40277486803     Delta-E=       -0.218523181750 Rises=F Damp=F
 DIIS: error= 5.71D-03 at cycle   3 NSaved=   3.
 NSaved= 3 IEnMin= 3 EnMin= -1162.40277486803     IErMin= 2 ErrMin= 4.28D-03
 ErrMax= 5.71D-03  0.00D+00 EMaxC= 1.00D-01 BMatC= 2.68D-02 BMatP= 3.70D-02
 IDIUse=3 WtCom= 9.43D-01 WtEn= 5.71D-02
 Coeff-Com: -0.116D-01 0.454D+00 0.557D+00
 Coeff-En:   0.000D+00 0.000D+00 0.100D+01
 Coeff:     -0.109D-01 0.428D+00 0.583D+00
 Gap=     0.195 Goal=   None    Shift=    0.000
 RMSDP=4.16D-04 MaxDP=2.43D-02 DE=-2.19D-01 OVMax= 7.22D-02

 Cycle   4  Pass 1  IDiag  1:
 RMSU=  4.01D-04    CP:  9.87D-01  8.18D-01  9.08D-01
 E= -1162.42317116883     Delta-E=       -0.020396300801 Rises=F Damp=F
 DIIS: error= 2.45D-03 at cycle   4 NSaved=   4.
 NSaved= 4 IEnMin= 4 EnMin= -1162.42317116883     IErMin= 4 ErrMin= 2.45D-03
 ErrMax= 2.45D-03  0.00D+00 EMaxC= 1.00D-01 BMatC= 7.02D-03 BMatP= 2.68D-02
 IDIUse=3 WtCom= 9.75D-01 WtEn= 2.45D-02
 Coeff-Com: -0.175D-01 0.108D+00 0.362D+00 0.548D+00
 Coeff-En:   0.000D+00 0.000D+00 0.234D+00 0.766D+00
 Coeff:     -0.171D-01 0.105D+00 0.359D+00 0.553D+00
 Gap=     0.190 Goal=   None    Shift=    0.000
 RMSDP=1.52D-04 MaxDP=8.26D-03 DE=-2.04D-02 OVMax= 2.73D-02

 Cycle   5  Pass 1  IDiag  1:
 RMSU=  1.12D-04    CP:  9.87D-01  8.29D-01  9.32D-01  7.56D-01
 E= -1162.43021663423     Delta-E=       -0.007045465398 Rises=F Damp=F
 DIIS: error= 4.31D-04 at cycle   5 NSaved=   5.
 NSaved= 5 IEnMin= 5 EnMin= -1162.43021663423     IErMin= 5 ErrMin= 4.31D-04
 ErrMax= 4.31D-04  0.00D+00 EMaxC= 1.00D-01 BMatC= 2.32D-04 BMatP= 7.02D-03
 IDIUse=3 WtCom= 9.96D-01 WtEn= 4.31D-03
 Coeff-Com: -0.569D-02 0.171D-01 0.123D+00 0.245D+00 0.620D+00
 Coeff-En:   0.000D+00 0.000D+00 0.000D+00 0.000D+00 0.100D+01
 Coeff:     -0.566D-02 0.170D-01 0.123D+00 0.244D+00 0.622D+00
 Gap=     0.187 Goal=   None    Shift=    0.000
 RMSDP=6.70D-05 MaxDP=4.28D-03 DE=-7.05D-03 OVMax= 3.94D-03

 Cycle   6  Pass 1  IDiag  1:
 RMSU=  6.37D-05    CP:  9.89D-01  8.35D-01  9.35D-01  7.21D-01  1.02D+00
 E= -1162.43042617056     Delta-E=       -0.000209536335 Rises=F Damp=F
 DIIS: error= 1.07D-04 at cycle   6 NSaved=   6.
 NSaved= 6 IEnMin= 6 EnMin= -1162.43042617056     IErMin= 6 ErrMin= 1.07D-04
 ErrMax= 1.07D-04  0.00D+00 EMaxC= 1.00D-01 BMatC= 2.15D-05 BMatP= 2.32D-04
 IDIUse=3 WtCom= 9.99D-01 WtEn= 1.07D-03
 Coeff-Com: -0.769D-03-0.600D-03 0.271D-01 0.634D-01 0.274D+00 0.636D+00
 Coeff-En:   0.000D+00 0.000D+00 0.000D+00 0.000D+00 0.000D+00 0.100D+01
 Coeff:     -0.768D-03-0.599D-03 0.271D-01 0.633D-01 0.274D+00 0.637D+00
 Gap=     0.187 Goal=   None    Shift=    0.000
 RMSDP=1.79D-05 MaxDP=1.02D-03 DE=-2.10D-04 OVMax= 1.26D-03

 Cycle   7  Pass 1  IDiag  1:
 RMSU=  1.17D-05    CP:  9.89D-01  8.33D-01  9.36D-01  7.30D-01  1.11D+00
                    CP:  1.12D+00
 E= -1162.43044533029     Delta-E=       -0.000019159727 Rises=F Damp=F
 DIIS: error= 6.12D-05 at cycle   7 NSaved=   7.
 NSaved= 7 IEnMin= 7 EnMin= -1162.43044533029     IErMin= 7 ErrMin= 6.12D-05
 ErrMax= 6.12D-05  0.00D+00 EMaxC= 1.00D-01 BMatC= 2.77D-06 BMatP= 2.15D-05
 IDIUse=1 WtCom= 1.00D+00 WtEn= 0.00D+00
 Coeff-Com:  0.332D-03-0.237D-02-0.497D-03 0.203D-02 0.570D-01 0.291D+00
 Coeff-Com:  0.652D+00
 Coeff:      0.332D-03-0.237D-02-0.497D-03 0.203D-02 0.570D-01 0.291D+00
 Coeff:      0.652D+00
 Gap=     0.187 Goal=   None    Shift=    0.000
 RMSDP=9.33D-06 MaxDP=5.93D-04 DE=-1.92D-05 OVMax= 6.47D-04

 Cycle   8  Pass 1  IDiag  1:
 RMSU=  4.43D-06    CP:  9.89D-01  8.33D-01  9.36D-01  7.32D-01  1.15D+00
                    CP:  1.22D+00  9.79D-01
 E= -1162.43044767034     Delta-E=       -0.000002340053 Rises=F Damp=F
 DIIS: error= 2.91D-05 at cycle   8 NSaved=   8.
 NSaved= 8 IEnMin= 8 EnMin= -1162.43044767034     IErMin= 8 ErrMin= 2.91D-05
 ErrMax= 2.91D-05  0.00D+00 EMaxC= 1.00D-01 BMatC= 5.89D-07 BMatP= 2.77D-06
 IDIUse=1 WtCom= 1.00D+00 WtEn= 0.00D+00
 Coeff-Com:  0.377D-03-0.119D-02-0.490D-02-0.106D-01-0.160D-01 0.481D-01
 Coeff-Com:  0.351D+00 0.634D+00
 Coeff:      0.377D-03-0.119D-02-0.490D-02-0.106D-01-0.160D-01 0.481D-01
 Coeff:      0.351D+00 0.634D+00
 Gap=     0.187 Goal=   None    Shift=    0.000
 RMSDP=4.33D-06 MaxDP=2.40D-04 DE=-2.34D-06 OVMax= 2.99D-04

 Cycle   9  Pass 1  IDiag  1:
 RMSU=  1.41D-06    CP:  9.89D-01  8.33D-01  9.36D-01  7.34D-01  1.17D+00
                    CP:  1.26D+00  1.14D+00  1.03D+00
 E= -1162.43044823484     Delta-E=       -0.000000564498 Rises=F Damp=F
 DIIS: error= 8.87D-06 at cycle   9 NSaved=   9.
 NSaved= 9 IEnMin= 9 EnMin= -1162.43044823484     IErMin= 9 ErrMin= 8.87D-06
 ErrMax= 8.87D-06  0.00D+00 EMaxC= 1.00D-01 BMatC= 5.83D-08 BMatP= 5.89D-07
 IDIUse=1 WtCom= 1.00D+00 WtEn= 0.00D+00
 Coeff-Com:  0.142D-03-0.280D-03-0.203D-02-0.502D-02-0.125D-01-0.974D-02
 Coeff-Com:  0.867D-01 0.296D+00 0.647D+00
 Coeff:      0.142D-03-0.280D-03-0.203D-02-0.502D-02-0.125D-01-0.974D-02
 Coeff:      0.867D-01 0.296D+00 0.647D+00
 Gap=     0.187 Goal=   None    Shift=    0.000
 RMSDP=1.47D-06 MaxDP=8.78D-05 DE=-5.64D-07 OVMax= 7.75D-05

 Cycle  10  Pass 1  IDiag  1:
 RMSU=  4.67D-07    CP:  9.89D-01  8.33D-01  9.37D-01  7.34D-01  1.18D+00
                    CP:  1.28D+00  1.16D+00  1.14D+00  1.07D+00
 E= -1162.43044828711     Delta-E=       -0.000000052270 Rises=F Damp=F
 DIIS: error= 2.26D-06 at cycle  10 NSaved=  10.
 NSaved=10 IEnMin=10 EnMin= -1162.43044828711     IErMin=10 ErrMin= 2.26D-06
 ErrMax= 2.26D-06  0.00D+00 EMaxC= 1.00D-01 BMatC= 8.81D-09 BMatP= 5.83D-08
 IDIUse=1 WtCom= 1.00D+00 WtEn= 0.00D+00
 Coeff-Com: -0.190D-06 0.809D-04-0.748D-04-0.466D-03-0.282D-02-0.133D-01
 Coeff-Com: -0.221D-01 0.302D-01 0.316D+00 0.693D+00
 Coeff:     -0.190D-06 0.809D-04-0.748D-04-0.466D-03-0.282D-02-0.133D-01
 Coeff:     -0.221D-01 0.302D-01 0.316D+00 0.693D+00
 Gap=     0.187 Goal=   None    Shift=    0.000
 RMSDP=5.52D-07 MaxDP=3.68D-05 DE=-5.23D-08 OVMax= 3.15D-05

 Cycle  11  Pass 1  IDiag  1:
 RMSU=  1.85D-07    CP:  9.89D-01  8.33D-01  9.37D-01  7.34D-01  1.18D+00
                    CP:  1.28D+00  1.18D+00  1.17D+00  1.17D+00  1.04D+00
 E= -1162.43044829502     Delta-E=       -0.000000007907 Rises=F Damp=F
 DIIS: error= 6.58D-07 at cycle  11 NSaved=  11.
 NSaved=11 IEnMin=11 EnMin= -1162.43044829502     IErMin=11 ErrMin= 6.58D-07
 ErrMax= 6.58D-07  0.00D+00 EMaxC= 1.00D-01 BMatC= 8.20D-10 BMatP= 8.81D-09
 IDIUse=1 WtCom= 1.00D+00 WtEn= 0.00D+00
 Coeff-Com: -0.133D-04 0.650D-04 0.150D-03 0.261D-03-0.218D-03-0.535D-02
 Coeff-Com: -0.176D-01-0.124D-01 0.908D-01 0.320D+00 0.625D+00
 Coeff:     -0.133D-04 0.650D-04 0.150D-03 0.261D-03-0.218D-03-0.535D-02
 Coeff:     -0.176D-01-0.124D-01 0.908D-01 0.320D+00 0.625D+00
 Gap=     0.187 Goal=   None    Shift=    0.000
 RMSDP=1.23D-07 MaxDP=6.87D-06 DE=-7.91D-09 OVMax= 1.01D-05

 Cycle  12  Pass 1  IDiag  1:
 RMSU=  6.59D-08    CP:  9.89D-01  8.33D-01  9.37D-01  7.34D-01  1.18D+00
                    CP:  1.28D+00  1.18D+00  1.18D+00  1.18D+00  1.13D+00
                    CP:  1.10D+00
 E= -1162.43044829580     Delta-E=       -0.000000000780 Rises=F Damp=F
 DIIS: error= 3.18D-07 at cycle  12 NSaved=  12.
 NSaved=12 IEnMin=12 EnMin= -1162.43044829580     IErMin=12 ErrMin= 3.18D-07
 ErrMax= 3.18D-07  0.00D+00 EMaxC= 1.00D-01 BMatC= 8.88D-11 BMatP= 8.20D-10
 IDIUse=1 WtCom= 1.00D+00 WtEn= 0.00D+00
 Coeff-Com: -0.525D-05 0.154D-04 0.610D-04 0.163D-03 0.264D-03-0.249D-03
 Coeff-Com: -0.359D-02-0.901D-02-0.679D-02 0.314D-01 0.265D+00 0.723D+00
 Coeff:     -0.525D-05 0.154D-04 0.610D-04 0.163D-03 0.264D-03-0.249D-03
 Coeff:     -0.359D-02-0.901D-02-0.679D-02 0.314D-01 0.265D+00 0.723D+00
 Gap=     0.187 Goal=   None    Shift=    0.000
 RMSDP=4.44D-08 MaxDP=3.39D-06 DE=-7.80D-10 OVMax= 3.60D-06

 Cycle  13  Pass 1  IDiag  1:
 RMSU=  2.50D-08    CP:  9.89D-01  8.33D-01  9.37D-01  7.34D-01  1.18D+00
                    CP:  1.28D+00  1.18D+00  1.18D+00  1.19D+00  1.15D+00
                    CP:  1.23D+00  1.16D+00
 E= -1162.43044829589     Delta-E=       -0.000000000090 Rises=F Damp=F
 DIIS: error= 8.72D-08 at cycle  13 NSaved=  13.
 NSaved=13 IEnMin=13 EnMin= -1162.43044829589     IErMin=13 ErrMin= 8.72D-08
 ErrMax= 8.72D-08  0.00D+00 EMaxC= 1.00D-01 BMatC= 1.21D-11 BMatP= 8.88D-11
 IDIUse=1 WtCom= 1.00D+00 WtEn= 0.00D+00
 Coeff-Com: -0.146D-05 0.210D-05 0.135D-04 0.496D-04 0.140D-03 0.378D-03
 Coeff-Com: -0.351D-04-0.288D-02-0.110D-01-0.153D-01 0.637D-01 0.343D+00
 Coeff-Com:  0.622D+00
 Coeff:     -0.146D-05 0.210D-05 0.135D-04 0.496D-04 0.140D-03 0.378D-03
 Coeff:     -0.351D-04-0.288D-02-0.110D-01-0.153D-01 0.637D-01 0.343D+00
 Coeff:      0.622D+00
 Gap=     0.187 Goal=   None    Shift=    0.000
 RMSDP=1.20D-08 MaxDP=5.23D-07 DE=-9.05D-11 OVMax= 9.56D-07

 Cycle  14  Pass 1  IDiag  1:
 RMSU=  7.89D-09    CP:  9.89D-01  8.33D-01  9.37D-01  7.34D-01  1.18D+00
                    CP:  1.28D+00  1.18D+00  1.18D+00  1.19D+00  1.16D+00
                    CP:  1.26D+00  1.21D+00  1.12D+00
 E= -1162.43044829589     Delta-E=        0.000000000002 Rises=F Damp=F
 DIIS: error= 2.35D-08 at cycle  14 NSaved=  14.
 NSaved=14 IEnMin=13 EnMin= -1162.43044829589     IErMin=14 ErrMin= 2.35D-08
 ErrMax= 2.35D-08  0.00D+00 EMaxC= 1.00D-01 BMatC= 1.02D-12 BMatP= 1.21D-11
 IDIUse=1 WtCom= 1.00D+00 WtEn= 0.00D+00
 Coeff-Com:  0.473D-07-0.106D-05-0.351D-05-0.515D-05 0.160D-04 0.174D-03
 Coeff-Com:  0.474D-03 0.320D-03-0.261D-02-0.100D-01-0.171D-01 0.206D-01
 Coeff-Com:  0.236D+00 0.772D+00
 Coeff:      0.473D-07-0.106D-05-0.351D-05-0.515D-05 0.160D-04 0.174D-03
 Coeff:      0.474D-03 0.320D-03-0.261D-02-0.100D-01-0.171D-01 0.206D-01
 Coeff:      0.236D+00 0.772D+00
 Gap=     0.187 Goal=   None    Shift=    0.000
 RMSDP=5.20D-09 MaxDP=2.35D-07 DE= 1.82D-12 OVMax= 3.63D-07

 Error on total polarization charges =  0.05208
 SCF Done:  E(RM06) =  -1162.43044830     A.U. after   14 cycles
            NFock= 14  Conv=0.52D-08     -V/T= 2.0044
 KE= 1.157318561685D+03 PE=-5.856038170727D+03 EE= 1.969641695559D+03
 SMD-CDS (non-electrostatic) energy       (kcal/mol) =      -3.66
 (included in total energy above)
 Leave Link  502 at Sun Feb 21 03:54:56 2021, MaxMem=  5242880000 cpu:      8916.2
 (Enter /opt/nce/packages/global/g09/l601.exe)
 Copying SCF densities to generalized density rwf, IOpCl= 0 IROHF=0.

 **********************************************************************

            Population analysis using the SCF density.

 **********************************************************************

 Alpha  occ. eigenvalues --  -89.05495 -14.43011 -14.38151 -10.32235 -10.29299
 Alpha  occ. eigenvalues --  -10.29230 -10.28062 -10.27954 -10.27484 -10.25622
 Alpha  occ. eigenvalues --  -10.25174 -10.24959 -10.24957 -10.24731 -10.24673
 Alpha  occ. eigenvalues --  -10.24587 -10.24506 -10.24432 -10.24407 -10.23786
 Alpha  occ. eigenvalues --   -8.06831  -5.98535  -5.98181  -5.97566  -1.00531
 Alpha  occ. eigenvalues --   -0.94641  -0.87751  -0.87295  -0.81874  -0.81294
 Alpha  occ. eigenvalues --   -0.77573  -0.77179  -0.76415  -0.74011  -0.70189
 Alpha  occ. eigenvalues --   -0.65716  -0.65312  -0.62469  -0.61455  -0.61327
 Alpha  occ. eigenvalues --   -0.57878  -0.55331  -0.55028  -0.50856  -0.50164
 Alpha  occ. eigenvalues --   -0.49185  -0.48161  -0.47555  -0.47242  -0.45436
 Alpha  occ. eigenvalues --   -0.45048  -0.44349  -0.43329  -0.42998  -0.41669
 Alpha  occ. eigenvalues --   -0.40825  -0.39885  -0.39049  -0.38716  -0.37667
 Alpha  occ. eigenvalues --   -0.37005  -0.35784  -0.35260  -0.33653  -0.31567
 Alpha  occ. eigenvalues --   -0.30148  -0.28492  -0.28139  -0.27374  -0.26498
 Alpha  occ. eigenvalues --   -0.23981  -0.21621
 Alpha virt. eigenvalues --   -0.02965  -0.02746  -0.02236  -0.01587  -0.00850
 Alpha virt. eigenvalues --    0.00509   0.02309   0.04758   0.05865   0.06660
 Alpha virt. eigenvalues --    0.07129   0.07529   0.08054   0.08725   0.09111
 Alpha virt. eigenvalues --    0.09768   0.10186   0.10724   0.11266   0.11826
 Alpha virt. eigenvalues --    0.12013   0.12227   0.13653   0.13693   0.14721
 Alpha virt. eigenvalues --    0.15857   0.17026   0.17379   0.18250   0.18759
 Alpha virt. eigenvalues --    0.19341   0.19968   0.20175   0.20837   0.21241
 Alpha virt. eigenvalues --    0.21627   0.22044   0.22434   0.23204   0.23505
 Alpha virt. eigenvalues --    0.23845   0.24290   0.24439   0.24687   0.25008
 Alpha virt. eigenvalues --    0.25386   0.26132   0.26425   0.27037   0.27541
 Alpha virt. eigenvalues --    0.28210   0.28952   0.29063   0.29509   0.30107
 Alpha virt. eigenvalues --    0.30421   0.31053   0.31244   0.31670   0.31856
 Alpha virt. eigenvalues --    0.32240   0.32430   0.32711   0.33833   0.34382
 Alpha virt. eigenvalues --    0.34749   0.35114   0.35382   0.35712   0.36602
 Alpha virt. eigenvalues --    0.36710   0.36815   0.37366   0.37613   0.37902
 Alpha virt. eigenvalues --    0.38336   0.38404   0.39197   0.39650   0.39847
 Alpha virt. eigenvalues --    0.40308   0.40526   0.40810   0.41463   0.41993
 Alpha virt. eigenvalues --    0.42597   0.42808   0.43501   0.44429   0.45855
 Alpha virt. eigenvalues --    0.46187   0.46406   0.46975   0.47496   0.47681
 Alpha virt. eigenvalues --    0.48247   0.48294   0.48655   0.50154   0.50472
 Alpha virt. eigenvalues --    0.51222   0.51912   0.52347   0.53761   0.54010
 Alpha virt. eigenvalues --    0.54773   0.55602   0.55777   0.56958   0.57198
 Alpha virt. eigenvalues --    0.58662   0.59044   0.59478   0.60004   0.61418
 Alpha virt. eigenvalues --    0.62475   0.63058   0.63375   0.63807   0.64342
 Alpha virt. eigenvalues --    0.65154   0.66018   0.66287   0.66579   0.67140
 Alpha virt. eigenvalues --    0.67599   0.67885   0.68573   0.68720   0.69671
 Alpha virt. eigenvalues --    0.70348   0.71008   0.72272   0.72654   0.73398
 Alpha virt. eigenvalues --    0.74221   0.74637   0.75267   0.75696   0.76715
 Alpha virt. eigenvalues --    0.77643   0.78407   0.79162   0.79992   0.80724
 Alpha virt. eigenvalues --    0.81409   0.81889   0.82699   0.83838   0.83910
 Alpha virt. eigenvalues --    0.85007   0.86207   0.86736   0.87390   0.88284
 Alpha virt. eigenvalues --    0.88788   0.89219   0.89974   0.91229   0.92582
 Alpha virt. eigenvalues --    0.92870   0.92922   0.94339   0.95947   0.96561
 Alpha virt. eigenvalues --    0.97936   0.98750   0.99060   1.01448   1.01983
 Alpha virt. eigenvalues --    1.02871   1.02961   1.04401   1.04937   1.05637
 Alpha virt. eigenvalues --    1.07150   1.08343   1.08455   1.09734   1.10844
 Alpha virt. eigenvalues --    1.11043   1.11967   1.12541   1.13686   1.14725
 Alpha virt. eigenvalues --    1.15936   1.16241   1.17582   1.18128   1.18798
 Alpha virt. eigenvalues --    1.20157   1.20927   1.21407   1.21774   1.22581
 Alpha virt. eigenvalues --    1.23230   1.24365   1.25448   1.26119   1.26723
 Alpha virt. eigenvalues --    1.27380   1.28027   1.29379   1.29633   1.30685
 Alpha virt. eigenvalues --    1.30945   1.31915   1.32699   1.33870   1.35268
 Alpha virt. eigenvalues --    1.35467   1.37230   1.38275   1.38398   1.39525
 Alpha virt. eigenvalues --    1.40763   1.41856   1.42213   1.42867   1.43408
 Alpha virt. eigenvalues --    1.43823   1.44843   1.45618   1.46399   1.46567
 Alpha virt. eigenvalues --    1.47372   1.47530   1.48476   1.50253   1.50752
 Alpha virt. eigenvalues --    1.51367   1.53420   1.54204   1.54849   1.55219
 Alpha virt. eigenvalues --    1.56300   1.56541   1.57810   1.58144   1.59132
 Alpha virt. eigenvalues --    1.59949   1.60684   1.61043   1.61708   1.62223
 Alpha virt. eigenvalues --    1.62482   1.63093   1.63788   1.64198   1.65556
 Alpha virt. eigenvalues --    1.66677   1.67138   1.67785   1.68529   1.69330
 Alpha virt. eigenvalues --    1.70023   1.70546   1.71191   1.71620   1.71761
 Alpha virt. eigenvalues --    1.73227   1.74168   1.74560   1.76070   1.77018
 Alpha virt. eigenvalues --    1.78286   1.79089   1.80352   1.80754   1.82178
 Alpha virt. eigenvalues --    1.82981   1.84300   1.84841   1.86210   1.86851
 Alpha virt. eigenvalues --    1.87773   1.88623   1.89356   1.90544   1.92994
 Alpha virt. eigenvalues --    1.93468   1.93903   1.94703   1.95440   1.97664
 Alpha virt. eigenvalues --    1.97970   1.99259   2.00247   2.01241   2.02005
 Alpha virt. eigenvalues --    2.03125   2.04239   2.05389   2.05902   2.06599
 Alpha virt. eigenvalues --    2.07336   2.07967   2.08761   2.09982   2.12786
 Alpha virt. eigenvalues --    2.13271   2.13720   2.14326   2.15312   2.16672
 Alpha virt. eigenvalues --    2.16730   2.17336   2.18358   2.18980   2.19329
 Alpha virt. eigenvalues --    2.20361   2.21278   2.21715   2.22688   2.24336
 Alpha virt. eigenvalues --    2.25354   2.28153   2.29744   2.31517   2.32508
 Alpha virt. eigenvalues --    2.36767   2.38640   2.39739   2.41195   2.42351
 Alpha virt. eigenvalues --    2.43048   2.43779   2.44273   2.45943   2.48088
 Alpha virt. eigenvalues --    2.48562   2.48908   2.49327   2.49997   2.50317
 Alpha virt. eigenvalues --    2.53796   2.53998   2.54873   2.56282   2.56480
 Alpha virt. eigenvalues --    2.57722   2.58202   2.59552   2.60711   2.61259
 Alpha virt. eigenvalues --    2.62141   2.62543   2.62814   2.63320   2.64580
 Alpha virt. eigenvalues --    2.64673   2.65248   2.66101   2.67299   2.67560
 Alpha virt. eigenvalues --    2.68097   2.68671   2.69122   2.70244   2.71061
 Alpha virt. eigenvalues --    2.71107   2.71640   2.72142   2.73465   2.74184
 Alpha virt. eigenvalues --    2.74424   2.75801   2.76457   2.76931   2.78125
 Alpha virt. eigenvalues --    2.78852   2.79115   2.79340   2.80035   2.80399
 Alpha virt. eigenvalues --    2.82116   2.82373   2.82981   2.83839   2.84199
 Alpha virt. eigenvalues --    2.84476   2.85331   2.85766   2.86583   2.86790
 Alpha virt. eigenvalues --    2.87516   2.88208   2.88850   2.89831   2.90049
 Alpha virt. eigenvalues --    2.91178   2.91477   2.93716   2.94960   2.95403
 Alpha virt. eigenvalues --    2.96936   2.98154   2.98954   2.99952   3.00055
 Alpha virt. eigenvalues --    3.00980   3.02524   3.03024   3.03599   3.04221
 Alpha virt. eigenvalues --    3.05157   3.05741   3.07384   3.07877   3.08120
 Alpha virt. eigenvalues --    3.08465   3.08932   3.09543   3.10582   3.10808
 Alpha virt. eigenvalues --    3.11726   3.12089   3.12351   3.13042   3.13633
 Alpha virt. eigenvalues --    3.13869   3.14907   3.15201   3.15721   3.16248
 Alpha virt. eigenvalues --    3.17290   3.18382   3.19539   3.19784   3.21494
 Alpha virt. eigenvalues --    3.22203   3.23120   3.23585   3.24833   3.26119
 Alpha virt. eigenvalues --    3.26739   3.27272   3.27762   3.28695   3.29600
 Alpha virt. eigenvalues --    3.29642   3.30068   3.30766   3.31784   3.32177
 Alpha virt. eigenvalues --    3.33170   3.33745   3.34100   3.34910   3.35149
 Alpha virt. eigenvalues --    3.35826   3.36388   3.37639   3.38232   3.38784
 Alpha virt. eigenvalues --    3.40021   3.40501   3.40961   3.41756   3.42485
 Alpha virt. eigenvalues --    3.42819   3.44081   3.45334   3.45836   3.47094
 Alpha virt. eigenvalues --    3.47793   3.48159   3.49181   3.50184   3.50308
 Alpha virt. eigenvalues --    3.50800   3.51518   3.51748   3.53004   3.53689
 Alpha virt. eigenvalues --    3.55081   3.55827   3.56186   3.57158   3.60608
 Alpha virt. eigenvalues --    3.61152   3.63479   3.65067   3.66127   3.66490
 Alpha virt. eigenvalues --    3.66657   3.68354   3.69841   3.71325   3.72138
 Alpha virt. eigenvalues --    3.73522   3.76141   3.76616   3.77720   3.79034
 Alpha virt. eigenvalues --    3.81108   3.82334   3.84012   3.84875   3.85891
 Alpha virt. eigenvalues --    3.86582   3.86905   3.88628   3.91813   3.94268
 Alpha virt. eigenvalues --    3.95904   3.96936   3.97398   3.99631   4.00617
 Alpha virt. eigenvalues --    4.00988   4.01398   4.02495   4.03735   4.05794
 Alpha virt. eigenvalues --    4.06758   4.09525   4.10584   4.12542   4.12798
 Alpha virt. eigenvalues --    4.13061   4.14584   4.15101   4.15633   4.16480
 Alpha virt. eigenvalues --    4.17129   4.17498   4.18204   4.19140   4.19669
 Alpha virt. eigenvalues --    4.22801   4.23361   4.23934   4.24532   4.26566
 Alpha virt. eigenvalues --    4.27605   4.28738   4.30623   4.31818   4.32343
 Alpha virt. eigenvalues --    4.34067   4.36263   4.38186   4.41722   4.45057
 Alpha virt. eigenvalues --    4.46926   4.51043   4.52486   4.53570   4.56631
 Alpha virt. eigenvalues --    4.56918   4.59345   4.61869   4.63817   4.70596
 Alpha virt. eigenvalues --    4.71055   4.71337   4.71615   4.74022   4.75360
 Alpha virt. eigenvalues --    4.77490   4.80795   4.83749   4.86212   4.88056
 Alpha virt. eigenvalues --    4.89216   4.91067   4.92802   4.94323   4.96354
 Alpha virt. eigenvalues --    4.98054   4.98845   5.01316   5.02586   5.05823
 Alpha virt. eigenvalues --    5.06407   5.11552   5.15915   5.16743   5.17421
 Alpha virt. eigenvalues --    5.21415   5.24431   5.25269   5.28803   5.34074
 Alpha virt. eigenvalues --    5.36034   5.36208   5.37928   5.40692   5.42402
 Alpha virt. eigenvalues --    5.48581   5.51468   5.58030   5.62808   5.66146
 Alpha virt. eigenvalues --    5.67239   5.68466   5.77711   5.87720   5.88592
 Alpha virt. eigenvalues --    5.94677   6.03243   6.26206   9.06328   9.49335
 Alpha virt. eigenvalues --    9.66104  20.32773  22.04539  22.18800  22.31298
 Alpha virt. eigenvalues --   22.53637  22.55591  22.56124  22.60812  22.61250
 Alpha virt. eigenvalues --   22.63236  22.76294  22.77022  22.80192  22.84407
 Alpha virt. eigenvalues --   22.87328  23.16186  23.22047  23.25028  32.59532
 Alpha virt. eigenvalues --   33.17749
          Condensed to atoms (all electrons):
               1          2          3          4          5          6
     1  C    5.180978   0.248561   0.153522  -0.177289   0.125529   0.280319
     2  C    0.248561   5.383824   0.095646   0.117395  -0.185642   0.079069
     3  C    0.153522   0.095646   5.610025   0.054976   0.174654  -0.153284
     4  C   -0.177289   0.117395   0.054976   5.676786   0.111952   0.113977
     5  C    0.125529  -0.185642   0.174654   0.111952   5.558296   0.194081
     6  C    0.280319   0.079069  -0.153284   0.113977   0.194081   5.182428
     7  C   -0.000254   0.004219   0.016884  -0.162011  -0.014715   0.000111
     8  C   -0.001447   0.004187  -0.073890  -0.007236   0.000326   0.000632
     9  C   -0.000117   0.001802   0.002932   0.002172  -0.000545   0.000017
    10  H   -0.000000   0.000055  -0.000175   0.000083  -0.000017   0.000002
    11  C   -0.000012  -0.000048  -0.001773   0.001500   0.000034   0.000019
    12  C    0.000028  -0.000029   0.001400  -0.003183   0.000017  -0.000026
    13  C    0.000037  -0.000928  -0.002704   0.021808   0.006523  -0.000083
    14  H   -0.058448   0.461309  -0.090583   0.030260  -0.008197   0.013205
    15  H    0.010248  -0.004597   0.014256  -0.068466   0.450668  -0.041098
    16  H   -0.074734   0.016571  -0.006554   0.020589  -0.076795   0.474920
    17  H   -0.000000  -0.000000   0.000011   0.000006   0.000000  -0.000000
    18  H    0.000000   0.000000   0.000004  -0.000047  -0.000002  -0.000000
    19  C   -0.001524   0.003475  -0.019655  -0.137428  -0.014880   0.003344
    20  C    0.000105  -0.000556   0.003574   0.018407   0.001036  -0.000236
    21  C    0.000005  -0.000002  -0.000047  -0.001578   0.000027  -0.000018
    22  C    0.000066  -0.000061  -0.001164  -0.002952   0.004088  -0.000059
    23  C    0.000007  -0.000012   0.000063   0.001236  -0.000201  -0.000056
    24  H    0.000000  -0.000000  -0.000004   0.000041   0.000008  -0.000000
    25  H   -0.000021   0.000016  -0.000048   0.000228  -0.000012   0.000137
    26  H   -0.000005   0.000027   0.000103  -0.003168  -0.000145   0.000015
    27  H   -0.000000   0.000000  -0.000000  -0.000027  -0.000005   0.000001
    28  H    0.478565  -0.078841   0.018797  -0.007479   0.018650  -0.076198
    29  N   -0.003745   0.014825  -0.090424   0.289436  -0.061452   0.010111
    30  H   -0.000004   0.000008  -0.000363   0.000133  -0.000093   0.000033
    31  S    0.010051  -0.082527   0.352539  -0.089453   0.015107  -0.002685
    32  N    0.002478  -0.002927   0.006955  -0.017724   0.019886  -0.012018
               7          8          9         10         11         12
     1  C   -0.000254  -0.001447  -0.000117  -0.000000  -0.000012   0.000028
     2  C    0.004219   0.004187   0.001802   0.000055  -0.000048  -0.000029
     3  C    0.016884  -0.073890   0.002932  -0.000175  -0.001773   0.001400
     4  C   -0.162011  -0.007236   0.002172   0.000083   0.001500  -0.003183
     5  C   -0.014715   0.000326  -0.000545  -0.000017   0.000034   0.000017
     6  C    0.000111   0.000632   0.000017   0.000002   0.000019  -0.000026
     7  C    5.922877   0.077753   0.081300   0.030520  -0.160432   0.063983
     8  C    0.077753   5.566190   0.121930  -0.084358   0.133822  -0.123619
     9  C    0.081300   0.121930   5.348223   0.454290   0.269236   0.054236
    10  H    0.030520  -0.084358   0.454290   0.514834  -0.059197   0.012518
    11  C   -0.160432   0.133822   0.269236  -0.059197   5.180169   0.289016
    12  C    0.063983  -0.123619   0.054236   0.012518   0.289016   5.159817
    13  C    0.116862   0.133392  -0.131966  -0.006985   0.089141   0.247682
    14  H    0.000309  -0.000360   0.000017   0.000027   0.000000   0.000002
    15  H   -0.001137  -0.000587   0.000002   0.000000  -0.000005   0.000031
    16  H   -0.000005   0.000003   0.000000  -0.000000  -0.000000  -0.000000
    17  H   -0.006667   0.017530  -0.076701  -0.005787   0.477129  -0.074741
    18  H    0.019219  -0.005812   0.015894  -0.000041  -0.074228   0.473905
    19  C   -0.140465  -0.031127   0.005407   0.000055  -0.000650  -0.001948
    20  C   -0.010137   0.007745  -0.001253  -0.000031   0.000259  -0.000151
    21  C   -0.007709  -0.000943  -0.000099  -0.000001   0.000081  -0.000027
    22  C   -0.003859  -0.000006   0.000010   0.000000   0.000001   0.000005
    23  C    0.000570   0.000126  -0.000004  -0.000000  -0.000002   0.000029
    24  H    0.000017  -0.000018   0.000001   0.000000   0.000000   0.000005
    25  H    0.000084  -0.000000   0.000000   0.000000  -0.000000  -0.000000
    26  H    0.005597  -0.000445   0.000994   0.000007  -0.001031   0.001337
    27  H    0.000023   0.000001   0.000000   0.000000  -0.000000  -0.000000
    28  H   -0.000005   0.000017  -0.000000  -0.000000  -0.000000  -0.000000
    29  N    0.232113  -0.072469   0.009545  -0.000255   0.000204   0.004664
    30  H   -0.065852   0.013949  -0.003439   0.000008   0.009078  -0.041916
    31  S   -0.107582   0.371162  -0.083491   0.002280   0.008502  -0.001643
    32  N   -0.002391  -0.000612   0.000047  -0.000000  -0.000001  -0.000118
              13         14         15         16         17         18
     1  C    0.000037  -0.058448   0.010248  -0.074734  -0.000000   0.000000
     2  C   -0.000928   0.461309  -0.004597   0.016571  -0.000000   0.000000
     3  C   -0.002704  -0.090583   0.014256  -0.006554   0.000011   0.000004
     4  C    0.021808   0.030260  -0.068466   0.020589   0.000006  -0.000047
     5  C    0.006523  -0.008197   0.450668  -0.076795   0.000000  -0.000002
     6  C   -0.000083   0.013205  -0.041098   0.474920  -0.000000  -0.000000
     7  C    0.116862   0.000309  -0.001137  -0.000005  -0.006667   0.019219
     8  C    0.133392  -0.000360  -0.000587   0.000003   0.017530  -0.005812
     9  C   -0.131966   0.000017   0.000002   0.000000  -0.076701   0.015894
    10  H   -0.006985   0.000027   0.000000  -0.000000  -0.005787  -0.000041
    11  C    0.089141   0.000000  -0.000005  -0.000000   0.477129  -0.074228
    12  C    0.247682   0.000002   0.000031  -0.000000  -0.074741   0.473905
    13  C    5.470123  -0.000015   0.000319  -0.000003   0.017473  -0.074814
    14  H   -0.000015   0.515745  -0.000013  -0.000044  -0.000000  -0.000000
    15  H    0.000319  -0.000013   0.485421  -0.005800  -0.000000  -0.000000
    16  H   -0.000003  -0.000044  -0.005800   0.521153   0.000000  -0.000000
    17  H    0.017473  -0.000000  -0.000000   0.000000   0.519330  -0.006532
    18  H   -0.074814  -0.000000  -0.000000  -0.000000  -0.006532   0.517648
    19  C    0.011750   0.000040  -0.004959   0.000052   0.000011   0.000081
    20  C   -0.012532  -0.000006   0.000031  -0.000007  -0.000002  -0.000032
    21  C    0.005652  -0.000000   0.000147   0.000000  -0.000000  -0.000008
    22  C    0.000266   0.000000   0.000471  -0.000003   0.000000   0.000001
    23  C   -0.000283  -0.000000   0.000153  -0.000002  -0.000000  -0.000001
    24  H    0.000026  -0.000000   0.000003  -0.000000  -0.000000   0.000000
    25  H   -0.000016   0.000000  -0.000590   0.000009   0.000000   0.000000
    26  H   -0.020035   0.000000  -0.000062   0.000000  -0.000004   0.000059
    27  H   -0.000002   0.000000  -0.000019   0.000000  -0.000000   0.000000
    28  H    0.000001  -0.005827   0.000034  -0.006684   0.000000   0.000000
    29  N   -0.029332  -0.000116  -0.004302  -0.000027   0.000025  -0.000203
    30  H    0.452829   0.000000  -0.000010  -0.000000  -0.000010  -0.005515
    31  S    0.013826   0.001212  -0.000207   0.000021  -0.000279   0.000023
    32  N   -0.000350  -0.000008   0.025975  -0.000354   0.000000   0.000002
              19         20         21         22         23         24
     1  C   -0.001524   0.000105   0.000005   0.000066   0.000007   0.000000
     2  C    0.003475  -0.000556  -0.000002  -0.000061  -0.000012  -0.000000
     3  C   -0.019655   0.003574  -0.000047  -0.001164   0.000063  -0.000004
     4  C   -0.137428   0.018407  -0.001578  -0.002952   0.001236   0.000041
     5  C   -0.014880   0.001036   0.000027   0.004088  -0.000201   0.000008
     6  C    0.003344  -0.000236  -0.000018  -0.000059  -0.000056  -0.000000
     7  C   -0.140465  -0.010137  -0.007709  -0.003859   0.000570   0.000017
     8  C   -0.031127   0.007745  -0.000943  -0.000006   0.000126  -0.000018
     9  C    0.005407  -0.001253  -0.000099   0.000010  -0.000004   0.000001
    10  H    0.000055  -0.000031  -0.000001   0.000000  -0.000000   0.000000
    11  C   -0.000650   0.000259   0.000081   0.000001  -0.000002   0.000000
    12  C   -0.001948  -0.000151  -0.000027   0.000005   0.000029   0.000005
    13  C    0.011750  -0.012532   0.005652   0.000266  -0.000283   0.000026
    14  H    0.000040  -0.000006  -0.000000   0.000000  -0.000000  -0.000000
    15  H   -0.004959   0.000031   0.000147   0.000471   0.000153   0.000003
    16  H    0.000052  -0.000007   0.000000  -0.000003  -0.000002  -0.000000
    17  H    0.000011  -0.000002  -0.000000   0.000000  -0.000000  -0.000000
    18  H    0.000081  -0.000032  -0.000008   0.000001  -0.000001   0.000000
    19  C    4.906780   0.388376  -0.043534  -0.113289  -0.024644   0.008737
    20  C    0.388376   5.207433   0.454690  -0.029007  -0.035736  -0.047309
    21  C   -0.043534   0.454690   4.965480  -0.009668   0.403386   0.440718
    22  C   -0.113289  -0.029007  -0.009668   4.775849   0.446932   0.005684
    23  C   -0.024644  -0.035736   0.403386   0.446932   5.125883  -0.049254
    24  H    0.008737  -0.047309   0.440718   0.005684  -0.049254   0.501216
    25  H    0.006826  -0.000911   0.002683   0.428761  -0.070599  -0.000199
    26  H   -0.047584   0.420768  -0.021136  -0.001835   0.006719  -0.004077
    27  H   -0.001260   0.010410  -0.059655  -0.039554   0.434978  -0.005051
    28  H    0.000005   0.000000  -0.000000   0.000000   0.000000   0.000000
    29  N    0.443988  -0.070161  -0.001172   0.003467   0.000670  -0.000140
    30  H   -0.001657  -0.004270   0.000059   0.000155   0.000018   0.000010
    31  S    0.002580   0.001914   0.000021   0.000075   0.000018  -0.000001
    32  N    0.367837  -0.020830  -0.025457   0.454684  -0.054359  -0.000966
              25         26         27         28         29         30
     1  C   -0.000021  -0.000005  -0.000000   0.478565  -0.003745  -0.000004
     2  C    0.000016   0.000027   0.000000  -0.078841   0.014825   0.000008
     3  C   -0.000048   0.000103  -0.000000   0.018797  -0.090424  -0.000363
     4  C    0.000228  -0.003168  -0.000027  -0.007479   0.289436   0.000133
     5  C   -0.000012  -0.000145  -0.000005   0.018650  -0.061452  -0.000093
     6  C    0.000137   0.000015   0.000001  -0.076198   0.010111   0.000033
     7  C    0.000084   0.005597   0.000023  -0.000005   0.232113  -0.065852
     8  C   -0.000000  -0.000445   0.000001   0.000017  -0.072469   0.013949
     9  C    0.000000   0.000994   0.000000  -0.000000   0.009545  -0.003439
    10  H    0.000000   0.000007   0.000000  -0.000000  -0.000255   0.000008
    11  C   -0.000000  -0.001031  -0.000000  -0.000000   0.000204   0.009078
    12  C   -0.000000   0.001337  -0.000000  -0.000000   0.004664  -0.041916
    13  C   -0.000016  -0.020035  -0.000002   0.000001  -0.029332   0.452829
    14  H    0.000000   0.000000   0.000000  -0.005827  -0.000116   0.000000
    15  H   -0.000590  -0.000062  -0.000019   0.000034  -0.004302  -0.000010
    16  H    0.000009   0.000000   0.000000  -0.006684  -0.000027  -0.000000
    17  H    0.000000  -0.000004  -0.000000   0.000000   0.000025  -0.000010
    18  H    0.000000   0.000059   0.000000   0.000000  -0.000203  -0.005515
    19  C    0.006826  -0.047584  -0.001260   0.000005   0.443988  -0.001657
    20  C   -0.000911   0.420768   0.010410   0.000000  -0.070161  -0.004270
    21  C    0.002683  -0.021136  -0.059655  -0.000000  -0.001172   0.000059
    22  C    0.428761  -0.001835  -0.039554   0.000000   0.003467   0.000155
    23  C   -0.070599   0.006719   0.434978   0.000000   0.000670   0.000018
    24  H   -0.000199  -0.004077  -0.005051   0.000000  -0.000140   0.000010
    25  H    0.522208   0.000091   0.000932  -0.000000   0.000136  -0.000002
    26  H    0.000091   0.474741   0.000108  -0.000000  -0.001640  -0.000961
    27  H    0.000932   0.000108   0.510683  -0.000000   0.000060  -0.000001
    28  H   -0.000000  -0.000000  -0.000000   0.521679   0.000007  -0.000000
    29  N    0.000136  -0.001640   0.000060   0.000007   6.548614   0.001930
    30  H   -0.000002  -0.000961  -0.000001  -0.000000   0.001930   0.481809
    31  S    0.000001   0.000005  -0.000000  -0.000278   0.006685  -0.000241
    32  N   -0.033477   0.003190   0.005774   0.000009  -0.113227  -0.000126
              31         32
     1  C    0.010051   0.002478
     2  C   -0.082527  -0.002927
     3  C    0.352539   0.006955
     4  C   -0.089453  -0.017724
     5  C    0.015107   0.019886
     6  C   -0.002685  -0.012018
     7  C   -0.107582  -0.002391
     8  C    0.371162  -0.000612
     9  C   -0.083491   0.000047
    10  H    0.002280  -0.000000
    11  C    0.008502  -0.000001
    12  C   -0.001643  -0.000118
    13  C    0.013826  -0.000350
    14  H    0.001212  -0.000008
    15  H   -0.000207   0.025975
    16  H    0.000021  -0.000354
    17  H   -0.000279   0.000000
    18  H    0.000023   0.000002
    19  C    0.002580   0.367837
    20  C    0.001914  -0.020830
    21  C    0.000021  -0.025457
    22  C    0.000075   0.454684
    23  C    0.000018  -0.054359
    24  H   -0.000001  -0.000966
    25  H    0.000001  -0.033477
    26  H    0.000005   0.003190
    27  H   -0.000000   0.005774
    28  H   -0.000278   0.000009
    29  N    0.006685  -0.113227
    30  H   -0.000241  -0.000126
    31  S   15.627968  -0.000277
    32  N   -0.000277   6.938211
 Mulliken charges:
               1
     1  C   -0.172899
     2  C   -0.074821
     3  C   -0.065677
     4  C    0.217054
     5  C   -0.318183
     6  C   -0.066663
     7  C    0.110779
     8  C   -0.045834
     9  C   -0.070443
    10  H    0.142166
    11  C   -0.160815
    12  C   -0.061273
    13  C   -0.307662
    14  H    0.141490
    15  H    0.144094
    16  H    0.137692
    17  H    0.139209
    18  H    0.140398
    19  C    0.435258
    20  C   -0.281583
    21  C   -0.101894
    22  C    0.080942
    23  C   -0.185634
[...]
 Alpha virt. eigenvalues --    4.71484   4.72439   4.72867   4.75421   4.76275
 Alpha virt. eigenvalues --    4.80786   4.81848   4.87762   4.87850   4.89649
 Alpha virt. eigenvalues --    4.91768   4.93280   4.95016   4.96851   4.99307
 Alpha virt. eigenvalues --    5.00365   5.02463   5.04159   5.05550   5.08795
 Alpha virt. eigenvalues --    5.10718   5.15379   5.16264   5.20568   5.20729
 Alpha virt. eigenvalues --    5.22460   5.26557   5.27760   5.29789   5.34550
 Alpha virt. eigenvalues --    5.36145   5.39493   5.40158   5.42352   5.44522
 Alpha virt. eigenvalues --    5.50791   5.53530   5.59904   5.65700   5.69390
 Alpha virt. eigenvalues --    5.69967   5.70535   5.81997   5.88560   5.91868
 Alpha virt. eigenvalues --    5.99023   6.06915   6.29827   9.07109   9.51065
 Alpha virt. eigenvalues --    9.67260  20.42130  22.04886  22.23149  22.34585
 Alpha virt. eigenvalues --   22.59430  22.62102  22.63007  22.67219  22.67621
 Alpha virt. eigenvalues --   22.70178  22.83300  22.83872  22.87713  22.91990
 Alpha virt. eigenvalues --   22.95163  23.24755  23.29573  23.33687  32.60622
 Alpha virt. eigenvalues --   33.21295
          Condensed to atoms (all electrons):
               1          2          3          4          5          6
     1  C    5.215344   0.213726   0.186368  -0.198682   0.135215   0.257786
     2  C    0.213726   5.437665   0.029882   0.143287  -0.192937   0.089306
     3  C    0.186368   0.029882   5.669199   0.036040   0.197685  -0.165798
     4  C   -0.198682   0.143287   0.036040   5.764815   0.066407   0.116804
     5  C    0.135215  -0.192937   0.197685   0.066407   5.571394   0.192216
     6  C    0.257786   0.089306  -0.165798   0.116804   0.192216   5.183601
     7  C    0.000625  -0.000453  -0.001211  -0.130595   0.001141  -0.001062
     8  C   -0.001957   0.006470  -0.081961  -0.019097  -0.002353   0.001367
     9  C   -0.000202   0.003278   0.004020  -0.000106  -0.001165   0.000028
    10  H    0.000002   0.000025  -0.000254   0.000187  -0.000010   0.000001
    11  C   -0.000015  -0.000098  -0.001773   0.001329  -0.000006   0.000036
    12  C    0.000040  -0.000019   0.001276  -0.003156   0.000292  -0.000066
    13  C   -0.000019  -0.001109  -0.000826   0.024077   0.005604   0.000227
    14  H   -0.062935   0.467981  -0.094607   0.032846  -0.008543   0.013996
    15  H    0.011787  -0.005314   0.017373  -0.075006   0.463835  -0.048060
    16  H   -0.081338   0.018708  -0.007676   0.023593  -0.083710   0.485037
    17  H   -0.000000  -0.000000   0.000012   0.000007   0.000000  -0.000000
    18  H   -0.000000   0.000001   0.000005  -0.000065  -0.000003  -0.000000
    19  C   -0.001167   0.003531  -0.019801  -0.145986  -0.010420   0.001638
    20  C    0.000134  -0.000593   0.000515   0.019847   0.003407  -0.000408
    21  C   -0.000001   0.000013   0.000179  -0.001792  -0.000407   0.000007
    22  C    0.000068  -0.000047  -0.000795  -0.004546   0.003495  -0.000109
    23  C    0.000007  -0.000010  -0.000143   0.001137   0.000369  -0.000036
    24  H    0.000000  -0.000000  -0.000004   0.000044   0.000007  -0.000000
    25  H   -0.000019   0.000015  -0.000010   0.000174  -0.000405   0.000102
    26  H    0.000001   0.000003   0.000094  -0.003231   0.000017  -0.000002
    27  H   -0.000000   0.000000   0.000000  -0.000026  -0.000011   0.000001
    28  H    0.485348  -0.082752   0.020199  -0.007860   0.019207  -0.078863
    29  N   -0.002787   0.017092  -0.091108   0.241579  -0.054542   0.007710
    30  H   -0.000001  -0.000011  -0.000414  -0.000170   0.000031   0.000054
    31  S    0.010072  -0.081267   0.360501  -0.102324   0.014963  -0.002561
    32  N    0.001749  -0.003044   0.005899  -0.013305   0.031702  -0.008480
               7          8          9         10         11         12
     1  C    0.000625  -0.001957  -0.000202   0.000002  -0.000015   0.000040
     2  C   -0.000453   0.006470   0.003278   0.000025  -0.000098  -0.000019
     3  C   -0.001211  -0.081961   0.004020  -0.000254  -0.001773   0.001276
     4  C   -0.130595  -0.019097  -0.000106   0.000187   0.001329  -0.003156
     5  C    0.001141  -0.002353  -0.001165  -0.000010  -0.000006   0.000292
     6  C   -0.001062   0.001367   0.000028   0.000001   0.000036  -0.000066
     7  C    6.021490   0.009398   0.140739   0.034031  -0.213899   0.118384
     8  C    0.009398   5.670548   0.040283  -0.090870   0.191999  -0.172774
     9  C    0.140739   0.040283   5.421589   0.463632   0.206197   0.098422
    10  H    0.034031  -0.090870   0.463632   0.519423  -0.064471   0.014121
    11  C   -0.213899   0.191999   0.206197  -0.064471   5.240151   0.233844
    12  C    0.118384  -0.172774   0.098422   0.014121   0.233844   5.207896
    13  C   -0.017098   0.204215  -0.183367  -0.008186   0.143771   0.175981
    14  H    0.000296  -0.000344   0.000035   0.000028  -0.000000   0.000002
    15  H   -0.000682  -0.000681  -0.000001   0.000001  -0.000006   0.000050
    16  H   -0.000028   0.000008   0.000001  -0.000000  -0.000000  -0.000000
    17  H   -0.008106   0.020191  -0.082804  -0.006451   0.486676  -0.079942
    18  H    0.023717  -0.007574   0.018838  -0.000028  -0.082621   0.485818
    19  C   -0.121641  -0.032086   0.004862   0.000071  -0.001538   0.002360
    20  C   -0.018905   0.000154   0.000416  -0.000019  -0.000738   0.002251
    21  C   -0.005579  -0.000629  -0.000220  -0.000001   0.000120  -0.000198
    22  C   -0.002529  -0.000070  -0.000002  -0.000000   0.000001  -0.000004
    23  C   -0.000460   0.000041   0.000020  -0.000000  -0.000005   0.000022
    24  H    0.000073  -0.000007  -0.000004   0.000000   0.000003  -0.000003
    25  H    0.000082   0.000004   0.000000  -0.000000  -0.000000   0.000000
    26  H    0.012135  -0.001460   0.001904   0.000009  -0.002125   0.002469
    27  H    0.000011   0.000001   0.000000   0.000000  -0.000000   0.000000
    28  H    0.000001   0.000015  -0.000001  -0.000000  -0.000000  -0.000000
    29  N    0.210484  -0.080698   0.013366  -0.000278  -0.000538   0.005219
    30  H   -0.079846   0.018968  -0.005618   0.000004   0.012575  -0.051622
    31  S   -0.114238   0.375381  -0.080422   0.002009   0.009026  -0.002201
    32  N    0.003290  -0.000913  -0.000016  -0.000000  -0.000003  -0.000017
              13         14         15         16         17         18
     1  C   -0.000019  -0.062935   0.011787  -0.081338  -0.000000  -0.000000
     2  C   -0.001109   0.467981  -0.005314   0.018708  -0.000000   0.000001
     3  C   -0.000826  -0.094607   0.017373  -0.007676   0.000012   0.000005
     4  C    0.024077   0.032846  -0.075006   0.023593   0.000007  -0.000065
     5  C    0.005604  -0.008543   0.463835  -0.083710   0.000000  -0.000003
     6  C    0.000227   0.013996  -0.048060   0.485037  -0.000000  -0.000000
     7  C   -0.017098   0.000296  -0.000682  -0.000028  -0.008106   0.023717
     8  C    0.204215  -0.000344  -0.000681   0.000008   0.020191  -0.007574
     9  C   -0.183367   0.000035  -0.000001   0.000001  -0.082804   0.018838
    10  H   -0.008186   0.000028   0.000001  -0.000000  -0.006451  -0.000028
    11  C    0.143771  -0.000000  -0.000006  -0.000000   0.486676  -0.082621
    12  C    0.175981   0.000002   0.000050  -0.000000  -0.079942   0.485818
    13  C    5.626489  -0.000013   0.000155  -0.000003   0.019629  -0.083802
    14  H   -0.000013   0.520280  -0.000003  -0.000036  -0.000000  -0.000000
    15  H    0.000155  -0.000003   0.495004  -0.006649  -0.000000  -0.000000
    16  H   -0.000003  -0.000036  -0.006649   0.526840   0.000000  -0.000000
    17  H    0.019629  -0.000000  -0.000000   0.000000   0.524117  -0.007287
    18  H   -0.083802  -0.000000  -0.000000  -0.000000  -0.007287   0.524829
    19  C    0.003734   0.000031  -0.001830   0.000063   0.000006   0.000099
    20  C   -0.008835  -0.000006  -0.000043  -0.000005  -0.000004   0.000065
    21  C    0.008079  -0.000000   0.000050   0.000000   0.000000  -0.000011
    22  C    0.000075  -0.000000   0.000754  -0.000011   0.000000   0.000000
    23  C   -0.000524  -0.000000   0.000057  -0.000001  -0.000000   0.000000
    24  H    0.000148  -0.000000   0.000001  -0.000000   0.000000  -0.000000
    25  H   -0.000015   0.000000  -0.000194   0.000005   0.000000   0.000000
    26  H   -0.033985   0.000000  -0.000035  -0.000000  -0.000014   0.000160
    27  H   -0.000002   0.000000  -0.000008   0.000000  -0.000000   0.000000
    28  H    0.000000  -0.006341   0.000014  -0.007229   0.000000   0.000000
    29  N   -0.020812  -0.000169  -0.000780  -0.000108   0.000027  -0.000241
    30  H    0.472978   0.000001  -0.000000  -0.000001   0.000016  -0.006791
    31  S    0.014387   0.001252  -0.000255   0.000024  -0.000303   0.000024
    32  N   -0.001018  -0.000007   0.011199  -0.000205   0.000000   0.000001
              19         20         21         22         23         24
     1  C   -0.001167   0.000134  -0.000001   0.000068   0.000007   0.000000
     2  C    0.003531  -0.000593   0.000013  -0.000047  -0.000010  -0.000000
     3  C   -0.019801   0.000515   0.000179  -0.000795  -0.000143  -0.000004
     4  C   -0.145986   0.019847  -0.001792  -0.004546   0.001137   0.000044
     5  C   -0.010420   0.003407  -0.000407   0.003495   0.000369   0.000007
     6  C    0.001638  -0.000408   0.000007  -0.000109  -0.000036  -0.000000
     7  C   -0.121641  -0.018905  -0.005579  -0.002529  -0.000460   0.000073
     8  C   -0.032086   0.000154  -0.000629  -0.000070   0.000041  -0.000007
     9  C    0.004862   0.000416  -0.000220  -0.000002   0.000020  -0.000004
    10  H    0.000071  -0.000019  -0.000001  -0.000000  -0.000000   0.000000
    11  C   -0.001538  -0.000738   0.000120   0.000001  -0.000005   0.000003
    12  C    0.002360   0.002251  -0.000198  -0.000004   0.000022  -0.000003
    13  C    0.003734  -0.008835   0.008079   0.000075  -0.000524   0.000148
    14  H    0.000031  -0.000006  -0.000000  -0.000000  -0.000000  -0.000000
    15  H   -0.001830  -0.000043   0.000050   0.000754   0.000057   0.000001
    16  H    0.000063  -0.000005   0.000000  -0.000011  -0.000001  -0.000000
    17  H    0.000006  -0.000004   0.000000   0.000000  -0.000000   0.000000
    18  H    0.000099   0.000065  -0.000011   0.000000   0.000000  -0.000000
    19  C    4.880747   0.394088  -0.038253  -0.115485  -0.030367   0.010330
    20  C    0.394088   5.212530   0.449581  -0.026515  -0.030158  -0.049985
    21  C   -0.038253   0.449581   4.969138  -0.014268   0.397810   0.445874
    22  C   -0.115485  -0.026515  -0.014268   4.772382   0.441357   0.005991
    23  C   -0.030367  -0.030158   0.397810   0.441357   5.146337  -0.052120
    24  H    0.010330  -0.049985   0.445874   0.005991  -0.052120   0.506533
    25  H    0.006834  -0.000868   0.002660   0.433295  -0.075636  -0.000207
    26  H   -0.042231   0.415592  -0.019792  -0.001581   0.006929  -0.004425
    27  H   -0.001656   0.011239  -0.062968  -0.039815   0.439424  -0.005447
    28  H    0.000011   0.000001  -0.000000   0.000000   0.000000   0.000000
    29  N    0.444834  -0.080906  -0.000045   0.003673   0.000081  -0.000147
    30  H   -0.001911  -0.005843   0.000075   0.000057   0.000024   0.000017
    31  S    0.007357   0.002020   0.000179   0.000316  -0.000067   0.000001
    32  N    0.377546  -0.008771  -0.030838   0.456241  -0.054932  -0.001046
              25         26         27         28         29         30
     1  C   -0.000019   0.000001  -0.000000   0.485348  -0.002787  -0.000001
     2  C    0.000015   0.000003   0.000000  -0.082752   0.017092  -0.000011
     3  C   -0.000010   0.000094   0.000000   0.020199  -0.091108  -0.000414
     4  C    0.000174  -0.003231  -0.000026  -0.007860   0.241579  -0.000170
     5  C   -0.000405   0.000017  -0.000011   0.019207  -0.054542   0.000031
     6  C    0.000102  -0.000002   0.000001  -0.078863   0.007710   0.000054
     7  C    0.000082   0.012135   0.000011   0.000001   0.210484  -0.079846
     8  C    0.000004  -0.001460   0.000001   0.000015  -0.080698   0.018968
     9  C    0.000000   0.001904   0.000000  -0.000001   0.013366  -0.005618
    10  H   -0.000000   0.000009   0.000000  -0.000000  -0.000278   0.000004
    11  C   -0.000000  -0.002125  -0.000000  -0.000000  -0.000538   0.012575
    12  C    0.000000   0.002469   0.000000  -0.000000   0.005219  -0.051622
    13  C   -0.000015  -0.033985  -0.000002   0.000000  -0.020812   0.472978
    14  H    0.000000   0.000000   0.000000  -0.006341  -0.000169   0.000001
    15  H   -0.000194  -0.000035  -0.000008   0.000014  -0.000780  -0.000000
    16  H    0.000005  -0.000000   0.000000  -0.007229  -0.000108  -0.000001
    17  H    0.000000  -0.000014  -0.000000   0.000000   0.000027   0.000016
    18  H    0.000000   0.000160   0.000000   0.000000  -0.000241  -0.006791
    19  C    0.006834  -0.042231  -0.001656   0.000011   0.444834  -0.001911
    20  C   -0.000868   0.415592   0.011239   0.000001  -0.080906  -0.005843
    21  C    0.002660  -0.019792  -0.062968  -0.000000  -0.000045   0.000075
    22  C    0.433295  -0.001581  -0.039815   0.000000   0.003673   0.000057
    23  C   -0.075636   0.006929   0.439424   0.000000   0.000081   0.000024
    24  H   -0.000207  -0.004425  -0.005447   0.000000  -0.000147   0.000017
    25  H    0.526270   0.000105   0.000679  -0.000000   0.000201  -0.000001
    26  H    0.000105   0.481556   0.000117   0.000000  -0.003786  -0.002973
    27  H    0.000679   0.000117   0.515381  -0.000000   0.000069  -0.000000
    28  H   -0.000000   0.000000  -0.000000   0.525707   0.000017  -0.000000
    29  N    0.000201  -0.003786   0.000069   0.000017   6.612960   0.003913
    30  H   -0.000001  -0.002973  -0.000000  -0.000000   0.003913   0.489346
    31  S    0.000006   0.000060  -0.000000  -0.000299   0.005782  -0.000231
    32  N   -0.032461   0.003765   0.006223   0.000004  -0.114609  -0.000293
              31         32
     1  C    0.010072   0.001749
     2  C   -0.081267  -0.003044
     3  C    0.360501   0.005899
     4  C   -0.102324  -0.013305
     5  C    0.014963   0.031702
     6  C   -0.002561  -0.008480
     7  C   -0.114238   0.003290
     8  C    0.375381  -0.000913
     9  C   -0.080422  -0.000016
    10  H    0.002009  -0.000000
    11  C    0.009026  -0.000003
    12  C   -0.002201  -0.000017
    13  C    0.014387  -0.001018
    14  H    0.001252  -0.000007
    15  H   -0.000255   0.011199
    16  H    0.000024  -0.000205
    17  H   -0.000303   0.000000
    18  H    0.000024   0.000001
    19  C    0.007357   0.377546
    20  C    0.002020  -0.008771
    21  C    0.000179  -0.030838
    22  C    0.000316   0.456241
    23  C   -0.000067  -0.054932
    24  H    0.000001  -0.001046
    25  H    0.000006  -0.032461
    26  H    0.000060   0.003765
    27  H   -0.000000   0.006223
    28  H   -0.000299   0.000004
    29  N    0.005782  -0.114609
    30  H   -0.000231  -0.000293
    31  S   15.627042  -0.000938
    32  N   -0.000938   6.912176
 Mulliken charges:
               1
     1  C   -0.169149
     2  C   -0.063329
     3  C   -0.062866
     4  C    0.233774
     5  C   -0.352473
     6  C   -0.044471
     7  C    0.140436
     8  C   -0.045570
     9  C   -0.063703
    10  H    0.137023
    11  C   -0.157889
    12  C   -0.038443
    13  C   -0.339937
    14  H    0.136258
    15  H    0.139269
    16  H    0.132720
    17  H    0.134231
    18  H    0.134866
    19  C    0.426230
    20  C   -0.279239
    21  C   -0.098764
    22  C    0.088070
    23  C   -0.189155
    24  H    0.144373
    25  H    0.139385
    26  H    0.190722
    27  H    0.136789
    28  H    0.132821
    29  N   -0.115453
    30  H    0.157666
    31  S   -0.045295
    32  N   -0.538896
 Sum of Mulliken charges =  -0.00000
 Mulliken charges with hydrogens summed into heavy atoms:
               1
     1  C   -0.036328
     2  C    0.072928
     3  C   -0.062866
     4  C    0.233774
     5  C   -0.213204
     6  C    0.088249
     7  C    0.140436
     8  C   -0.045570
     9  C    0.073320
    11  C   -0.023659
    12  C    0.096423
    13  C   -0.182271
    19  C    0.426230
    20  C   -0.088517
    21  C    0.045608
    22  C    0.227455
    23  C   -0.052366
    29  N   -0.115453
    31  S   -0.045295
    32  N   -0.538896
 Electronic spatial extent (au):  <R**2>=           5184.9709
 Charge=             -0.0000 electrons
 Dipole moment (field-independent basis, Debye):
    X=             -0.3292    Y=             -2.5214    Z=              1.2219  Tot=              2.8211
 Quadrupole moment (field-independent basis, Debye-Ang):
   XX=           -108.8888   YY=           -103.4131   ZZ=           -121.7232
   XY=              3.0686   XZ=             -1.2812   YZ=             -0.0201
 Traceless Quadrupole moment (field-independent basis, Debye-Ang):
   XX=              2.4529   YY=              7.9286   ZZ=            -10.3815
   XY=              3.0686   XZ=             -1.2812   YZ=             -0.0201
 Octapole moment (field-independent basis, Debye-Ang**2):
  XXX=            -51.0584  YYY=             -5.5424  ZZZ=              9.7725  XYY=             28.6343
  XXY=            -14.6473  XXZ=            -26.9011  XZZ=             -1.5950  YZZ=             -1.0976
  YYZ=             21.3775  XYZ=             -5.8559
 Hexadecapole moment (field-independent basis, Debye-Ang**3):
 XXXX=          -3067.1693 YYYY=          -2800.7172 ZZZZ=           -708.7405 XXXY=             -8.2577
 XXXZ=             39.7256 YYYX=             18.3283 YYYZ=             -1.4738 ZZZX=            -32.3614
 ZZZY=             -5.2862 XXYY=           -933.2543 XXZZ=           -708.5694 YYZZ=           -593.3663
 XXYZ=             11.2378 YYXZ=             -3.4002 ZZXY=             -4.6137
 N-N= 1.579710214935D+03 E-N=-5.882829253377D+03  KE= 1.158059669249D+03
 Leave Link  601 at Sun Feb 21 10:14:08 2021, MaxMem=  5242880000 cpu:        15.1
 (Enter /opt/nce/packages/global/g09/l9999.exe)
 1\1\GINC-CN031\SP\RM06 TD-FC\Gen\C17H12N2S1\PNG4RJV\21-Feb-2021\0\\#p 
 m06 chkbasis geom=allcheck Guess=Read int=ultrafine scrf=(SMD,solvent=
 n,n-DiMethylAcetamide) td=(NStates=30)\\Title\\0,1\C,0,-1.9250809304,3
 .5299642311,-0.3638409953\C,0,-2.2530133317,2.484042921,0.4785243327\C
 ,0,-1.4892383856,1.324675589,0.4665862422\C,0,-0.4012341835,1.20563673
 52,-0.3930735279\C,0,-0.1108998766,2.2419197924,-1.2694897122\C,0,-0.8
 606350969,3.4035272674,-1.2445910501\C,0,-0.4062244012,-1.1942729865,-
 0.4239679649\C,0,-1.4903701091,-1.3437801376,0.4357664139\C,0,-2.24676
 98489,-2.5073991418,0.4140267606\H,0,-3.0955151422,-2.6078500936,1.081
 835917\C,0,-1.915976439,-3.5255809741,-0.4613223907\C,0,-0.8561158872,
 -3.367749284,-1.3422237144\C,0,-0.1149470935,-2.2001545133,-1.33494484
 \H,0,-3.104651031,2.5581588325,1.1461773426\H,0,0.7160734661,2.1325506
 083,-1.9599215294\H,0,-0.6167763743,4.2130588665,-1.9225745066\H,0,-2.
 5022458032,-4.4369841565,-0.4707971249\H,0,-0.6114345607,-4.1543011012
 ,-2.0462634481\C,0,1.6991839455,-0.0012510349,-0.0004296524\C,0,2.3693
 770595,-1.1940583897,0.3077335038\C,0,3.69361894,-1.1251253446,0.67279
 29798\C,0,3.5855496148,1.2202332653,0.4266904722\C,0,4.3349903562,0.10
 49006464,0.7314067633\H,0,4.2265172536,-2.0366742031,0.9199152409\H,0,
 4.0338344046,2.2104031229,0.4712553364\H,0,1.8615439046,-2.1480110276,
 0.2780194496\H,0,5.3765399511,0.1935633203,1.0119173931\H,0,-2.5163118
 191,4.4381655526,-0.3483537595\N,0,0.3543469956,0.0022990276,-0.372353
 5974\H,0,0.710335234,-2.0633703084,-2.0251895471\S,0,-1.8990330933,-0.
 0231797066,1.5383029987\N,0,2.3051242818,1.1770306249,0.0703252141\\Ve
 rsion=ES64L-G09RevE.01\State=1-A\HF=-1162.4342913\RMSD=5.196e-09\PG=C0
 1 [X(C17H12N2S1)]\\@


 IT IS BY LOGIC THAT WE PROVE, BUT BY INTUITION THAT WE DISCOVER.
     -- J.H.POINCARE (1854-1912)
 Job cpu time:       0 days 23 hours  2 minutes 53.2 seconds.
 File lengths (MBytes):  RWF=   2415 Int=      0 D2E=      0 Chk=    437 Scr=      1
 Normal termination of Gaussian 09 at Sun Feb 21 10:14:09 2021.
