 Entering Gaussian System, Link 0=g09
 Input=/home/png4rjv/fotokatalizis/benchmark/OPCs/PTZ_2_B3LYP-D3_def2TZVP.gjf
 Output=/home/png4rjv/fotokatalizis/benchmark/OPCs/PTZ_2_B3LYP-D3_def2TZVP.log
 Initial command:
 /opt/nce/packages/global/g09/l1.exe "/home/png4rjv/fotokatalizis/benchmark/OPCs/PTZ_2_B3LYP-D3_def2TZVP/Gau-14881.inp" -scrdir="/home/png4rjv/fotokatalizis/benchmark/OPCs/PTZ_2_B3LYP-D3_def2TZVP/"
 Default is to use a total of  12 processors:
                               12 via shared-memory
                                1 via Linda
 Entering Link 1 = /opt/nce/packages/global/g09/l1.exe PID=     14882.
  
 Copyright (c) 1988,1990,1992,1993,1995,1998,2003,2009,2015,
            Gaussian, Inc.  All Rights Reserved.
  
 This is part of the Gaussian(R) 09 program.  It is based on
 the Gaussian(R) 03 system (copyright 2003, Gaussian, Inc.),
 the Gaussian(R) 98 system (copyright 1998, Gaussian, Inc.),
 the Gaussian(R) 94 system (copyright 1995, Gaussian, Inc.),
 the Gaussian 92(TM) system (copyright 1992, Gaussian, Inc.),
 the Gaussian 90(TM) system (copyright 1990, Gaussian, Inc.),
 the Gaussian 88(TM) system (copyright 1988, Gaussian, Inc.),
 the Gaussian 86(TM) system (copyright 1986, Carnegie Mellon
 University), and the Gaussian 82(TM) system (copyright 1983,
 Carnegie Mellon University). Gaussian is a federally registered
 trademark of Gaussian, Inc.
  
 This software contains proprietary and confidential information,
 including trade secrets, belonging to Gaussian, Inc.
  
 This software is provided under written license and may be
 used, copied, transmitted, or stored only in accord with that
 written license.
  
 The following legend is applicable only to US Government
 contracts under FAR:
  
                    RESTRICTED RIGHTS LEGEND
  
 Use, reproduction and disclosure by the US Government is
 subject to restrictions as set forth in subparagraphs (a)
 and (c) of the Commercial Computer Software - Restricted
 Rights clause in FAR 52.227-19.
  
 Gaussian, Inc.
 340 Quinnipiac St., Bldg. 40, Wallingford CT 06492
  
  
 ---------------------------------------------------------------
 Warning -- This program may not be used in any manner that
 competes with the business of Gaussian, Inc. or will provide
 assistance to any competitor of Gaussian, Inc.  The licensee
 of this program is prohibited from giving any competitor of
 Gaussian, Inc. access to this program.  By using this program,
 the user acknowledges that Gaussian, Inc. is engaged in the
 business of creating and licensing software in the field of
 computational chemistry and represents and warrants to the
 licensee that it is not a competitor of Gaussian, Inc. and that
 it will not use this program in any manner prohibited above.
 ---------------------------------------------------------------
  

 Cite this work as:
 Gaussian 09, Revision E.01,
 M. J. Frisch, G. W. Trucks, H. B. Schlegel, G. E. Scuseria, 
 M. A. Robb, J. R. Cheeseman, G. Scalmani, V. Barone, B. Mennucci, 
 G. A. Petersson, H. Nakatsuji, M. Caricato, X. Li, H. P. Hratchian, 
 A. F. Izmaylov, J. Bloino, G. Zheng, J. L. Sonnenberg, M. Hada, 
 M. Ehara, K. Toyota, R. Fukuda, J. Hasegawa, M. Ishida, T. Nakajima, 
 Y. Honda, O. Kitao, H. Nakai, T. Vreven, J. A. Montgomery, Jr., 
 J. E. Peralta, F. Ogliaro, M. Bearpark, J. J. Heyd, E. Brothers, 
 K. N. Kudin, V. N. Staroverov, T. Keith, R. Kobayashi, J. Normand, 
 K. Raghavachari, A. Rendell, J. C. Burant, S. S. Iyengar, J. Tomasi, 
 M. Cossi, N. Rega, J. M. Millam, M. Klene, J. E. Knox, J. B. Cross, 
 V. Bakken, C. Adamo, J. Jaramillo, R. Gomperts, R. E. Stratmann, 
 O. Yazyev, A. J. Austin, R. Cammi, C. Pomelli, J. W. Ochterski, 
 R. L. Martin, K. Morokuma, V. G. Zakrzewski, G. A. Voth, 
 P. Salvador, J. J. Dannenberg, S. Dapprich, A. D. Daniels, 
 O. Farkas, J. B. Foresman, J. V. Ortiz, J. Cioslowski, 
 and D. J. Fox, Gaussian, Inc., Wallingford CT, 2013.
 
 ******************************************
 Gaussian 09:  ES64L-G09RevE.01 30-Nov-2015
                15-Feb-2021 
 ******************************************
 %chk=cp.chk
 Default route:  MaxDisk=500GB
 ----------------------------------------------------------------------
 #p b3lyp/def2TZVP opt freq=noraman nosymm int=ultrafine scrf=(SMD,solv
 ent=n,n-DiMethylAcetamide) EmpiricalDispersion=GD3BJ
 ----------------------------------------------------------------------
 1/14=-1,18=20,19=15,26=4,38=1/1,3;
 2/9=110,12=2,15=1,17=6,18=5,40=1/2;
 3/5=44,7=101,11=2,16=1,25=1,30=1,70=32201,71=1,72=147,74=-5,75=-5,124=41/1,2,3;
 4//1;
 5/5=2,38=5,53=147/2;
 6/7=2,8=2,9=2,10=2,28=1/1;
 7/30=1/1,2,3,16;
 1/14=-1,18=20,19=15,26=4/3(2);
 2/9=110,15=1/2;
 99//99;
 2/9=110,15=1/2;
 3/5=44,7=101,11=2,16=1,25=1,30=1,70=32205,71=1,72=147,74=-5,75=-5,124=41/1,2,3;
 4/5=5,16=3,69=1/1;
 5/5=2,38=5,53=147/2;
 7/30=1/1,2,3,16;
 1/14=-1,18=20,19=15,26=4/3(-5);
 2/9=110,15=1/2;
 6/7=2,8=2,9=2,10=2,19=2,28=1/1;
 99/9=1/99;
 Leave Link    1 at Mon Feb 15 23:22:15 2021, MaxMem=           0 cpu:         1.0
 (Enter /opt/nce/packages/global/g09/l101.exe)
 -----
 Title
 -----
 Symbolic Z-matrix:
 Charge =  0 Multiplicity = 1
 C                    -1.96983   3.5769   -0.31917 
 C                    -2.35017   2.49065   0.46963 
 C                    -1.57707   1.32453   0.46712 
 C                    -0.42654   1.23187  -0.33713 
 C                    -0.07864   2.31188  -1.15811 
 C                    -0.83901   3.48215  -1.13547 
 C                    -0.4181   -1.19096  -0.39704 
 C                    -1.56109  -1.36184   0.40242 
 C                    -2.29929  -2.54958   0.33255 
 H                    -3.19273  -2.66168   0.95051 
 C                    -1.89264  -3.57349  -0.5237 
 C                    -0.77064  -3.39741  -1.34136 
 C                    -0.04988  -2.20414  -1.29236 
 H                    -3.24813   2.53722   1.08943 
 H                     0.8052    2.23246  -1.78603 
 H                    -0.54733   4.32397  -1.76741 
 H                    -2.4645   -4.50301  -0.56723 
 H                    -0.46409  -4.18699  -2.03088 
 C                     1.69499  -0.00085  -0.00283 
 C                     2.31494  -1.17271   0.49248 
 C                     3.67153  -1.12759   0.78515 
 C                     3.67484   1.16474   0.12689 
 C                     4.38526   0.06283   0.59813 
 H                     4.16948  -2.0191    1.17483 
 H                     4.17957   2.12618  -0.0249 
 H                     1.7399   -2.08139   0.66147 
 H                     5.45154   0.13442   0.81827 
 H                    -2.56744   4.49121  -0.30784 
 N                     0.32399   0.01796  -0.30451 
 H                     0.82065  -2.05149  -1.93283 
 S                    -2.03918  -0.05054   1.50312 
 N                     2.37499   1.1342   -0.17127 
 
 NAtoms=     32 NQM=       32 NQMF=       0 NMMI=      0 NMMIF=      0
                NMic=       0 NMicF=      0.
                    Isotopes and Nuclear Properties:
 (Nuclear quadrupole moments (NQMom) in fm**2, nuclear magnetic moments (NMagM)
  in nuclear magnetons)

  Atom         1           2           3           4           5           6           7           8           9          10
 IAtWgt=          12          12          12          12          12          12          12          12          12           1
 AtmWgt=  12.0000000  12.0000000  12.0000000  12.0000000  12.0000000  12.0000000  12.0000000  12.0000000  12.0000000   1.0078250
 NucSpn=           0           0           0           0           0           0           0           0           0           1
 AtZEff=   0.0000000   0.0000000   0.0000000   0.0000000   0.0000000   0.0000000   0.0000000   0.0000000   0.0000000   0.0000000
 NQMom=    0.0000000   0.0000000   0.0000000   0.0000000   0.0000000   0.0000000   0.0000000   0.0000000   0.0000000   0.0000000
 NMagM=    0.0000000   0.0000000   0.0000000   0.0000000   0.0000000   0.0000000   0.0000000   0.0000000   0.0000000   2.7928460
 AtZNuc=   6.0000000   6.0000000   6.0000000   6.0000000   6.0000000   6.0000000   6.0000000   6.0000000   6.0000000   1.0000000

  Atom        11          12          13          14          15          16          17          18          19          20
 IAtWgt=          12          12          12           1           1           1           1           1          12          12
 AtmWgt=  12.0000000  12.0000000  12.0000000   1.0078250   1.0078250   1.0078250   1.0078250   1.0078250  12.0000000  12.0000000
 NucSpn=           0           0           0           1           1           1           1           1           0           0
 AtZEff=   0.0000000   0.0000000   0.0000000   0.0000000   0.0000000   0.0000000   0.0000000   0.0000000   0.0000000   0.0000000
 NQMom=    0.0000000   0.0000000   0.0000000   0.0000000   0.0000000   0.0000000   0.0000000   0.0000000   0.0000000   0.0000000
 NMagM=    0.0000000   0.0000000   0.0000000   2.7928460   2.7928460   2.7928460   2.7928460   2.7928460   0.0000000   0.0000000
 AtZNuc=   6.0000000   6.0000000   6.0000000   1.0000000   1.0000000   1.0000000   1.0000000   1.0000000   6.0000000   6.0000000

  Atom        21          22          23          24          25          26          27          28          29          30
 IAtWgt=          12          12          12           1           1           1           1           1          14           1
 AtmWgt=  12.0000000  12.0000000  12.0000000   1.0078250   1.0078250   1.0078250   1.0078250   1.0078250  14.0030740   1.0078250
 NucSpn=           0           0           0           1           1           1           1           1           2           1
 AtZEff=   0.0000000   0.0000000   0.0000000   0.0000000   0.0000000   0.0000000   0.0000000   0.0000000   0.0000000   0.0000000
 NQMom=    0.0000000   0.0000000   0.0000000   0.0000000   0.0000000   0.0000000   0.0000000   0.0000000   2.0440000   0.0000000
 NMagM=    0.0000000   0.0000000   0.0000000   2.7928460   2.7928460   2.7928460   2.7928460   2.7928460   0.4037610   2.7928460
 AtZNuc=   6.0000000   6.0000000   6.0000000   1.0000000   1.0000000   1.0000000   1.0000000   1.0000000   7.0000000   1.0000000

  Atom        31          32
 IAtWgt=          32          14
 AtmWgt=  31.9720718  14.0030740
 NucSpn=           0           2
 AtZEff=   0.0000000   0.0000000
 NQMom=    0.0000000   2.0440000
 NMagM=    0.0000000   0.4037610
 AtZNuc=  16.0000000   7.0000000
 Leave Link  101 at Mon Feb 15 23:22:15 2021, MaxMem=  5242880000 cpu:         4.1
 (Enter /opt/nce/packages/global/g09/l103.exe)

 GradGradGradGradGradGradGradGradGradGradGradGradGradGradGradGradGradGrad
 Berny optimization.
 Initialization pass.
                           ----------------------------
                           !    Initial Parameters    !
                           ! (Angstroms and Degrees)  !
 --------------------------                            --------------------------
 ! Name  Definition              Value          Derivative Info.                !
 --------------------------------------------------------------------------------
 ! R1    R(1,2)                  1.3953         estimate D2E/DX2                !
 ! R2    R(1,6)                  1.3979         estimate D2E/DX2                !
 ! R3    R(1,28)                 1.0923         estimate D2E/DX2                !
 ! R4    R(2,3)                  1.3991         estimate D2E/DX2                !
 ! R5    R(2,14)                 1.0921         estimate D2E/DX2                !
 ! R6    R(3,4)                  1.4068         estimate D2E/DX2                !
 ! R7    R(3,31)                 1.7826         estimate D2E/DX2                !
 ! R8    R(4,5)                  1.4005         estimate D2E/DX2                !
 ! R9    R(4,29)                 1.4276         estimate D2E/DX2                !
 ! R10   R(5,6)                  1.3958         estimate D2E/DX2                !
 ! R11   R(5,15)                 1.0871         estimate D2E/DX2                !
 ! R12   R(6,16)                 1.0923         estimate D2E/DX2                !
 ! R13   R(7,8)                  1.4053         estimate D2E/DX2                !
 ! R14   R(7,13)                 1.4013         estimate D2E/DX2                !
 ! R15   R(7,29)                 1.4215         estimate D2E/DX2                !
 ! R16   R(8,9)                  1.4002         estimate D2E/DX2                !
 ! R17   R(8,31)                 1.7775         estimate D2E/DX2                !
 ! R18   R(9,10)                 1.0921         estimate D2E/DX2                !
 ! R19   R(9,11)                 1.3953         estimate D2E/DX2                !
 ! R20   R(11,12)                1.3994         estimate D2E/DX2                !
 ! R21   R(11,17)                1.0922         estimate D2E/DX2                !
 ! R22   R(12,13)                1.3949         estimate D2E/DX2                !
 ! R23   R(12,18)                1.0922         estimate D2E/DX2                !
 ! R24   R(13,30)                1.0915         estimate D2E/DX2                !
 ! R25   R(19,20)                1.4152         estimate D2E/DX2                !
 ! R26   R(19,29)                1.4039         estimate D2E/DX2                !
 ! R27   R(19,32)                1.3338         estimate D2E/DX2                !
 ! R28   R(20,21)                1.3885         estimate D2E/DX2                !
 ! R29   R(20,26)                1.0885         estimate D2E/DX2                !
 ! R30   R(21,23)                1.4005         estimate D2E/DX2                !
 ! R31   R(21,24)                1.093          estimate D2E/DX2                !
 ! R32   R(22,23)                1.3932         estimate D2E/DX2                !
 ! R33   R(22,25)                1.0964         estimate D2E/DX2                !
 ! R34   R(22,32)                1.334          estimate D2E/DX2                !
 ! R35   R(23,27)                1.0911         estimate D2E/DX2                !
 ! A1    A(2,1,6)              119.8594         estimate D2E/DX2                !
 ! A2    A(2,1,28)             119.7773         estimate D2E/DX2                !
 ! A3    A(6,1,28)             120.3553         estimate D2E/DX2                !
 ! A4    A(1,2,3)              119.8168         estimate D2E/DX2                !
 ! A5    A(1,2,14)             120.7825         estimate D2E/DX2                !
 ! A6    A(3,2,14)             119.4006         estimate D2E/DX2                !
 ! A7    A(2,3,4)              120.5191         estimate D2E/DX2                !
 ! A8    A(2,3,31)             119.9097         estimate D2E/DX2                !
 ! A9    A(4,3,31)             119.5676         estimate D2E/DX2                !
 ! A10   A(3,4,5)              119.1753         estimate D2E/DX2                !
 ! A11   A(3,4,29)             118.2232         estimate D2E/DX2                !
 ! A12   A(5,4,29)             122.5837         estimate D2E/DX2                !
 ! A13   A(4,5,6)              120.1142         estimate D2E/DX2                !
 ! A14   A(4,5,15)             118.9618         estimate D2E/DX2                !
 ! A15   A(6,5,15)             120.8991         estimate D2E/DX2                !
 ! A16   A(1,6,5)              120.4634         estimate D2E/DX2                !
 ! A17   A(1,6,16)             120.1077         estimate D2E/DX2                !
 ! A18   A(5,6,16)             119.4276         estimate D2E/DX2                !
 ! A19   A(8,7,13)             119.2935         estimate D2E/DX2                !
 ! A20   A(8,7,29)             119.4055         estimate D2E/DX2                !
 ! A21   A(13,7,29)            121.2847         estimate D2E/DX2                !
 ! A22   A(7,8,9)              120.2369         estimate D2E/DX2                !
 ! A23   A(7,8,31)             118.7731         estimate D2E/DX2                !
 ! A24   A(9,8,31)             120.989          estimate D2E/DX2                !
 ! A25   A(8,9,10)             119.35           estimate D2E/DX2                !
 ! A26   A(8,9,11)             119.9632         estimate D2E/DX2                !
 ! A27   A(10,9,11)            120.6866         estimate D2E/DX2                !
 ! A28   A(9,11,12)            119.992          estimate D2E/DX2                !
 ! A29   A(9,11,17)            119.7603         estimate D2E/DX2                !
 ! A30   A(12,11,17)           120.2364         estimate D2E/DX2                !
 ! A31   A(11,12,13)           120.0908         estimate D2E/DX2                !
 ! A32   A(11,12,18)           120.1951         estimate D2E/DX2                !
 ! A33   A(13,12,18)           119.708          estimate D2E/DX2                !
 ! A34   A(7,13,12)            120.3425         estimate D2E/DX2                !
 ! A35   A(7,13,30)            118.9049         estimate D2E/DX2                !
 ! A36   A(12,13,30)           120.7398         estimate D2E/DX2                !
 ! A37   A(20,19,29)           120.9353         estimate D2E/DX2                !
 ! A38   A(20,19,32)           121.7022         estimate D2E/DX2                !
 ! A39   A(29,19,32)           117.3429         estimate D2E/DX2                !
 ! A40   A(19,20,21)           118.3483         estimate D2E/DX2                !
 ! A41   A(19,20,26)           120.9395         estimate D2E/DX2                !
 ! A42   A(21,20,26)           120.6984         estimate D2E/DX2                !
 ! A43   A(20,21,23)           119.8252         estimate D2E/DX2                !
 ! A44   A(20,21,24)           119.5877         estimate D2E/DX2                !
 ! A45   A(23,21,24)           120.5802         estimate D2E/DX2                !
 ! A46   A(23,22,25)           120.3741         estimate D2E/DX2                !
 ! A47   A(23,22,32)           123.6678         estimate D2E/DX2                !
 ! A48   A(25,22,32)           115.9573         estimate D2E/DX2                !
 ! A49   A(21,23,22)           117.2313         estimate D2E/DX2                !
 ! A50   A(21,23,27)           121.7918         estimate D2E/DX2                !
 ! A51   A(22,23,27)           120.9748         estimate D2E/DX2                !
 ! A52   A(4,29,7)             116.5651         estimate D2E/DX2                !
 ! A53   A(4,29,19)            121.9861         estimate D2E/DX2                !
 ! A54   A(7,29,19)            120.823          estimate D2E/DX2                !
 ! A55   A(3,31,8)              98.0164         estimate D2E/DX2                !
 ! A56   A(19,32,22)           119.2112         estimate D2E/DX2                !
 ! D1    D(6,1,2,3)              1.7307         estimate D2E/DX2                !
 ! D2    D(6,1,2,14)          -178.1007         estimate D2E/DX2                !
 ! D3    D(28,1,2,3)          -179.29           estimate D2E/DX2                !
 ! D4    D(28,1,2,14)            0.8786         estimate D2E/DX2                !
 ! D5    D(2,1,6,5)             -0.6166         estimate D2E/DX2                !
 ! D6    D(2,1,6,16)           178.9585         estimate D2E/DX2                !
 ! D7    D(28,1,6,5)          -179.59           estimate D2E/DX2                !
 ! D8    D(28,1,6,16)           -0.0149         estimate D2E/DX2                !
 ! D9    D(1,2,3,4)             -0.7561         estimate D2E/DX2                !
 ! D10   D(1,2,3,31)           178.5563         estimate D2E/DX2                !
 ! D11   D(14,2,3,4)           179.0776         estimate D2E/DX2                !
 ! D12   D(14,2,3,31)           -1.6099         estimate D2E/DX2                !
 ! D13   D(2,3,4,5)             -1.3286         estimate D2E/DX2                !
 ! D14   D(2,3,4,29)          -179.8352         estimate D2E/DX2                !
 ! D15   D(31,3,4,5)           179.3566         estimate D2E/DX2                !
 ! D16   D(31,3,4,29)            0.8499         estimate D2E/DX2                !
 ! D17   D(2,3,31,8)           144.0725         estimate D2E/DX2                !
 ! D18   D(4,3,31,8)           -36.6084         estimate D2E/DX2                !
 ! D19   D(3,4,5,6)              2.4428         estimate D2E/DX2                !
 ! D20   D(3,4,5,15)          -179.3576         estimate D2E/DX2                !
 ! D21   D(29,4,5,6)          -179.1188         estimate D2E/DX2                !
 ! D22   D(29,4,5,15)           -0.9192         estimate D2E/DX2                !
 ! D23   D(3,4,29,7)            46.2269         estimate D2E/DX2                !
 ! D24   D(3,4,29,19)         -124.7689         estimate D2E/DX2                !
 ! D25   D(5,4,29,7)          -132.2256         estimate D2E/DX2                !
 ! D26   D(5,4,29,19)           56.7785         estimate D2E/DX2                !
 ! D27   D(4,5,6,1)             -1.491          estimate D2E/DX2                !
 ! D28   D(4,5,6,16)           178.9311         estimate D2E/DX2                !
 ! D29   D(15,5,6,1)          -179.6551         estimate D2E/DX2                !
 ! D30   D(15,5,6,16)            0.7669         estimate D2E/DX2                !
 ! D31   D(13,7,8,9)             1.9207         estimate D2E/DX2                !
 ! D32   D(13,7,8,31)         -178.45           estimate D2E/DX2                !
 ! D33   D(29,7,8,9)          -179.5253         estimate D2E/DX2                !
 ! D34   D(29,7,8,31)            0.104          estimate D2E/DX2                !
 ! D35   D(8,7,13,12)           -3.2152         estimate D2E/DX2                !
 ! D36   D(8,7,13,30)          178.0805         estimate D2E/DX2                !
 ! D37   D(29,7,13,12)         178.2589         estimate D2E/DX2                !
 ! D38   D(29,7,13,30)          -0.4454         estimate D2E/DX2                !
 ! D39   D(8,7,29,4)           -47.0616         estimate D2E/DX2                !
 ! D40   D(8,7,29,19)          124.046          estimate D2E/DX2                !
 ! D41   D(13,7,29,4)          131.4627         estimate D2E/DX2                !
 ! D42   D(13,7,29,19)         -57.4297         estimate D2E/DX2                !
 ! D43   D(7,8,9,10)          -179.1879         estimate D2E/DX2                !
 ! D44   D(7,8,9,11)             0.6313         estimate D2E/DX2                !
 ! D45   D(31,8,9,10)            1.1911         estimate D2E/DX2                !
 ! D46   D(31,8,9,11)         -178.9897         estimate D2E/DX2                !
 ! D47   D(7,8,31,3)            35.9763         estimate D2E/DX2                !
 ! D48   D(9,8,31,3)          -144.3973         estimate D2E/DX2                !
 ! D49   D(8,9,11,12)           -1.9128         estimate D2E/DX2                !
 ! D50   D(8,9,11,17)          179.3092         estimate D2E/DX2                !
 ! D51   D(10,9,11,12)         177.904          estimate D2E/DX2                !
 ! D52   D(10,9,11,17)          -0.874          estimate D2E/DX2                !
 ! D53   D(9,11,12,13)           0.6256         estimate D2E/DX2                !
 ! D54   D(9,11,12,18)        -178.4699         estimate D2E/DX2                !
 ! D55   D(17,11,12,13)        179.3977         estimate D2E/DX2                !
 ! D56   D(17,11,12,18)          0.3022         estimate D2E/DX2                !
 ! D57   D(11,12,13,7)           1.9591         estimate D2E/DX2                !
 ! D58   D(11,12,13,30)       -179.3606         estimate D2E/DX2                !
 ! D59   D(18,12,13,7)        -178.941          estimate D2E/DX2                !
 ! D60   D(18,12,13,30)         -0.2607         estimate D2E/DX2                !
 ! D61   D(29,19,20,21)       -179.393          estimate D2E/DX2                !
 ! D62   D(29,19,20,26)         -0.7327         estimate D2E/DX2                !
 ! D63   D(32,19,20,21)         -1.046          estimate D2E/DX2                !
 ! D64   D(32,19,20,26)        177.6143         estimate D2E/DX2                !
 ! D65   D(20,19,29,4)         157.0809         estimate D2E/DX2                !
 ! D66   D(20,19,29,7)         -13.5376         estimate D2E/DX2                !
 ! D67   D(32,19,29,4)         -21.3358         estimate D2E/DX2                !
 ! D68   D(32,19,29,7)         168.0457         estimate D2E/DX2                !
 ! D69   D(20,19,32,22)          0.4082         estimate D2E/DX2                !
 ! D70   D(29,19,32,22)        178.812          estimate D2E/DX2                !
 ! D71   D(19,20,21,23)          0.5618         estimate D2E/DX2                !
 ! D72   D(19,20,21,24)        179.6096         estimate D2E/DX2                !
 ! D73   D(26,20,21,23)       -178.1019         estimate D2E/DX2                !
 ! D74   D(26,20,21,24)          0.946          estimate D2E/DX2                !
 ! D75   D(20,21,23,22)          0.4777         estimate D2E/DX2                !
 ! D76   D(20,21,23,27)        179.9616         estimate D2E/DX2                !
 ! D77   D(24,21,23,22)       -178.5605         estimate D2E/DX2                !
 ! D78   D(24,21,23,27)          0.9233         estimate D2E/DX2                !
 ! D79   D(25,22,23,21)        179.1536         estimate D2E/DX2                !
 ! D80   D(25,22,23,27)         -0.3347         estimate D2E/DX2                !
 ! D81   D(32,22,23,21)         -1.1805         estimate D2E/DX2                !
 ! D82   D(32,22,23,27)        179.3312         estimate D2E/DX2                !
 ! D83   D(23,22,32,19)          0.7409         estimate D2E/DX2                !
 ! D84   D(25,22,32,19)       -179.5798         estimate D2E/DX2                !
 --------------------------------------------------------------------------------
 Trust Radius=3.00D-01 FncErr=1.00D-07 GrdErr=1.00D-06
 Number of steps in this run=    185 maximum allowed number of steps=    192.
 GradGradGradGradGradGradGradGradGradGradGradGradGradGradGradGradGradGrad

 Leave Link  103 at Mon Feb 15 23:22:15 2021, MaxMem=  5242880000 cpu:         0.3
 (Enter /opt/nce/packages/global/g09/l202.exe)
                          Input orientation:                          
 ---------------------------------------------------------------------
 Center     Atomic      Atomic             Coordinates (Angstroms)
 Number     Number       Type             X           Y           Z
 ---------------------------------------------------------------------
      1          6           0       -1.969825    3.576904   -0.319172
      2          6           0       -2.350171    2.490645    0.469632
      3          6           0       -1.577065    1.324529    0.467120
      4          6           0       -0.426542    1.231872   -0.337125
      5          6           0       -0.078643    2.311877   -1.158109
      6          6           0       -0.839012    3.482152   -1.135470
      7          6           0       -0.418101   -1.190961   -0.397035
      8          6           0       -1.561091   -1.361840    0.402424
      9          6           0       -2.299294   -2.549577    0.332549
     10          1           0       -3.192727   -2.661677    0.950514
     11          6           0       -1.892637   -3.573490   -0.523697
     12          6           0       -0.770641   -3.397414   -1.341361
     13          6           0       -0.049882   -2.204143   -1.292364
     14          1           0       -3.248134    2.537222    1.089426
     15          1           0        0.805195    2.232461   -1.786029
     16          1           0       -0.547333    4.323967   -1.767406
     17          1           0       -2.464502   -4.503010   -0.567228
     18          1           0       -0.464087   -4.186986   -2.030876
     19          6           0        1.694994   -0.000853   -0.002833
     20          6           0        2.314937   -1.172714    0.492477
     21          6           0        3.671534   -1.127594    0.785152
     22          6           0        3.674841    1.164743    0.126890
     23          6           0        4.385256    0.062831    0.598126
     24          1           0        4.169485   -2.019104    1.174833
     25          1           0        4.179567    2.126181   -0.024899
     26          1           0        1.739896   -2.081386    0.661465
     27          1           0        5.451537    0.134424    0.818271
     28          1           0       -2.567436    4.491206   -0.307841
     29          7           0        0.323988    0.017956   -0.304506
     30          1           0        0.820647   -2.051488   -1.932830
     31         16           0       -2.039182   -0.050543    1.503115
     32          7           0        2.374990    1.134198   -0.171274
 ---------------------------------------------------------------------
                    Distance matrix (angstroms):
                    1          2          3          4          5
     1  C    0.000000
     2  C    1.395290   0.000000
     3  C    2.417790   1.399116   0.000000
     4  C    2.807351   2.436332   1.406804   0.000000
     5  C    2.425011   2.800239   2.421052   1.400521   0.000000
     6  C    1.397876   2.417238   2.787177   2.423065   1.395785
     7  C    5.014623   4.247144   2.901319   2.423588   3.600603
     8  C    5.007889   3.933040   2.687195   2.926000   4.257829
     9  C    6.169851   5.042343   3.943149   4.272589   5.548611
    10  H    6.482861   5.242859   4.328264   4.946667   6.235387
    11  C    7.153735   6.161962   5.007184   5.027499   6.191171
    12  C    7.150107   6.359548   5.120319   4.749440   5.753994
    13  C    6.168775   5.516973   4.228427   3.586161   4.518107
    14  H    2.167755   1.092086   2.156469   3.420580   3.892026
    15  H    3.414664   3.887287   3.402379   2.148878   1.087088
    16  H    2.163092   3.408172   3.879444   3.409009   2.153931
    17  H    8.098842   7.071023   5.984783   6.090575   7.244594
    18  H    8.091673   7.375677   6.152682   5.677519   6.568524
    19  C    5.131405   4.774321   3.561441   2.476343   3.135151
    20  C    6.448010   5.931606   4.624343   3.739783   4.538285
    21  C    7.428106   7.032221   5.801883   4.860125   5.447022
    22  C    6.154652   6.178694   5.265340   4.128094   4.129865
    23  C    7.319645   7.160780   6.095762   5.039321   5.298015
    24  H    8.440289   7.958710   6.686073   5.829093   6.499739
    25  H    6.325047   6.558573   5.832970   4.702501   4.410329
    26  H    6.836660   6.137501   4.758178   4.082685   5.091041
    27  H    8.259604   8.157204   7.137290   6.090250   6.263407
    28  H    1.092344   2.157293   3.407234   3.899685   3.415629
    29  N    4.234136   3.723521   2.432394   1.427568   2.480489
    30  H    6.486095   6.037954   4.786050   3.857746   4.521932
    31  S    4.060038   2.760876   1.782599   2.762549   4.062863
    32  N    4.986592   4.957606   4.007806   2.808136   2.895011
                    6          7          8          9         10
     6  C    0.000000
     7  C    4.749783   0.000000
     8  C    5.133301   1.405262   0.000000
     9  C    6.377245   2.432492   1.400195   0.000000
    10  H    6.902024   3.417227   2.156899   1.092094   0.000000
    11  C    7.160061   2.804772   2.420541   1.395323   2.166780
    12  C    6.882986   2.425793   2.794487   2.420244   3.414748
    13  C    5.742934   1.401334   2.421886   2.796341   3.888099
    14  H    3.412759   4.911008   4.303576   5.229597   5.201050
    15  H    2.165265   3.891732   4.827798   6.082279   6.886555
    16  H    1.092278   5.684105   6.169625   7.397620   7.948863
    17  H    8.168716   3.896972   3.409300   2.157033   2.494867
    18  H    7.730330   3.412875   3.886620   3.410993   4.319807
    19  C    4.453692   2.457015   3.552268   4.750033   5.646120
    20  C    5.853664   2.874206   3.881684   4.817931   5.723738
    21  C    6.729307   4.257546   5.251830   6.154484   7.035541
    22  C    5.228652   4.751422   5.820183   7.037667   7.904640
    23  C    6.479976   5.063060   6.117763   7.181811   8.060580
    24  H    7.790145   4.919607   5.819632   6.544918   7.393604
    25  H    5.315841   5.681590   6.730828   7.997882   8.844531
    26  H    6.390047   2.563246   3.388416   4.079515   4.975043
    27  H    7.388870   6.138914   7.182526   8.216761   9.086197
    28  H    2.165781   6.075740   5.981250   7.074929   7.289594
    29  N    3.747496   1.421527   2.440719   3.725543   4.595954
    30  H    5.831931   2.152596   3.406127   3.887681   4.979274
    31  S    4.569734   2.745729   1.777524   2.771832   2.907586
    32  N    4.095408   3.641248   4.695963   5.972685   6.831292
                   11         12         13         14         15
    11  C    0.000000
    12  C    1.399447   0.000000
    13  C    2.421096   1.394916   0.000000
    14  H    6.463771   6.875071   6.195344   0.000000
    15  H    6.525400   5.863146   4.545142   4.979016   0.000000
    16  H    8.107187   7.736350   6.564247   4.318365   2.490798
    17  H    1.092214   2.165823   3.411891   7.274850   7.585708
    18  H    2.165345   1.092168   2.156069   7.918471   6.548307
    19  C    5.089807   4.405410   3.092243   5.662982   2.993196
    20  C    4.949749   4.222919   3.137176   6.713250   4.366478
    21  C    6.217354   5.422828   4.395903   7.836151   5.110464
    22  C    7.339682   6.536922   5.218931   7.123044   3.610284
    23  C    7.341203   6.505242   5.327624   8.039442   4.817502
    24  H    6.484631   5.712777   4.891253   8.705658   6.177455
    25  H    8.343064   7.533109   6.184368   7.522062   3.807789
    26  H    4.101985   3.470740   2.652512   6.811397   5.047095
    27  H    8.335850   7.473513   6.339502   9.029465   5.724739
    28  H    8.095756   8.156406   7.220461   2.496750   4.319908
    29  N    4.226104   3.733368   2.460359   4.588006   2.707490
    30  H    3.415268   2.166460   1.091477   6.837051   4.286491
    31  S    4.067013   4.571847   4.050927   2.886041   4.911319
    32  N    6.363896   5.639114   4.275672   5.931051   2.505568
                   16         17         18         19         20
    16  H    0.000000
    17  H    9.112161   0.000000
    18  H    8.515437   2.498759   0.000000
    19  C    5.181295   6.155434   5.128187   0.000000
    20  C    6.596451   5.920885   4.814158   1.415245   0.000000
    21  C    7.350776   7.132552   5.864576   2.407733   1.388542
    22  C    5.603196   8.384316   7.101245   2.301138   2.728864
    23  C    6.934224   8.314093   6.963384   2.757302   2.413287
    24  H    8.434435   7.294817   6.037075   3.403431   2.149729
    25  H    5.496379   9.401274   8.089718   3.270759   3.824556
    26  H    7.222145   5.005089   4.066914   2.184474   1.088538
    27  H    7.760441   9.278420   7.860460   3.847613   3.413651
    28  H    2.497822   8.998544   9.094171   6.199995   7.520510
    29  N    4.630444   5.318255   4.613345   1.403929   2.452907
    30  H    6.522665   4.320536   2.494094   2.948640   2.981151
    31  S    5.662001   4.928659   5.663937   4.026713   4.608580
    32  N    4.611099   7.440133   6.311377   1.333832   2.401253
                   21         22         23         24         25
    21  C    0.000000
    22  C    2.384980   0.000000
    23  C    1.400532   1.393184   0.000000
    24  H    1.092976   3.388176   2.171083   0.000000
    25  H    3.391361   1.096427   2.165152   4.315420   0.000000
    26  H    2.157833   3.816692   3.405820   2.484015   4.911895
    27  H    2.182246   2.167075   1.091121   2.531497   2.509171
    28  H    8.467012   7.086633   8.292841   9.485176   7.155100
    29  N    3.702121   3.567834   4.160608   4.596292   4.403213
    30  H    4.045808   4.767915   4.856184   4.568734   5.689944
    31  S    5.855577   6.001748   6.488857   6.521545   6.763564
    32  N    2.776955   1.333959   2.404365   3.869823   2.064450
                   26         27         28         29         30
    26  H    0.000000
    27  H    4.325584   0.000000
    28  H    7.917805   9.195303   0.000000
    29  N    2.710190   5.250329   5.326379   0.000000
    30  H    2.752504   5.813081   7.544968   2.679684   0.000000
    31  S    4.371971   7.524234   4.917936   2.976031   4.897767
    32  N    3.381831   3.382882   5.976264   2.338879   3.958239
                   31         32
    31  S    0.000000
    32  N    4.867454   0.000000
 Symmetry turned off by external request.
 Stoichiometry    C17H12N2S
 Framework group  C1[X(C17H12N2S)]
 Deg. of freedom    90
 Full point group                 C1      NOp   1
 Rotational constants (GHZ):      0.3825642      0.3446792      0.2112543
 Leave Link  202 at Mon Feb 15 23:22:15 2021, MaxMem=  5242880000 cpu:         0.1
 (Enter /opt/nce/packages/global/g09/l301.exe)
 Standard basis: def2TZVP (5D, 7F)
 Ernie: Thresh=  0.10000D-02 Tol=  0.10000D-05 Strict=F.
   698 basis functions,  1134 primitive gaussians,   798 cartesian basis functions
    72 alpha electrons       72 beta electrons
       nuclear repulsion energy      1566.6532973845 Hartrees.
 IExCor=  402 DFT=T Ex+Corr=B3LYP ExCW=0 ScaHFX=  0.200000
 ScaDFX=  0.800000  0.720000  1.000000  0.810000 ScalE2=  1.000000  1.000000
 IRadAn=      5 IRanWt=     -1 IRanGd=            0 ICorTp=0 IEmpDi=141
 NAtoms=   32 NActive=   32 NUniq=   32 SFac= 1.00D+00 NAtFMM=   60 NAOKFM=F Big=F
 Integral buffers will be    131072 words long.
 Raffenetti 2 integral format.
 Two-electron integral symmetry is turned off.
 R6Disp:  Grimme-D3(BJ) Dispersion energy=       -0.0842692949 Hartrees.
 Nuclear repulsion after empirical dispersion term =     1566.5690280896 Hartrees.
 ------------------------------------------------------------------------------
 Polarizable Continuum Model (PCM)
 =================================
 Model                : PCM (using non-symmetric T matrix).
 Atomic radii         : SMD-Coulomb.
 Polarization charges : Total charges.
 Charge compensation  : None.
 Solution method      : On-the-fly selection.
 Cavity type          : VdW (van der Waals Surface) (Alpha=1.000).
 Cavity algorithm     : GePol (No added spheres)
                        Default sphere list used, NSphG=   32.
                        Lebedev-Laikov grids with approx.  5.0 points / Ang**2.
                        Smoothing algorithm: York/Karplus (Gamma=1.0000).
                        Polarization charges: spherical gaussians, with
                                              point-specific exponents (IZeta= 3).
                        Self-potential: point-specific (ISelfS= 7).
                        Self-field    : sphere-specific E.n sum rule (ISelfD= 2).
 1st derivatives      : Analytical E(r).r(x)/FMM algorithm (CHGder, D1EAlg=3).
                        Cavity 1st derivative terms included.
 Solvent              : n,n-DiMethylAcetamide, Eps=  37.781000 Eps(inf)=   2.067844
 ------------------------------------------------------------------------------
 GePol: Number of generator spheres                  =      32
 GePol: Total number of spheres                      =      32
 GePol: Number of exposed spheres                    =      32 (100.00%)
 GePol: Number of points                             =    2528
 GePol: Average weight of points                     =       0.11
 GePol: Minimum weight of points                     =   0.22D-09
 GePol: Maximum weight of points                     =    0.19854
 GePol: Number of points with low weight             =     136
 GePol: Fraction of low-weight points (<1% of avg)   =       5.38%
 GePol: Cavity surface area                          =    289.266 Ang**2
 GePol: Cavity volume                                =    290.887 Ang**3
 ------------------------------------------------------------------------------
 Atomic radii for non-electrostatic terms: SMD-CDS.
 ------------------------------------------------------------------------------
 PCM non-electrostatic energy =        -0.0058321980 Hartrees.
 Nuclear repulsion after PCM non-electrostatic terms =     1566.5631958916 Hartrees.
 Leave Link  301 at Mon Feb 15 23:22:15 2021, MaxMem=  5242880000 cpu:         1.5
 (Enter /opt/nce/packages/global/g09/l302.exe)
 NPDir=0 NMtPBC=     1 NCelOv=     1 NCel=       1 NClECP=     1 NCelD=      1
         NCelK=      1 NCelE2=     1 NClLst=     1 CellRange=     0.0.
 One-electron integrals computed using PRISM.
   1 Symmetry operations used in ECPInt.
 ECPInt:  NShTT=   36585 NPrTT=  115450 LenC2=   32969 LenP2D=   74222.
 LDataN:  DoStor=T MaxTD1= 6 Len=  172
 NBasis=   698 RedAO= T EigKep=  6.23D-06  NBF=   698
 NBsUse=   698 1.00D-06 EigRej= -1.00D+00 NBFU=   698
 Precomputing XC quadrature grid using
 IXCGrd= 4 IRadAn=           5 IRanWt=          -1 IRanGd=           0 AccXCQ= 0.00D+00.
 Generated NRdTot=       0 NPtTot=           0 NUsed=           0 NTot=          32
 NSgBfM=   786   786   786   786   786 MxSgAt=    32 MxSgA2=    32.
 Leave Link  302 at Mon Feb 15 23:22:17 2021, MaxMem=  5242880000 cpu:        16.3
 (Enter /opt/nce/packages/global/g09/l303.exe)
 DipDrv:  MaxL=1.
 Leave Link  303 at Mon Feb 15 23:22:17 2021, MaxMem=  5242880000 cpu:         1.7
 (Enter /opt/nce/packages/global/g09/l401.exe)
 ExpMin= 9.52D-02 ExpMax= 6.07D+04 ExpMxC= 2.07D+03 IAcc=3 IRadAn=         5 AccDes= 0.00D+00
 Harris functional with IExCor=  402 and IRadAn=       5 diagonalized for initial guess.
 HarFok:  IExCor=  402 AccDes= 0.00D+00 IRadAn=         5 IDoV= 1 UseB2=F ITyADJ=14
 ICtDFT=  3500011 ScaDFX=  1.000000  1.000000  1.000000  1.000000
 FoFCou: FMM=F IPFlag=           0 FMFlag=      100000 FMFlg1=           0
         NFxFlg=           0 DoJE=T BraDBF=F KetDBF=T FulRan=T
         wScrn=  0.000000 ICntrl=     500 IOpCl=  0 I1Cent=   200000004 NGrid=           0
         NMat0=    1 NMatS0=      1 NMatT0=    0 NMatD0=    1 NMtDS0=    0 NMtDT0=    0
 Symmetry not used in FoFCou.
 Harris En= -1163.09285868120    
 JPrj=0 DoOrth=F DoCkMO=F.
 Leave Link  401 at Mon Feb 15 23:22:23 2021, MaxMem=  5242880000 cpu:        64.6
 (Enter /opt/nce/packages/global/g09/l502.exe)
 Closed shell SCF:
 Using DIIS extrapolation, IDIIS=  1040.
 Two-electron integral symmetry not used.
 IVT=     1943390 IEndB=     1943390 NGot=  5242880000 MDV=  5241590853
 LenX=  5241590853 LenY=  5240953251
 Requested convergence on RMS density matrix=1.00D-08 within 128 cycles.
 Requested convergence on MAX density matrix=1.00D-06.
 Requested convergence on             energy=1.00D-06.
 No special actions if energy rises.
 Fock matrices will be formed incrementally for  20 cycles.

 Cycle   1  Pass 1  IDiag  1:
 FoFJK:  IHMeth= 1 ICntrl=       0 DoSepK=F KAlg= 0 I1Cent=   0 FoldK=F
 IRaf= 810000000 NMat=   1 IRICut=       1 DoRegI=T DoRafI=F ISym2E= 0.
 FoFCou: FMM=F IPFlag=           0 FMFlag=      100000 FMFlg1=           0
         NFxFlg=           0 DoJE=F BraDBF=F KetDBF=F FulRan=T
         wScrn=  0.000000 ICntrl=       0 IOpCl=  0 I1Cent=           0 NGrid=           0
         NMat0=    1 NMatS0=      1 NMatT0=    0 NMatD0=    1 NMtDS0=    0 NMtDT0=    0
 Symmetry not used in FoFCou.
 Inv3:  Mode=1 IEnd=    19172352.
 Iteration    1 A*A^-1 deviation from unit magnitude is 3.77D-15 for   2498.
 Iteration    1 A*A^-1 deviation from orthogonality  is 2.68D-15 for   2521   1898.
 Iteration    1 A^-1*A deviation from unit magnitude is 3.77D-15 for   2496.
 Iteration    1 A^-1*A deviation from orthogonality  is 2.40D-12 for   1669   1600.
 E= -1162.64809198670    
 DIIS: error= 1.69D-02 at cycle   1 NSaved=   1.
 NSaved= 1 IEnMin= 1 EnMin= -1162.64809198670     IErMin= 1 ErrMin= 1.69D-02
 ErrMax= 1.69D-02  0.00D+00 EMaxC= 1.00D-01 BMatC= 5.07D-01 BMatP= 5.07D-01
 IDIUse=3 WtCom= 8.31D-01 WtEn= 1.69D-01
 Coeff-Com:  0.100D+01
 Coeff-En:   0.100D+01
 Coeff:      0.100D+01
 Gap=     0.298 Goal=   None    Shift=    0.000
 GapD=    0.298 DampG=1.000 DampE=0.500 DampFc=0.5000 IDamp=-1.
 Damping current iteration by 5.00D-01
 RMSDP=2.93D-03 MaxDP=2.18D-01              OVMax= 2.55D-01

 Cycle   2  Pass 1  IDiag  1:
 RMSU=  1.46D-03    CP:  9.86D-01
 E= -1162.83665239666     Delta-E=       -0.188560409958 Rises=F Damp=T
 DIIS: error= 4.89D-03 at cycle   2 NSaved=   2.
 NSaved= 2 IEnMin= 2 EnMin= -1162.83665239666     IErMin= 2 ErrMin= 4.89D-03
 ErrMax= 4.89D-03  0.00D+00 EMaxC= 1.00D-01 BMatC= 4.70D-02 BMatP= 5.07D-01
 IDIUse=3 WtCom= 9.51D-01 WtEn= 4.89D-02
 Coeff-Com:  0.897D-01 0.910D+00
 Coeff-En:   0.206D+00 0.794D+00
 Coeff:      0.954D-01 0.905D+00
 Gap=     0.229 Goal=   None    Shift=    0.000
 RMSDP=1.10D-03 MaxDP=6.48D-02 DE=-1.89D-01 OVMax= 2.17D-01

 Cycle   3  Pass 1  IDiag  1:
 RMSU=  1.02D-03    CP:  9.85D-01  7.18D-01
 E= -1163.08740294237     Delta-E=       -0.250750545708 Rises=F Damp=F
 DIIS: error= 7.57D-03 at cycle   3 NSaved=   3.
 NSaved= 3 IEnMin= 3 EnMin= -1163.08740294237     IErMin= 2 ErrMin= 4.89D-03
 ErrMax= 7.57D-03  0.00D+00 EMaxC= 1.00D-01 BMatC= 4.54D-02 BMatP= 4.70D-02
 IDIUse=3 WtCom= 9.24D-01 WtEn= 7.57D-02
 Coeff-Com: -0.275D-01 0.501D+00 0.527D+00
 Coeff-En:   0.000D+00 0.000D+00 0.100D+01
 Coeff:     -0.254D-01 0.463D+00 0.562D+00
 Gap=     0.181 Goal=   None    Shift=    0.000
 RMSDP=6.28D-04 MaxDP=3.19D-02 DE=-2.51D-01 OVMax= 1.00D-01

 Cycle   4  Pass 1  IDiag  1:
 RMSU=  4.39D-04    CP:  9.74D-01  6.85D-01  5.67D-01
 E= -1163.12175704139     Delta-E=       -0.034354099022 Rises=F Damp=F
 DIIS: error= 3.40D-03 at cycle   4 NSaved=   4.
 NSaved= 4 IEnMin= 4 EnMin= -1163.12175704139     IErMin= 4 ErrMin= 3.40D-03
 ErrMax= 3.40D-03  0.00D+00 EMaxC= 1.00D-01 BMatC= 1.25D-02 BMatP= 4.54D-02
 IDIUse=3 WtCom= 9.66D-01 WtEn= 3.40D-02
 Coeff-Com: -0.283D-01 0.144D+00 0.372D+00 0.513D+00
 Coeff-En:   0.000D+00 0.000D+00 0.250D+00 0.750D+00
 Coeff:     -0.274D-01 0.139D+00 0.367D+00 0.521D+00
 Gap=     0.175 Goal=   None    Shift=    0.000
 RMSDP=1.82D-04 MaxDP=1.20D-02 DE=-3.44D-02 OVMax= 4.03D-02

 Cycle   5  Pass 1  IDiag  1:
 RMSU=  1.26D-04    CP:  9.74D-01  7.04D-01  6.36D-01  7.56D-01
 E= -1163.13444536633     Delta-E=       -0.012688324942 Rises=F Damp=F
 DIIS: error= 5.90D-04 at cycle   5 NSaved=   5.
 NSaved= 5 IEnMin= 5 EnMin= -1163.13444536633     IErMin= 5 ErrMin= 5.90D-04
 ErrMax= 5.90D-04  0.00D+00 EMaxC= 1.00D-01 BMatC= 4.04D-04 BMatP= 1.25D-02
 IDIUse=3 WtCom= 9.94D-01 WtEn= 5.90D-03
 Coeff-Com: -0.106D-01 0.267D-01 0.133D+00 0.248D+00 0.603D+00
 Coeff-En:   0.000D+00 0.000D+00 0.000D+00 0.000D+00 0.100D+01
 Coeff:     -0.105D-01 0.265D-01 0.132D+00 0.246D+00 0.605D+00
 Gap=     0.170 Goal=   None    Shift=    0.000
 RMSDP=8.88D-05 MaxDP=5.87D-03 DE=-1.27D-02 OVMax= 5.33D-03

 Cycle   6  Pass 1  IDiag  1:
 RMSU=  3.41D-05    CP:  9.77D-01  7.13D-01  6.87D-01  7.04D-01  5.59D-01
 E= -1163.13481499491     Delta-E=       -0.000369628578 Rises=F Damp=F
 DIIS: error= 1.57D-04 at cycle   6 NSaved=   6.
 NSaved= 6 IEnMin= 6 EnMin= -1163.13481499491     IErMin= 6 ErrMin= 1.57D-04
 ErrMax= 1.57D-04  0.00D+00 EMaxC= 1.00D-01 BMatC= 3.15D-05 BMatP= 4.04D-04
 IDIUse=3 WtCom= 9.98D-01 WtEn= 1.57D-03
 Coeff-Com: -0.279D-02 0.265D-02 0.377D-01 0.804D-01 0.284D+00 0.598D+00
 Coeff-En:   0.000D+00 0.000D+00 0.000D+00 0.000D+00 0.000D+00 0.100D+01
 Coeff:     -0.279D-02 0.265D-02 0.376D-01 0.803D-01 0.284D+00 0.598D+00
 Gap=     0.170 Goal=   None    Shift=    0.000
 RMSDP=1.13D-05 MaxDP=8.24D-04 DE=-3.70D-04 OVMax= 1.32D-03

 Cycle   7  Pass 1  IDiag  1:
 RMSU=  9.13D-06    CP:  9.76D-01  7.10D-01  6.88D-01  7.13D-01  5.79D-01
                    CP:  9.61D-01
 E= -1163.13484273817     Delta-E=       -0.000027743260 Rises=F Damp=F
 DIIS: error= 5.08D-05 at cycle   7 NSaved=   7.
 NSaved= 7 IEnMin= 7 EnMin= -1163.13484273817     IErMin= 7 ErrMin= 5.08D-05
 ErrMax= 5.08D-05  0.00D+00 EMaxC= 1.00D-01 BMatC= 2.68D-06 BMatP= 3.15D-05
 IDIUse=1 WtCom= 1.00D+00 WtEn= 0.00D+00
 Coeff-Com: -0.526D-03-0.722D-03 0.901D-02 0.209D-01 0.910D-01 0.285D+00
 Coeff-Com:  0.595D+00
 Coeff:     -0.526D-03-0.722D-03 0.901D-02 0.209D-01 0.910D-01 0.285D+00
 Coeff:      0.595D+00
 Gap=     0.170 Goal=   None    Shift=    0.000
 RMSDP=3.55D-06 MaxDP=2.14D-04 DE=-2.77D-05 OVMax= 5.15D-04

 Cycle   8  Pass 1  IDiag  1:
 RMSU=  2.89D-06    CP:  9.76D-01  7.10D-01  6.88D-01  7.14D-01  5.77D-01
                    CP:  1.00D+00  9.12D-01
 E= -1163.13484493926     Delta-E=       -0.000002201090 Rises=F Damp=F
 DIIS: error= 2.09D-05 at cycle   8 NSaved=   8.
 NSaved= 8 IEnMin= 8 EnMin= -1163.13484493926     IErMin= 8 ErrMin= 2.09D-05
 ErrMax= 2.09D-05  0.00D+00 EMaxC= 1.00D-01 BMatC= 4.26D-07 BMatP= 2.68D-06
 IDIUse=1 WtCom= 1.00D+00 WtEn= 0.00D+00
 Coeff-Com:  0.207D-03-0.885D-03-0.881D-03-0.158D-02 0.555D-02 0.635D-01
 Coeff-Com:  0.314D+00 0.620D+00
 Coeff:      0.207D-03-0.885D-03-0.881D-03-0.158D-02 0.555D-02 0.635D-01
 Coeff:      0.314D+00 0.620D+00
 Gap=     0.170 Goal=   None    Shift=    0.000
 RMSDP=1.93D-06 MaxDP=7.65D-05 DE=-2.20D-06 OVMax= 2.47D-04

 Cycle   9  Pass 1  IDiag  1:
 RMSU=  9.07D-07    CP:  9.77D-01  7.10D-01  6.89D-01  7.13D-01  5.74D-01
                    CP:  1.02D+00  1.02D+00  8.15D-01
 E= -1163.13484532299     Delta-E=       -0.000000383728 Rises=F Damp=F
 DIIS: error= 1.05D-05 at cycle   9 NSaved=   9.
 NSaved= 9 IEnMin= 9 EnMin= -1163.13484532299     IErMin= 9 ErrMin= 1.05D-05
 ErrMax= 1.05D-05  0.00D+00 EMaxC= 1.00D-01 BMatC= 5.35D-08 BMatP= 4.26D-07
 IDIUse=1 WtCom= 1.00D+00 WtEn= 0.00D+00
 Coeff-Com:  0.153D-03-0.439D-03-0.104D-02-0.246D-02-0.297D-02 0.148D-01
 Coeff-Com:  0.129D+00 0.350D+00 0.514D+00
 Coeff:      0.153D-03-0.439D-03-0.104D-02-0.246D-02-0.297D-02 0.148D-01
 Coeff:      0.129D+00 0.350D+00 0.514D+00
 Gap=     0.170 Goal=   None    Shift=    0.000
 RMSDP=8.15D-07 MaxDP=7.64D-05 DE=-3.84D-07 OVMax= 8.25D-05

 Cycle  10  Pass 1  IDiag  1:
 RMSU=  2.76D-07    CP:  9.77D-01  7.10D-01  6.89D-01  7.13D-01  5.72D-01
                    CP:  1.03D+00  1.01D+00  8.72D-01  7.96D-01
 E= -1163.13484537286     Delta-E=       -0.000000049875 Rises=F Damp=F
 DIIS: error= 2.01D-06 at cycle  10 NSaved=  10.
 NSaved=10 IEnMin=10 EnMin= -1163.13484537286     IErMin=10 ErrMin= 2.01D-06
 ErrMax= 2.01D-06  0.00D+00 EMaxC= 1.00D-01 BMatC= 4.07D-09 BMatP= 5.35D-08
 IDIUse=1 WtCom= 1.00D+00 WtEn= 0.00D+00
 Coeff-Com:  0.446D-04-0.801D-04-0.349D-03-0.103D-02-0.214D-02-0.180D-02
 Coeff-Com:  0.150D-01 0.790D-01 0.247D+00 0.665D+00
 Coeff:      0.446D-04-0.801D-04-0.349D-03-0.103D-02-0.214D-02-0.180D-02
 Coeff:      0.150D-01 0.790D-01 0.247D+00 0.665D+00
 Gap=     0.170 Goal=   None    Shift=    0.000
 RMSDP=2.16D-07 MaxDP=1.24D-05 DE=-4.99D-08 OVMax= 2.43D-05

 Cycle  11  Pass 1  IDiag  1:
 RMSU=  1.08D-07    CP:  9.77D-01  7.10D-01  6.89D-01  7.13D-01  5.72D-01
                    CP:  1.03D+00  1.03D+00  8.75D-01  8.93D-01  8.56D-01
 E= -1163.13484537631     Delta-E=       -0.000000003447 Rises=F Damp=F
 DIIS: error= 5.95D-07 at cycle  11 NSaved=  11.
 NSaved=11 IEnMin=11 EnMin= -1163.13484537631     IErMin=11 ErrMin= 5.95D-07
 ErrMax= 5.95D-07  0.00D+00 EMaxC= 1.00D-01 BMatC= 5.36D-10 BMatP= 4.07D-09
 IDIUse=1 WtCom= 1.00D+00 WtEn= 0.00D+00
 Coeff-Com:  0.615D-05 0.612D-05-0.558D-04-0.264D-03-0.773D-03-0.248D-02
 Coeff-Com: -0.622D-02 0.297D-02 0.761D-01 0.351D+00 0.579D+00
 Coeff:      0.615D-05 0.612D-05-0.558D-04-0.264D-03-0.773D-03-0.248D-02
 Coeff:     -0.622D-02 0.297D-02 0.761D-01 0.351D+00 0.579D+00
 Gap=     0.170 Goal=   None    Shift=    0.000
 RMSDP=7.04D-08 MaxDP=6.04D-06 DE=-3.45D-09 OVMax= 1.04D-05

 Cycle  12  Pass 1  IDiag  1:
 RMSU=  3.75D-08    CP:  9.77D-01  7.10D-01  6.89D-01  7.13D-01  5.72D-01
                    CP:  1.03D+00  1.03D+00  8.83D-01  9.00D-01  9.30D-01
                    CP:  8.60D-01
 E= -1163.13484537689     Delta-E=       -0.000000000580 Rises=F Damp=F
 DIIS: error= 2.11D-07 at cycle  12 NSaved=  12.
 NSaved=12 IEnMin=12 EnMin= -1163.13484537689     IErMin=12 ErrMin= 2.11D-07
 ErrMax= 2.11D-07  0.00D+00 EMaxC= 1.00D-01 BMatC= 4.35D-11 BMatP= 5.36D-10
 IDIUse=1 WtCom= 1.00D+00 WtEn= 0.00D+00
 Coeff-Com: -0.152D-05 0.935D-05 0.957D-05-0.974D-05-0.144D-03-0.890D-03
 Coeff-Com: -0.443D-02-0.789D-02 0.673D-02 0.795D-01 0.268D+00 0.659D+00
 Coeff:     -0.152D-05 0.935D-05 0.957D-05-0.974D-05-0.144D-03-0.890D-03
 Coeff:     -0.443D-02-0.789D-02 0.673D-02 0.795D-01 0.268D+00 0.659D+00
 Gap=     0.170 Goal=   None    Shift=    0.000
 RMSDP=2.13D-08 MaxDP=9.76D-07 DE=-5.80D-10 OVMax= 2.91D-06

 Cycle  13  Pass 1  IDiag  1:
 RMSU=  9.81D-09    CP:  9.77D-01  7.10D-01  6.89D-01  7.13D-01  5.72D-01
                    CP:  1.03D+00  1.03D+00  8.84D-01  9.09D-01  9.38D-01
                    CP:  9.31D-01  9.73D-01
 E= -1163.13484537694     Delta-E=       -0.000000000051 Rises=F Damp=F
 DIIS: error= 7.54D-08 at cycle  13 NSaved=  13.
 NSaved=13 IEnMin=13 EnMin= -1163.13484537694     IErMin=13 ErrMin= 7.54D-08
 ErrMax= 7.54D-08  0.00D+00 EMaxC= 1.00D-01 BMatC= 6.63D-12 BMatP= 4.35D-11
 IDIUse=1 WtCom= 1.00D+00 WtEn= 0.00D+00
 Coeff-Com: -0.129D-05 0.381D-05 0.983D-05 0.227D-04 0.243D-05-0.189D-03
 Coeff-Com: -0.161D-02-0.448D-02-0.492D-02 0.446D-03 0.749D-01 0.349D+00
 Coeff-Com:  0.587D+00
 Coeff:     -0.129D-05 0.381D-05 0.983D-05 0.227D-04 0.243D-05-0.189D-03
 Coeff:     -0.161D-02-0.448D-02-0.492D-02 0.446D-03 0.749D-01 0.349D+00
 Coeff:      0.587D+00
 Gap=     0.170 Goal=   None    Shift=    0.000
 RMSDP=6.42D-09 MaxDP=3.36D-07 DE=-5.09D-11 OVMax= 9.86D-07

 Error on total polarization charges =  0.05647
 SCF Done:  E(RB3LYP) =  -1163.13484538     A.U. after   13 cycles
            NFock= 13  Conv=0.64D-08     -V/T= 2.0044
 KE= 1.158035002976D+03 PE=-5.856595562776D+03 EE= 1.968862518531D+03
 SMD-CDS (non-electrostatic) energy       (kcal/mol) =      -3.66
 (included in total energy above)
 Leave Link  502 at Mon Feb 15 23:32:57 2021, MaxMem=  5242880000 cpu:      7586.9
 (Enter /opt/nce/packages/global/g09/l601.exe)
 Copying SCF densities to generalized density rwf, IOpCl= 0 IROHF=0.

 **********************************************************************

            Population analysis using the SCF density.

 **********************************************************************

 Alpha  occ. eigenvalues --  -88.87437 -14.35950 -14.30977 -10.25544 -10.22774
 Alpha  occ. eigenvalues --  -10.22690 -10.21623 -10.21518 -10.20860 -10.18996
 Alpha  occ. eigenvalues --  -10.18687 -10.18468 -10.18453 -10.18207 -10.18154
 Alpha  occ. eigenvalues --  -10.18055 -10.18002 -10.17981 -10.17879 -10.17342
 Alpha  occ. eigenvalues --   -7.95059  -5.91383  -5.91045  -5.90501  -0.99435
 Alpha  occ. eigenvalues --   -0.93544  -0.86750  -0.86233  -0.80788  -0.80229
 Alpha  occ. eigenvalues --   -0.76717  -0.76296  -0.75501  -0.73013  -0.69082
 Alpha  occ. eigenvalues --   -0.64888  -0.64444  -0.61659  -0.60559  -0.60416
 Alpha  occ. eigenvalues --   -0.56944  -0.54465  -0.54168  -0.49965  -0.49176
 Alpha  occ. eigenvalues --   -0.48199  -0.47331  -0.46839  -0.46248  -0.44534
 Alpha  occ. eigenvalues --   -0.44260  -0.43527  -0.42590  -0.41916  -0.40602
 Alpha  occ. eigenvalues --   -0.39925  -0.38961  -0.38147  -0.37736  -0.36869
 Alpha  occ. eigenvalues --   -0.36223  -0.35100  -0.34310  -0.32618  -0.30645
 Alpha  occ. eigenvalues --   -0.29045  -0.27496  -0.27226  -0.26400  -0.25490
 Alpha  occ. eigenvalues --   -0.23021  -0.20579
 Alpha virt. eigenvalues --   -0.03540  -0.03298  -0.02770  -0.02156  -0.01401
 Alpha virt. eigenvalues --   -0.00011   0.01841   0.04876   0.05965   0.07065
 Alpha virt. eigenvalues --    0.07451   0.07669   0.08588   0.09489   0.09636
 Alpha virt. eigenvalues --    0.10415   0.10879   0.11792   0.11855   0.12145
 Alpha virt. eigenvalues --    0.12317   0.12876   0.13467   0.13575   0.14224
 Alpha virt. eigenvalues --    0.15754   0.16647   0.16972   0.17962   0.18414
 Alpha virt. eigenvalues --    0.19056   0.19546   0.19968   0.20544   0.20947
 Alpha virt. eigenvalues --    0.21203   0.21777   0.22091   0.22842   0.23132
 Alpha virt. eigenvalues --    0.23280   0.24015   0.24128   0.24820   0.25002
 Alpha virt. eigenvalues --    0.25377   0.26040   0.26498   0.27201   0.27526
 Alpha virt. eigenvalues --    0.28131   0.28868   0.29397   0.29789   0.30144
 Alpha virt. eigenvalues --    0.30746   0.31261   0.31710   0.31729   0.32133
 Alpha virt. eigenvalues --    0.32689   0.32894   0.33386   0.34260   0.35114
 Alpha virt. eigenvalues --    0.35953   0.36080   0.36798   0.37608   0.37779
 Alpha virt. eigenvalues --    0.37831   0.38296   0.39016   0.39070   0.39423
 Alpha virt. eigenvalues --    0.40343   0.40881   0.41655   0.41809   0.42338
 Alpha virt. eigenvalues --    0.42517   0.43098   0.43218   0.43818   0.44490
 Alpha virt. eigenvalues --    0.44722   0.44964   0.45241   0.45838   0.47098
 Alpha virt. eigenvalues --    0.47315   0.47788   0.48311   0.48603   0.49077
 Alpha virt. eigenvalues --    0.49449   0.49734   0.49914   0.51134   0.51598
 Alpha virt. eigenvalues --    0.52513   0.52780   0.53439   0.54558   0.55304
 Alpha virt. eigenvalues --    0.56016   0.56971   0.57233   0.58150   0.58601
 Alpha virt. eigenvalues --    0.60470   0.60634   0.61064   0.61834   0.62782
 Alpha virt. eigenvalues --    0.63572   0.64295   0.64961   0.65293   0.66223
 Alpha virt. eigenvalues --    0.66505   0.67594   0.67671   0.67910   0.68692
 Alpha virt. eigenvalues --    0.69327   0.69680   0.69991   0.70604   0.70999
 Alpha virt. eigenvalues --    0.72423   0.72786   0.74258   0.74770   0.75031
 Alpha virt. eigenvalues --    0.75512   0.75710   0.76632   0.77372   0.78535
 Alpha virt. eigenvalues --    0.79946   0.80271   0.81251   0.81837   0.82041
 Alpha virt. eigenvalues --    0.83360   0.83527   0.84115   0.85301   0.86193
 Alpha virt. eigenvalues --    0.86685   0.87670   0.88100   0.88771   0.89472
 Alpha virt. eigenvalues --    0.89874   0.90712   0.91080   0.92781   0.93464
 Alpha virt. eigenvalues --    0.93815   0.94056   0.95141   0.97180   0.97571
 Alpha virt. eigenvalues --    0.99300   0.99735   1.00193   1.02016   1.02582
 Alpha virt. eigenvalues --    1.03512   1.03880   1.05227   1.05920   1.06210
 Alpha virt. eigenvalues --    1.08069   1.09377   1.09620   1.10871   1.12070
 Alpha virt. eigenvalues --    1.12380   1.13149   1.13664   1.15073   1.15772
 Alpha virt. eigenvalues --    1.17297   1.17497   1.18847   1.19460   1.20262
 Alpha virt. eigenvalues --    1.21502   1.22711   1.22955   1.23542   1.24035
 Alpha virt. eigenvalues --    1.24879   1.25671   1.27160   1.27352   1.28853
 Alpha virt. eigenvalues --    1.29058   1.29506   1.31001   1.31245   1.32239
 Alpha virt. eigenvalues --    1.32721   1.33342   1.34060   1.35040   1.36485
 Alpha virt. eigenvalues --    1.36903   1.38177   1.39288   1.39642   1.41277
 Alpha virt. eigenvalues --    1.42600   1.42971   1.43507   1.43958   1.44776
 Alpha virt. eigenvalues --    1.45350   1.45854   1.46754   1.47647   1.48755
 Alpha virt. eigenvalues --    1.49180   1.49665   1.50756   1.51708   1.51813
 Alpha virt. eigenvalues --    1.52418   1.54922   1.55870   1.56648   1.56774
 Alpha virt. eigenvalues --    1.57535   1.58279   1.59333   1.59498   1.60655
 Alpha virt. eigenvalues --    1.61494   1.61688   1.62231   1.62710   1.63179
 Alpha virt. eigenvalues --    1.63749   1.64976   1.65273   1.65734   1.66737
 Alpha virt. eigenvalues --    1.67673   1.68294   1.69007   1.69422   1.70954
 Alpha virt. eigenvalues --    1.71820   1.71962   1.73052   1.73232   1.73604
 Alpha virt. eigenvalues --    1.74492   1.75784   1.75976   1.77103   1.78282
 Alpha virt. eigenvalues --    1.79428   1.80396   1.81389   1.82085   1.83296
 Alpha virt. eigenvalues --    1.84324   1.85783   1.86157   1.87572   1.88380
 Alpha virt. eigenvalues --    1.89403   1.90250   1.90341   1.92091   1.94869
 Alpha virt. eigenvalues --    1.95356   1.95597   1.96371   1.96986   1.99561
 Alpha virt. eigenvalues --    1.99627   2.01217   2.02114   2.03270   2.04049
 Alpha virt. eigenvalues --    2.05293   2.06221   2.06759   2.07571   2.08814
 Alpha virt. eigenvalues --    2.09372   2.10007   2.10990   2.11624   2.13975
 Alpha virt. eigenvalues --    2.14554   2.14981   2.16134   2.17167   2.18587
 Alpha virt. eigenvalues --    2.18898   2.19491   2.19967   2.21397   2.22207
 Alpha virt. eigenvalues --    2.23510   2.24403   2.25039   2.25502   2.27578
 Alpha virt. eigenvalues --    2.28200   2.30021   2.31607   2.33324   2.34408
 Alpha virt. eigenvalues --    2.37739   2.40321   2.40927   2.42791   2.43592
 Alpha virt. eigenvalues --    2.44433   2.45170   2.47115   2.47582   2.50070
 Alpha virt. eigenvalues --    2.50732   2.51079   2.51942   2.52159   2.52608
 Alpha virt. eigenvalues --    2.56341   2.57392   2.58007   2.58922   2.59091
 Alpha virt. eigenvalues --    2.60132   2.60528   2.61697   2.62849   2.63182
 Alpha virt. eigenvalues --    2.63489   2.63986   2.64279   2.65052   2.66396
 Alpha virt. eigenvalues --    2.67029   2.67079   2.68369   2.68722   2.69081
 Alpha virt. eigenvalues --    2.69566   2.70164   2.71109   2.72027   2.72240
 Alpha virt. eigenvalues --    2.72761   2.73011   2.74154   2.75213   2.75839
 Alpha virt. eigenvalues --    2.76770   2.78313   2.78968   2.79265   2.80699
 Alpha virt. eigenvalues --    2.81127   2.81324   2.82016   2.82391   2.83214
 Alpha virt. eigenvalues --    2.84127   2.85037   2.85713   2.86293   2.86785
 Alpha virt. eigenvalues --    2.86839   2.88265   2.88460   2.89730   2.90219
 Alpha virt. eigenvalues --    2.90884   2.91605   2.92114   2.93017   2.93358
 Alpha virt. eigenvalues --    2.93987   2.94549   2.96511   2.97780   2.97934
 Alpha virt. eigenvalues --    2.99490   3.01052   3.02432   3.02964   3.03497
 Alpha virt. eigenvalues --    3.04663   3.05573   3.06318   3.07993   3.08555
 Alpha virt. eigenvalues --    3.09212   3.09647   3.10573   3.11819   3.12390
 Alpha virt. eigenvalues --    3.12696   3.13500   3.14167   3.14692   3.15338
 Alpha virt. eigenvalues --    3.15609   3.16036   3.16310   3.17292   3.17854
 Alpha virt. eigenvalues --    3.18435   3.18916   3.20065   3.20143   3.20820
 Alpha virt. eigenvalues --    3.21259   3.22455   3.23638   3.24028   3.26085
 Alpha virt. eigenvalues --    3.26799   3.27538   3.28432   3.29438   3.30124
 Alpha virt. eigenvalues --    3.30947   3.31579   3.31976   3.32471   3.33277
 Alpha virt. eigenvalues --    3.33634   3.34090   3.34779   3.35643   3.36269
 Alpha virt. eigenvalues --    3.37057   3.37766   3.38295   3.38942   3.39264
 Alpha virt. eigenvalues --    3.39966   3.40363   3.41810   3.42803   3.42882
 Alpha virt. eigenvalues --    3.43961   3.44647   3.45175   3.46145   3.46828
 Alpha virt. eigenvalues --    3.47066   3.48241   3.49415   3.49662   3.51583
 Alpha virt. eigenvalues --    3.51936   3.52212   3.53672   3.54450   3.54662
 Alpha virt. eigenvalues --    3.55007   3.55691   3.56712   3.57724   3.58302
 Alpha virt. eigenvalues --    3.59564   3.60115   3.61331   3.62085   3.65218
 Alpha virt. eigenvalues --    3.66714   3.68742   3.70846   3.71258   3.72429
 Alpha virt. eigenvalues --    3.73083   3.73748   3.75674   3.76194   3.77814
 Alpha virt. eigenvalues --    3.79011   3.81347   3.84262   3.86379   3.88504
 Alpha virt. eigenvalues --    3.89556   3.89982   3.91294   3.91359   3.92868
 Alpha virt. eigenvalues --    3.94158   3.95981   3.96730   3.99511   4.02243
 Alpha virt. eigenvalues --    4.02801   4.03769   4.04250   4.06063   4.07900
 Alpha virt. eigenvalues --    4.08463   4.08673   4.09861   4.10454   4.12607
 Alpha virt. eigenvalues --    4.12978   4.14665   4.16216   4.18054   4.18307
 Alpha virt. eigenvalues --    4.18897   4.19985   4.20669   4.21507   4.22039
 Alpha virt. eigenvalues --    4.22496   4.23272   4.23823   4.25256   4.25638
 Alpha virt. eigenvalues --    4.28292   4.28986   4.29414   4.30914   4.32681
 Alpha virt. eigenvalues --    4.33943   4.34917   4.36373   4.37969   4.38536
 Alpha virt. eigenvalues --    4.40451   4.41849   4.44203   4.47540   4.50242
 Alpha virt. eigenvalues --    4.51833   4.57398   4.59685   4.61984   4.64224
 Alpha virt. eigenvalues --    4.67186   4.70043   4.70988   4.72508   4.73281
 Alpha virt. eigenvalues --    4.73556   4.74737   4.75489   4.78251   4.80343
 Alpha virt. eigenvalues --    4.82037   4.85182   4.87038   4.90729   4.93142
 Alpha virt. eigenvalues --    4.94698   4.96017   4.96580   4.99511   5.01161
 Alpha virt. eigenvalues --    5.02364   5.07164   5.08704   5.12499   5.14171
 Alpha virt. eigenvalues --    5.15065   5.19109   5.21863   5.22503   5.23044
 Alpha virt. eigenvalues --    5.25836   5.27028   5.29333   5.32423   5.37366
 Alpha virt. eigenvalues --    5.39228   5.42420   5.42848   5.44695   5.47231
 Alpha virt. eigenvalues --    5.53109   5.55330   5.60913   5.66958   5.70285
 Alpha virt. eigenvalues --    5.72717   5.74308   5.82369   5.92294   5.95169
 Alpha virt. eigenvalues --    6.00341   6.08547   6.34308   8.96201   9.39548
 Alpha virt. eigenvalues --    9.56530  20.25071  22.05231  22.19493  22.31987
 Alpha virt. eigenvalues --   22.54128  22.56073  22.56634  22.61278  22.61762
 Alpha virt. eigenvalues --   22.63825  22.76575  22.77292  22.80588  22.84895
 Alpha virt. eigenvalues --   22.87934  23.16611  23.22224  23.25144  32.59278
 Alpha virt. eigenvalues --   33.17522
          Condensed to atoms (all electrons):
               1          2          3          4          5          6
     1  C    5.093400   0.314918   0.124496  -0.174353   0.108987   0.356378
     2  C    0.314918   5.362747   0.136207   0.120818  -0.213051   0.067358
     3  C    0.124496   0.136207   5.344516   0.212565   0.170617  -0.142894
     4  C   -0.174353   0.120818   0.212565   5.384172   0.181260   0.092756
     5  C    0.108987  -0.213051   0.170617   0.181260   5.450548   0.260906
     6  C    0.356378   0.067358  -0.142894   0.092756   0.260906   5.117449
     7  C   -0.000845   0.004525   0.004877  -0.126690  -0.007319   0.000953
     8  C   -0.001218   0.003775  -0.050829   0.000500  -0.003042   0.000443
     9  C   -0.000358   0.004250   0.006318  -0.003573  -0.002182   0.000211
    10  H   -0.000013   0.000239   0.000361  -0.000116  -0.000045   0.000008
    11  C    0.000024  -0.000344  -0.001768   0.001704   0.000338  -0.000015
    12  C   -0.000008   0.000194   0.001209  -0.003304  -0.000509   0.000034
    13  C    0.000383  -0.002607  -0.005873   0.021922   0.010346  -0.000689
    14  H   -0.058737   0.462166  -0.089731   0.021478  -0.008325   0.014957
    15  H    0.011581  -0.004372   0.011671  -0.060119   0.445413  -0.049010
    16  H   -0.054540   0.012400  -0.004661   0.015874  -0.057706   0.441960
    17  H    0.000000  -0.000002   0.000006   0.000010   0.000001  -0.000000
    18  H   -0.000000   0.000001  -0.000001  -0.000023  -0.000003   0.000000
    19  C   -0.001916   0.004577  -0.016639  -0.106925  -0.019798   0.003852
    20  C    0.000131  -0.000703   0.001472   0.019304   0.002703  -0.000100
    21  C    0.000007  -0.000016  -0.000042   0.000538   0.000067  -0.000056
    22  C    0.000088  -0.000114  -0.000650  -0.001405   0.002061  -0.000320
    23  C    0.000009  -0.000012   0.000041   0.000456   0.000173  -0.000043
    24  H    0.000000  -0.000000  -0.000003   0.000062   0.000009  -0.000000
    25  H   -0.000027   0.000021  -0.000060   0.000341  -0.000240   0.000184
    26  H   -0.000007   0.000037   0.000179  -0.003175  -0.000371   0.000027
    27  H   -0.000000   0.000000  -0.000000  -0.000039  -0.000004   0.000002
    28  H    0.444220  -0.059151   0.014717  -0.005124   0.014165  -0.056649
    29  N   -0.005099   0.023316  -0.091211   0.309566  -0.093377   0.013003
    30  H   -0.000004   0.000015  -0.000072   0.001057  -0.000061   0.000024
    31  S    0.012858  -0.073395   0.388511  -0.080855   0.025353  -0.004431
    32  N    0.002267  -0.002820   0.008598  -0.017436   0.020735  -0.012463
               7          8          9         10         11         12
     1  C   -0.000845  -0.001218  -0.000358  -0.000013   0.000024  -0.000008
     2  C    0.004525   0.003775   0.004250   0.000239  -0.000344   0.000194
     3  C    0.004877  -0.050829   0.006318   0.000361  -0.001768   0.001209
     4  C   -0.126690   0.000500  -0.003573  -0.000116   0.001704  -0.003304
     5  C   -0.007319  -0.003042  -0.002182  -0.000045   0.000338  -0.000509
     6  C    0.000953   0.000443   0.000211   0.000008  -0.000015   0.000034
     7  C    5.460439   0.263390   0.075430   0.020934  -0.142571   0.014139
     8  C    0.263390   5.268745   0.201246  -0.084819   0.093395  -0.097512
     9  C    0.075430   0.201246   5.292131   0.456372   0.345824   0.030303
    10  H    0.020934  -0.084819   0.456372   0.510471  -0.058391   0.014174
    11  C   -0.142571   0.093395   0.345824  -0.058391   5.079789   0.379626
    12  C    0.014139  -0.097512   0.030303   0.014174   0.379626   5.079484
    13  C    0.250080   0.091836  -0.139480  -0.006977   0.057350   0.346617
    14  H    0.000189   0.000128   0.000186   0.000047  -0.000014   0.000008
    15  H   -0.000956  -0.000148   0.000012   0.000000  -0.000004   0.000018
    16  H    0.000023  -0.000002   0.000001   0.000000  -0.000000   0.000000
    17  H   -0.003886   0.012913  -0.056390  -0.007110   0.442520  -0.054908
    18  H    0.013989  -0.003889   0.011616  -0.000136  -0.053568   0.439567
    19  C   -0.088608  -0.030450   0.005990   0.000062  -0.001441  -0.002577
    20  C   -0.025140   0.011460  -0.002560  -0.000029   0.001316  -0.002033
    21  C   -0.006459  -0.000490  -0.000064  -0.000001   0.000123  -0.000298
    22  C   -0.002360  -0.000065   0.000011   0.000000  -0.000001  -0.000001
    23  C    0.000374   0.000086  -0.000010  -0.000000  -0.000001   0.000040
    24  H    0.000017  -0.000009   0.000002   0.000000  -0.000001   0.000006
    25  H    0.000087  -0.000000   0.000000   0.000000  -0.000000  -0.000000
    26  H    0.002738   0.001811   0.000604   0.000007  -0.000444   0.001417
    27  H    0.000019   0.000000   0.000000   0.000000  -0.000000   0.000000
    28  H   -0.000005   0.000013  -0.000002  -0.000000   0.000000  -0.000000
    29  N    0.294697  -0.079314   0.013059  -0.000160  -0.000371   0.005940
    30  H   -0.052145   0.009789  -0.002074   0.000037   0.008937  -0.042192
    31  S   -0.109057   0.407879  -0.073317   0.003868   0.011834  -0.003438
    32  N   -0.000679  -0.000528   0.000042  -0.000000  -0.000000  -0.000169
              13         14         15         16         17         18
     1  C    0.000383  -0.058737   0.011581  -0.054540   0.000000  -0.000000
     2  C   -0.002607   0.462166  -0.004372   0.012400  -0.000002   0.000001
     3  C   -0.005873  -0.089731   0.011671  -0.004661   0.000006  -0.000001
     4  C    0.021922   0.021478  -0.060119   0.015874   0.000010  -0.000023
     5  C    0.010346  -0.008325   0.445413  -0.057706   0.000001  -0.000003
     6  C   -0.000689   0.014957  -0.049010   0.441960  -0.000000   0.000000
     7  C    0.250080   0.000189  -0.000956   0.000023  -0.003886   0.013989
     8  C    0.091836   0.000128  -0.000148  -0.000002   0.012913  -0.003889
     9  C   -0.139480   0.000186   0.000012   0.000001  -0.056390   0.011616
    10  H   -0.006977   0.000047   0.000000   0.000000  -0.007110  -0.000136
    11  C    0.057350  -0.000014  -0.000004  -0.000000   0.442520  -0.053568
    12  C    0.346617   0.000008   0.000018   0.000000  -0.054908   0.439567
    13  C    5.281887  -0.000043   0.000218  -0.000005   0.012437  -0.053895
    14  H   -0.000043   0.511558   0.000013  -0.000142  -0.000000   0.000000
    15  H    0.000218   0.000013   0.495197  -0.007110  -0.000000  -0.000000
    16  H   -0.000005  -0.000142  -0.007110   0.508271   0.000000  -0.000000
    17  H    0.012437  -0.000000  -0.000000   0.000000   0.506744  -0.006126
    18  H   -0.053895   0.000000  -0.000000  -0.000000  -0.006126   0.504221
    19  C   -0.003916   0.000067  -0.003361   0.000024   0.000007   0.000131
    20  C    0.009268  -0.000005  -0.000074  -0.000007   0.000007  -0.000137
    21  C    0.003710  -0.000000   0.000270  -0.000000   0.000000  -0.000010
    22  C   -0.000122  -0.000000   0.001076  -0.000009   0.000000   0.000001
    23  C    0.000100  -0.000000   0.000191  -0.000002  -0.000000  -0.000001
    24  H   -0.000026  -0.000000   0.000004  -0.000000  -0.000000   0.000000
    25  H   -0.000014   0.000000  -0.000735   0.000011   0.000000   0.000000
    26  H   -0.009488   0.000000  -0.000085   0.000000  -0.000005   0.000050
    27  H    0.000001   0.000000  -0.000022   0.000000  -0.000000   0.000000
    28  H    0.000001  -0.007209  -0.000073  -0.006303   0.000000   0.000000
    29  N   -0.045232  -0.000040  -0.007574  -0.000021   0.000028  -0.000230
    30  H    0.436183   0.000000   0.000033  -0.000000  -0.000128  -0.006399
    31  S    0.023297   0.003236  -0.000241   0.000021  -0.000342   0.000021
    32  N   -0.001179  -0.000008   0.030138  -0.000335   0.000000   0.000002
              19         20         21         22         23         24
     1  C   -0.001916   0.000131   0.000007   0.000088   0.000009   0.000000
     2  C    0.004577  -0.000703  -0.000016  -0.000114  -0.000012  -0.000000
     3  C   -0.016639   0.001472  -0.000042  -0.000650   0.000041  -0.000003
     4  C   -0.106925   0.019304   0.000538  -0.001405   0.000456   0.000062
     5  C   -0.019798   0.002703   0.000067   0.002061   0.000173   0.000009
     6  C    0.003852  -0.000100  -0.000056  -0.000320  -0.000043  -0.000000
     7  C   -0.088608  -0.025140  -0.006459  -0.002360   0.000374   0.000017
     8  C   -0.030450   0.011460  -0.000490  -0.000065   0.000086  -0.000009
     9  C    0.005990  -0.002560  -0.000064   0.000011  -0.000010   0.000002
    10  H    0.000062  -0.000029  -0.000001   0.000000  -0.000000   0.000000
    11  C   -0.001441   0.001316   0.000123  -0.000001  -0.000001  -0.000001
    12  C   -0.002577  -0.002033  -0.000298  -0.000001   0.000040   0.000006
    13  C   -0.003916   0.009268   0.003710  -0.000122   0.000100  -0.000026
    14  H    0.000067  -0.000005  -0.000000  -0.000000  -0.000000  -0.000000
    15  H   -0.003361  -0.000074   0.000270   0.001076   0.000191   0.000004
    16  H    0.000024  -0.000007  -0.000000  -0.000009  -0.000002  -0.000000
    17  H    0.000007   0.000007   0.000000   0.000000  -0.000000  -0.000000
    18  H    0.000131  -0.000137  -0.000010   0.000001  -0.000001   0.000000
    19  C    4.859968   0.452466  -0.034860  -0.097708  -0.036283   0.007753
    20  C    0.452466   5.083624   0.474137  -0.036461  -0.038949  -0.044213
    21  C   -0.034860   0.474137   4.965991  -0.024875   0.452797   0.430420
    22  C   -0.097708  -0.036461  -0.024875   4.803546   0.495682   0.005842
    23  C   -0.036283  -0.038949   0.452797   0.495682   5.049799  -0.043478
    24  H    0.007753  -0.044213   0.430420   0.005842  -0.043478   0.496692
    25  H    0.005479  -0.000451   0.003818   0.426684  -0.065690  -0.000282
    26  H   -0.042001   0.428728  -0.046118  -0.002099   0.009790  -0.006450
    27  H   -0.001981   0.009885  -0.053101  -0.031115   0.415015  -0.005796
    28  H    0.000004   0.000001  -0.000000   0.000000   0.000000   0.000000
    29  N    0.454113  -0.064897  -0.000066   0.000289   0.001606  -0.000141
    30  H   -0.001775   0.000255   0.000373   0.000073   0.000038   0.000010
    31  S    0.001656   0.002804   0.000002   0.000048   0.000046  -0.000003
    32  N    0.425149  -0.046741  -0.034426   0.539087  -0.069886  -0.001167
              25         26         27         28         29         30
     1  C   -0.000027  -0.000007  -0.000000   0.444220  -0.005099  -0.000004
     2  C    0.000021   0.000037   0.000000  -0.059151   0.023316   0.000015
     3  C   -0.000060   0.000179  -0.000000   0.014717  -0.091211  -0.000072
     4  C    0.000341  -0.003175  -0.000039  -0.005124   0.309566   0.001057
     5  C   -0.000240  -0.000371  -0.000004   0.014165  -0.093377  -0.000061
     6  C    0.000184   0.000027   0.000002  -0.056649   0.013003   0.000024
     7  C    0.000087   0.002738   0.000019  -0.000005   0.294697  -0.052145
     8  C   -0.000000   0.001811   0.000000   0.000013  -0.079314   0.009789
     9  C    0.000000   0.000604   0.000000  -0.000002   0.013059  -0.002074
    10  H    0.000000   0.000007   0.000000  -0.000000  -0.000160   0.000037
    11  C   -0.000000  -0.000444  -0.000000   0.000000  -0.000371   0.008937
    12  C   -0.000000   0.001417   0.000000  -0.000000   0.005940  -0.042192
    13  C   -0.000014  -0.009488   0.000001   0.000001  -0.045232   0.436183
    14  H    0.000000   0.000000   0.000000  -0.007209  -0.000040   0.000000
    15  H   -0.000735  -0.000085  -0.000022  -0.000073  -0.007574   0.000033
    16  H    0.000011   0.000000   0.000000  -0.006303  -0.000021  -0.000000
    17  H    0.000000  -0.000005  -0.000000   0.000000   0.000028  -0.000128
    18  H    0.000000   0.000050   0.000000   0.000000  -0.000230  -0.006399
    19  C    0.005479  -0.042001  -0.001981   0.000004   0.454113  -0.001775
    20  C   -0.000451   0.428728   0.009885   0.000001  -0.064897   0.000255
    21  C    0.003818  -0.046118  -0.053101  -0.000000  -0.000066   0.000373
    22  C    0.426684  -0.002099  -0.031115   0.000000   0.000289   0.000073
    23  C   -0.065690   0.009790   0.415015   0.000000   0.001606   0.000038
    24  H   -0.000282  -0.006450  -0.005796   0.000000  -0.000141   0.000010
    25  H    0.520440   0.000121  -0.000513  -0.000000   0.000135  -0.000003
    26  H    0.000121   0.491504   0.000097  -0.000000  -0.004106  -0.001182
    27  H   -0.000513   0.000097   0.505829  -0.000000   0.000061  -0.000001
    28  H   -0.000000  -0.000000  -0.000000   0.509351   0.000007  -0.000000
    29  N    0.000135  -0.004106   0.000061   0.000007   6.389569   0.001821
    30  H   -0.000003  -0.001182  -0.000001  -0.000000   0.001821   0.489228
    31  S    0.000000   0.000043   0.000000  -0.000350  -0.006369  -0.000315
    32  N   -0.037186   0.004683   0.007089   0.000008  -0.120719  -0.000257
              31         32
     1  C    0.012858   0.002267
     2  C   -0.073395  -0.002820
     3  C    0.388511   0.008598
     4  C   -0.080855  -0.017436
     5  C    0.025353   0.020735
     6  C   -0.004431  -0.012463
     7  C   -0.109057  -0.000679
     8  C    0.407879  -0.000528
     9  C   -0.073317   0.000042
    10  H    0.003868  -0.000000
    11  C    0.011834  -0.000000
    12  C   -0.003438  -0.000169
    13  C    0.023297  -0.001179
    14  H    0.003236  -0.000008
    15  H   -0.000241   0.030138
    16  H    0.000021  -0.000335
    17  H   -0.000342   0.000000
    18  H    0.000021   0.000002
    19  C    0.001656   0.425149
    20  C    0.002804  -0.046741
    21  C    0.000002  -0.034426
    22  C    0.000048   0.539087
    23  C    0.000046  -0.069886
    24  H   -0.000003  -0.001167
    25  H    0.000000  -0.037186
    26  H    0.000043   0.004683
    27  H    0.000000   0.007089
    28  H   -0.000350   0.000008
    29  N   -0.006369  -0.120719
    30  H   -0.000315  -0.000257
    31  S   15.536261  -0.000371
    32  N   -0.000371   6.644381
 Mulliken charges:
               1
     1  C   -0.172622
     2  C   -0.160976
     3  C   -0.021928
     4  C    0.198753
     5  C   -0.287650
     6  C   -0.103835
     7  C    0.159820
     8  C   -0.015093
     9  C   -0.163598
    10  H    0.151217
    11  C   -0.163846
    12  C   -0.105828
    13  C   -0.276091
    14  H    0.150221
    15  H    0.138049
    16  H    0.152256
    17  H    0.154222
    18  H    0.154819
    19  C    0.268939
    20  C   -0.235061
    21  C   -0.131370
    22  C   -0.077183
    23  C   -0.171888
    24  H    0.160752
    25  H    0.147881
    26  H    0.173695
    27  H    0.154572
    28  H    0.152377
    29  N    0.011718
    30  H    0.158738
    31  S   -0.065251
    32  N   -0.335810
 Sum of Mulliken charges =  -0.00000
 Mulliken charges with hydrogens summed into heavy atoms:
               1
     1  C   -0.020244
     2  C   -0.010755
     3  C   -0.021928
     4  C    0.198753
     5  C   -0.149601
     6  C    0.048421
     7  C    0.159820
     8  C   -0.015093
     9  C   -0.012381
    11  C   -0.009624
    12  C    0.048992
    13  C   -0.117353
    19  C    0.268939
    20  C   -0.061366
    21  C    0.029381
    22  C    0.070698
    23  C   -0.017316
    29  N    0.011718
    31  S   -0.065251
    32  N   -0.335810
[...]
 Alpha virt. eigenvalues --    4.83849   4.85146   4.87938   4.91278   4.94486
 Alpha virt. eigenvalues --    4.96159   4.97705   4.99571   5.00734   5.03114
 Alpha virt. eigenvalues --    5.05216   5.08139   5.09907   5.15250   5.16764
 Alpha virt. eigenvalues --    5.18076   5.21233   5.23125   5.25070   5.25306
 Alpha virt. eigenvalues --    5.26655   5.28581   5.30793   5.33288   5.37487
 Alpha virt. eigenvalues --    5.39284   5.43233   5.46380   5.46718   5.49006
 Alpha virt. eigenvalues --    5.54029   5.56874   5.61417   5.68760   5.72219
 Alpha virt. eigenvalues --    5.74674   5.75830   5.85778   5.93986   5.95487
 Alpha virt. eigenvalues --    6.03900   6.10367   6.35793   8.96615   9.40631
 Alpha virt. eigenvalues --    9.57222  20.30850  22.05907  22.23445  22.34462
 Alpha virt. eigenvalues --   22.57997  22.60548  22.61442  22.65630  22.66138
 Alpha virt. eigenvalues --   22.68629  22.81187  22.81657  22.85748  22.90175
 Alpha virt. eigenvalues --   22.93421  23.21768  23.27003  23.30655  32.59062
 Alpha virt. eigenvalues --   33.19831
          Condensed to atoms (all electrons):
               1          2          3          4          5          6
     1  C    5.089941   0.313912   0.126889  -0.171299   0.094376   0.367633
     2  C    0.313912   5.377795   0.119702   0.118673  -0.204265   0.056865
     3  C    0.126889   0.119702   5.349087   0.232206   0.162318  -0.132088
     4  C   -0.171299   0.118673   0.232206   5.382838   0.179514   0.062747
     5  C    0.094376  -0.204265   0.162318   0.179514   5.413625   0.305357
     6  C    0.367633   0.056865  -0.132088   0.062747   0.305357   5.079622
     7  C    0.000189   0.000136  -0.001144  -0.104790   0.004228  -0.000605
     8  C   -0.001605   0.005727  -0.055023  -0.008322  -0.005065   0.000826
     9  C   -0.000502   0.005619   0.005820  -0.003364  -0.002994   0.000285
    10  H   -0.000014   0.000227   0.000312  -0.000014  -0.000043   0.000008
    11  C    0.000038  -0.000459  -0.001467   0.001252   0.000441  -0.000021
    12  C   -0.000017   0.000267   0.000746  -0.002913  -0.000527   0.000036
    13  C    0.000481  -0.003237  -0.003341   0.021721   0.011677  -0.000648
    14  H   -0.059629   0.463896  -0.089346   0.021850  -0.008000   0.014751
    15  H    0.010959  -0.003844   0.011063  -0.063179   0.450669  -0.046173
    16  H   -0.055779   0.012751  -0.004805   0.016579  -0.058124   0.444228
    17  H    0.000000  -0.000002   0.000007   0.000009   0.000001  -0.000000
    18  H   -0.000000   0.000001  -0.000002  -0.000033  -0.000006   0.000000
    19  C   -0.001983   0.005252  -0.018841  -0.105025  -0.021611   0.003240
    20  C    0.000109  -0.000599  -0.001602   0.020206   0.002294  -0.000169
    21  C    0.000003  -0.000013   0.000139   0.000142  -0.000007  -0.000034
    22  C    0.000071  -0.000111  -0.000315  -0.003157   0.003082  -0.000197
    23  C    0.000005  -0.000005  -0.000155   0.000576   0.000329  -0.000012
    24  H    0.000000  -0.000000  -0.000002   0.000054   0.000008  -0.000000
    25  H   -0.000021   0.000019  -0.000028   0.000234  -0.000528   0.000134
    26  H   -0.000003   0.000016   0.000067  -0.002739  -0.000248   0.000013
    27  H   -0.000000   0.000000  -0.000000  -0.000035  -0.000012   0.000001
    28  H    0.445317  -0.058719   0.014333  -0.004541   0.013099  -0.055372
    29  N   -0.004402   0.025970  -0.092768   0.277184  -0.086433   0.010570
    30  H    0.000001  -0.000009  -0.000008   0.001188   0.000118   0.000030
    31  S    0.013426  -0.073209   0.398762  -0.095579   0.025925  -0.004706
    32  N    0.001616  -0.002933   0.012719  -0.019061   0.034285  -0.008729
               7          8          9         10         11         12
     1  C    0.000189  -0.001605  -0.000502  -0.000014   0.000038  -0.000017
     2  C    0.000136   0.005727   0.005619   0.000227  -0.000459   0.000267
     3  C   -0.001144  -0.055023   0.005820   0.000312  -0.001467   0.000746
     4  C   -0.104790  -0.008322  -0.003364  -0.000014   0.001252  -0.002913
     5  C    0.004228  -0.005065  -0.002994  -0.000043   0.000441  -0.000527
     6  C   -0.000605   0.000826   0.000285   0.000008  -0.000021   0.000036
     7  C    5.473383   0.263462   0.094236   0.021853  -0.163352   0.028605
     8  C    0.263462   5.297527   0.164902  -0.086858   0.114750  -0.116205
     9  C    0.094236   0.164902   5.333067   0.460845   0.322563   0.048791
    10  H    0.021853  -0.086858   0.460845   0.510039  -0.059927   0.014703
    11  C   -0.163352   0.114750   0.322563  -0.059927   5.095749   0.363109
    12  C    0.028605  -0.116205   0.048791   0.014703   0.363109   5.085164
    13  C    0.191279   0.115295  -0.168969  -0.007468   0.079848   0.327508
    14  H    0.000135   0.000215   0.000224   0.000049  -0.000017   0.000009
    15  H    0.000114  -0.000124  -0.000000   0.000000  -0.000001   0.000014
    16  H    0.000003   0.000001   0.000001   0.000000  -0.000000   0.000000
    17  H   -0.004360   0.013824  -0.057958  -0.007389   0.445740  -0.055606
    18  H    0.016259  -0.004573   0.012652  -0.000136  -0.056578   0.444056
    19  C   -0.081333  -0.026069   0.006195   0.000087  -0.002209   0.001410
    20  C   -0.030695   0.007412  -0.001425  -0.000031   0.000617  -0.000674
    21  C   -0.004875  -0.000507  -0.000182  -0.000002   0.000154  -0.000216
    22  C   -0.001298  -0.000188  -0.000005   0.000000   0.000002  -0.000005
    23  C   -0.000183   0.000061   0.000010  -0.000000  -0.000004   0.000019
    24  H    0.000054  -0.000010  -0.000001   0.000000   0.000001   0.000004
    25  H    0.000070   0.000004   0.000000  -0.000000  -0.000000   0.000000
    26  H    0.005652   0.001391   0.001132   0.000009  -0.001006   0.002829
    27  H    0.000010   0.000001   0.000000   0.000000  -0.000000   0.000000
    28  H    0.000001   0.000009  -0.000003  -0.000000   0.000000  -0.000000
    29  N    0.266255  -0.078819   0.017413  -0.000187  -0.001059   0.006146
    30  H   -0.061059   0.011847  -0.003322   0.000037   0.010869  -0.044811
    31  S   -0.111691   0.411139  -0.071737   0.003944   0.012286  -0.004227
    32  N    0.005367  -0.000741  -0.000001  -0.000000   0.000000  -0.000091
              13         14         15         16         17         18
     1  C    0.000481  -0.059629   0.010959  -0.055779   0.000000  -0.000000
     2  C   -0.003237   0.463896  -0.003844   0.012751  -0.000002   0.000001
     3  C   -0.003341  -0.089346   0.011063  -0.004805   0.000007  -0.000002
     4  C    0.021721   0.021850  -0.063179   0.016579   0.000009  -0.000033
     5  C    0.011677  -0.008000   0.450669  -0.058124   0.000001  -0.000006
     6  C   -0.000648   0.014751  -0.046173   0.444228  -0.000000   0.000000
     7  C    0.191279   0.000135   0.000114   0.000003  -0.004360   0.016259
     8  C    0.115295   0.000215  -0.000124   0.000001   0.013824  -0.004573
     9  C   -0.168969   0.000224  -0.000000   0.000001  -0.057958   0.012652
    10  H   -0.007468   0.000049   0.000000   0.000000  -0.007389  -0.000136
    11  C    0.079848  -0.000017  -0.000001  -0.000000   0.445740  -0.056578
    12  C    0.327508   0.000009   0.000014   0.000000  -0.055606   0.444056
    13  C    5.359838  -0.000049   0.000181  -0.000007   0.012926  -0.056643
    14  H   -0.000049   0.511172   0.000028  -0.000147  -0.000000   0.000000
    15  H    0.000181   0.000028   0.499218  -0.007217  -0.000000  -0.000000
    16  H   -0.000007  -0.000147  -0.007217   0.507858   0.000000   0.000000
    17  H    0.012926  -0.000000  -0.000000   0.000000   0.506569  -0.006372
    18  H   -0.056643   0.000000  -0.000000   0.000000  -0.006372   0.505546
    19  C   -0.008715   0.000071  -0.001967   0.000053   0.000000   0.000122
    20  C    0.006288  -0.000007  -0.000528  -0.000002   0.000007  -0.000048
    21  C    0.005832  -0.000000   0.000161  -0.000000   0.000000  -0.000010
    22  C    0.000035  -0.000000   0.001177  -0.000014   0.000000   0.000000
    23  C   -0.000344  -0.000000  -0.000007  -0.000000  -0.000000  -0.000000
    24  H    0.000063  -0.000000   0.000002  -0.000000   0.000000  -0.000000
    25  H   -0.000011   0.000000  -0.000225   0.000005   0.000000   0.000000
    26  H   -0.017284   0.000000  -0.000052   0.000000  -0.000014   0.000108
    27  H   -0.000001   0.000000  -0.000010   0.000000  -0.000000   0.000000
    28  H    0.000001  -0.007369  -0.000120  -0.006359   0.000000   0.000000
    29  N   -0.041179  -0.000065  -0.002708  -0.000099   0.000030  -0.000252
    30  H    0.447424   0.000000   0.000083  -0.000001  -0.000116  -0.007061
    31  S    0.025657   0.003217  -0.000282   0.000021  -0.000358   0.000019
    32  N   -0.001356  -0.000009   0.014966  -0.000198   0.000000   0.000001
              19         20         21         22         23         24
     1  C   -0.001983   0.000109   0.000003   0.000071   0.000005   0.000000
     2  C    0.005252  -0.000599  -0.000013  -0.000111  -0.000005  -0.000000
     3  C   -0.018841  -0.001602   0.000139  -0.000315  -0.000155  -0.000002
     4  C   -0.105025   0.020206   0.000142  -0.003157   0.000576   0.000054
     5  C   -0.021611   0.002294  -0.000007   0.003082   0.000329   0.000008
     6  C    0.003240  -0.000169  -0.000034  -0.000197  -0.000012  -0.000000
     7  C   -0.081333  -0.030695  -0.004875  -0.001298  -0.000183   0.000054
     8  C   -0.026069   0.007412  -0.000507  -0.000188   0.000061  -0.000010
     9  C    0.006195  -0.001425  -0.000182  -0.000005   0.000010  -0.000001
    10  H    0.000087  -0.000031  -0.000002   0.000000  -0.000000   0.000000
    11  C   -0.002209   0.000617   0.000154   0.000002  -0.000004   0.000001
    12  C    0.001410  -0.000674  -0.000216  -0.000005   0.000019   0.000004
    13  C   -0.008715   0.006288   0.005832   0.000035  -0.000344   0.000063
    14  H    0.000071  -0.000007  -0.000000  -0.000000  -0.000000  -0.000000
    15  H   -0.001967  -0.000528   0.000161   0.001177  -0.000007   0.000002
    16  H    0.000053  -0.000002  -0.000000  -0.000014  -0.000000  -0.000000
    17  H    0.000000   0.000007   0.000000   0.000000  -0.000000   0.000000
    18  H    0.000122  -0.000048  -0.000010   0.000000  -0.000000  -0.000000
    19  C    4.816532   0.463664  -0.037959  -0.097592  -0.037273   0.008387
    20  C    0.463664   5.094309   0.481897  -0.033846  -0.040188  -0.045427
    21  C   -0.037959   0.481897   4.954888  -0.033125   0.458316   0.433264
    22  C   -0.097592  -0.033846  -0.033125   4.803249   0.491670   0.005846
    23  C   -0.037273  -0.040188   0.458316   0.491670   5.065838  -0.044382
    24  H    0.008387  -0.045427   0.433264   0.005846  -0.044382   0.497479
    25  H    0.004960  -0.000288   0.003662   0.431207  -0.068383  -0.000282
    26  H   -0.040634   0.428659  -0.045452  -0.001909   0.010056  -0.006582
    27  H   -0.002373   0.010076  -0.054286  -0.029309   0.415917  -0.005902
    28  H    0.000008   0.000001  -0.000000   0.000000   0.000000   0.000000
    29  N    0.464756  -0.070185   0.000735   0.001236   0.001064  -0.000132
    30  H   -0.002145  -0.001940   0.000432   0.000028   0.000017   0.000017
    31  S    0.002369   0.003824   0.000112   0.000139   0.000028  -0.000003
    32  N    0.430905  -0.041210  -0.037659   0.540196  -0.074880  -0.001190
              25         26         27         28         29         30
     1  C   -0.000021  -0.000003  -0.000000   0.445317  -0.004402   0.000001
     2  C    0.000019   0.000016   0.000000  -0.058719   0.025970  -0.000009
     3  C   -0.000028   0.000067  -0.000000   0.014333  -0.092768  -0.000008
     4  C    0.000234  -0.002739  -0.000035  -0.004541   0.277184   0.001188
     5  C   -0.000528  -0.000248  -0.000012   0.013099  -0.086433   0.000118
     6  C    0.000134   0.000013   0.000001  -0.055372   0.010570   0.000030
     7  C    0.000070   0.005652   0.000010   0.000001   0.266255  -0.061059
     8  C    0.000004   0.001391   0.000001   0.000009  -0.078819   0.011847
     9  C    0.000000   0.001132   0.000000  -0.000003   0.017413  -0.003322
    10  H   -0.000000   0.000009   0.000000  -0.000000  -0.000187   0.000037
    11  C   -0.000000  -0.001006  -0.000000   0.000000  -0.001059   0.010869
    12  C    0.000000   0.002829   0.000000  -0.000000   0.006146  -0.044811
    13  C   -0.000011  -0.017284  -0.000001   0.000001  -0.041179   0.447424
    14  H    0.000000   0.000000   0.000000  -0.007369  -0.000065   0.000000
    15  H   -0.000225  -0.000052  -0.000010  -0.000120  -0.002708   0.000083
    16  H    0.000005   0.000000   0.000000  -0.006359  -0.000099  -0.000001
    17  H    0.000000  -0.000014  -0.000000   0.000000   0.000030  -0.000116
    18  H    0.000000   0.000108   0.000000   0.000000  -0.000252  -0.007061
    19  C    0.004960  -0.040634  -0.002373   0.000008   0.464756  -0.002145
    20  C   -0.000288   0.428659   0.010076   0.000001  -0.070185  -0.001940
    21  C    0.003662  -0.045452  -0.054286  -0.000000   0.000735   0.000432
    22  C    0.431207  -0.001909  -0.029309   0.000000   0.001236   0.000028
    23  C   -0.068383   0.010056   0.415917   0.000000   0.001064   0.000017
    24  H   -0.000282  -0.006582  -0.005902   0.000000  -0.000132   0.000017
    25  H    0.519484   0.000132  -0.000686  -0.000000   0.000174  -0.000002
    26  H    0.000132   0.491708   0.000116   0.000000  -0.005115  -0.002259
    27  H   -0.000686   0.000116   0.506859  -0.000000   0.000063  -0.000001
    28  H   -0.000000   0.000000  -0.000000   0.508538   0.000014  -0.000000
    29  N    0.000174  -0.005115   0.000063   0.000014   6.430895   0.003698
    30  H   -0.000002  -0.002259  -0.000001  -0.000000   0.003698   0.489175
    31  S    0.000002  -0.000048  -0.000000  -0.000355  -0.004740  -0.000273
    32  N   -0.036219   0.005358   0.007469   0.000002  -0.117494  -0.000352
              31         32
     1  C    0.013426   0.001616
     2  C   -0.073209  -0.002933
     3  C    0.398762   0.012719
     4  C   -0.095579  -0.019061
     5  C    0.025925   0.034285
     6  C   -0.004706  -0.008729
     7  C   -0.111691   0.005367
     8  C    0.411139  -0.000741
     9  C   -0.071737  -0.000001
    10  H    0.003944  -0.000000
    11  C    0.012286   0.000000
    12  C   -0.004227  -0.000091
    13  C    0.025657  -0.001356
    14  H    0.003217  -0.000009
    15  H   -0.000282   0.014966
    16  H    0.000021  -0.000198
    17  H   -0.000358   0.000000
    18  H    0.000019   0.000001
    19  C    0.002369   0.430905
    20  C    0.003824  -0.041210
    21  C    0.000112  -0.037659
    22  C    0.000139   0.540196
    23  C    0.000028  -0.074880
    24  H   -0.000003  -0.001190
    25  H    0.000002  -0.036219
    26  H   -0.000048   0.005358
    27  H   -0.000000   0.007469
    28  H   -0.000355   0.000002
    29  N   -0.004740  -0.117494
    30  H   -0.000273  -0.000352
    31  S   15.532289  -0.001207
    32  N   -0.001207   6.633352
 Mulliken charges:
               1
     1  C   -0.169713
     2  C   -0.159424
     3  C   -0.033236
     4  C    0.247077
     5  C   -0.313482
     6  C   -0.097592
     7  C    0.194092
     8  C   -0.024286
     9  C   -0.163292
    10  H    0.149955
    11  C   -0.161316
    12  C   -0.098123
    13  C   -0.296800
    14  H    0.149020
    15  H    0.137801
    16  H    0.151252
    17  H    0.153061
    18  H    0.152949
    19  C    0.277719
    20  C   -0.250501
    21  C   -0.125411
    22  C   -0.076866
    23  C   -0.178090
    24  H    0.158731
    25  H    0.146586
    26  H    0.176100
    27  H    0.152102
    28  H    0.151513
    29  N   -0.000569
    30  H    0.158394
    31  S   -0.064745
    32  N   -0.342907
 Sum of Mulliken charges =  -0.00000
 Mulliken charges with hydrogens summed into heavy atoms:
               1
     1  C   -0.018200
     2  C   -0.010404
     3  C   -0.033236
     4  C    0.247077
     5  C   -0.175681
     6  C    0.053660
     7  C    0.194092
     8  C   -0.024286
     9  C   -0.013337
    11  C   -0.008256
    12  C    0.054826
    13  C   -0.138407
    19  C    0.277719
    20  C   -0.074401
    21  C    0.033320
    22  C    0.069720
    23  C   -0.025988
    29  N   -0.000569
    31  S   -0.064745
    32  N   -0.342907
 Electronic spatial extent (au):  <R**2>=           5216.2126
 Charge=             -0.0000 electrons
 Dipole moment (field-independent basis, Debye):
    X=             -0.3674    Y=             -2.5808    Z=              1.3233  Tot=              2.9235
 Quadrupole moment (field-independent basis, Debye-Ang):
   XX=           -109.8778   YY=           -103.9819   ZZ=           -122.9700
   XY=              3.1143   XZ=             -1.3589   YZ=              0.0209
 Traceless Quadrupole moment (field-independent basis, Debye-Ang):
   XX=              2.3988   YY=              8.2947   ZZ=            -10.6934
   XY=              3.1143   XZ=             -1.3589   YZ=              0.0209
 Octapole moment (field-independent basis, Debye-Ang**2):
  XXX=            -51.1087  YYY=             -7.3787  ZZZ=             11.0263  XYY=             29.2259
  XXY=            -12.3869  XXZ=            -27.3819  XZZ=             -2.2585  YZZ=             -1.3737
  YYZ=             22.1399  XYZ=             -5.3280
 Hexadecapole moment (field-independent basis, Debye-Ang**3):
 XXXX=          -3105.2210 YYYY=          -2841.1012 ZZZZ=           -721.2382 XXXY=             -9.3465
 XXXZ=             41.6110 YYYX=             16.4556 YYYZ=             -1.0593 ZZZX=            -32.7848
 ZZZY=             -5.2192 XXYY=           -943.2645 XXZZ=           -721.0284 YYZZ=           -602.3642
 XXYZ=             11.3157 YYXZ=             -5.2817 ZZXY=             -3.3609
 N-N= 1.575021714066D+03 E-N=-5.873992766327D+03  KE= 1.158539584910D+03
 Leave Link  601 at Tue Feb 16 04:33:49 2021, MaxMem=  5242880000 cpu:         2.8
 (Enter /opt/nce/packages/global/g09/l9999.exe)
 1\1\GINC-CN020\SP\RB3LYP TD-FC\Gen\C17H12N2S1\PNG4RJV\16-Feb-2021\0\\#
 p b3lyp chkbasis geom=allcheck Guess=Read int=ultrafine scrf=(SMD,solv
 ent=n,n-DiMethylAcetamide) td=(NStates=30) EmpiricalDispersion=GD3BJ\\
 Title\\0,1\C,0,-1.9328560998,3.5463046771,-0.3619081125\C,0,-2.2658185
 642,2.495025353,0.4808309741\C,0,-1.4995494791,1.3315307233,0.46880609
 27\C,0,-0.4059366178,1.2140547246,-0.3923239309\C,0,-0.1098482382,2.25
 41540325,-1.2683779585\C,0,-0.8618091675,3.4208762411,-1.2428545614\C,
 0,-0.4092492948,-1.1965057227,-0.4252642834\C,0,-1.4974550949,-1.34939
 13175,0.4368855602\C,0,-2.2516402902,-2.5201451345,0.4150719929\H,0,-3
 .1001638219,-2.626197736,1.0786977433\C,0,-1.9125533193,-3.5415379425,
 -0.4620884488\C,0,-0.8484371215,-3.3791894391,-1.3451052335\C,0,-0.110
 1839898,-2.2034163067,-1.3383328799\H,0,-3.1185338504,2.5707474711,1.1
 432918237\H,0,0.7185548706,2.1481401303,-1.953175822\H,0,-0.6149226644
 ,4.2309119348,-1.916791032\H,0,-2.4936724386,-4.4545014938,-0.47092517
 9\H,0,-0.5989390331,-4.1643471188,-2.0467227127\C,0,1.6976567059,-0.00
 11654541,-0.0000562796\C,0,2.3654047333,-1.1986180414,0.3180826876\C,0
 ,3.6960206421,-1.1342897259,0.6795625218\C,0,3.6001325715,1.2202775467
 ,0.4133257499\C,0,4.3458987172,0.0980603306,0.7260224783\H,0,4.2242127
 856,-2.0451379097,0.9325585161\H,0,4.0492697162,2.2075326282,0.4469710
 408\H,0,1.8525468616,-2.1466725447,0.2977562327\H,0,5.3875932449,0.183
 0980471,1.0022241685\H,0,-2.5227834834,4.4536001779,-0.3459680323\N,0,
 0.3501533976,0.0058213894,-0.3698031517\H,0,0.7133934986,-2.065503645,
 -2.0261177825\S,0,-1.9088234167,-0.0234939166,1.5384137229\N,0,2.31290
 02402,1.1803660411,0.0592530953\\Version=ES64L-G09RevE.01\State=1-A\HF
 =-1163.1371772\RMSD=5.464e-09\PG=C01 [X(C17H12N2S1)]\\@


 IF NO USE IS MADE OF THE LABOR OF PAST AGES,
 THE WORLD MUST REMAIN ALWAYS IN THE INFANCY OF KNOWLEDGE.

                          -- CICERO
 Job cpu time:       0 days 15 hours  3 minutes 17.0 seconds.
 File lengths (MBytes):  RWF=   2415 Int=      0 D2E=      0 Chk=    437 Scr=      1
 Normal termination of Gaussian 09 at Tue Feb 16 04:33:50 2021.
