 Entering Gaussian System, Link 0=g09
 Input=/home/png4rjv/fotokatalizis/benchmark/OPCs/PTZ_2_PBE-D3_def2TZVP.gjf
 Output=/home/png4rjv/fotokatalizis/benchmark/OPCs/PTZ_2_PBE-D3_def2TZVP.log
 Initial command:
 /opt/nce/packages/global/g09/l1.exe "/home/png4rjv/fotokatalizis/benchmark/OPCs/PTZ_2_PBE-D3_def2TZVP/Gau-45565.inp" -scrdir="/home/png4rjv/fotokatalizis/benchmark/OPCs/PTZ_2_PBE-D3_def2TZVP/"
 Default is to use a total of  12 processors:
                               12 via shared-memory
                                1 via Linda
 Entering Link 1 = /opt/nce/packages/global/g09/l1.exe PID=     45566.
  
 Copyright (c) 1988,1990,1992,1993,1995,1998,2003,2009,2015,
            Gaussian, Inc.  All Rights Reserved.
  
 This is part of the Gaussian(R) 09 program.  It is based on
 the Gaussian(R) 03 system (copyright 2003, Gaussian, Inc.),
 the Gaussian(R) 98 system (copyright 1998, Gaussian, Inc.),
 the Gaussian(R) 94 system (copyright 1995, Gaussian, Inc.),
 the Gaussian 92(TM) system (copyright 1992, Gaussian, Inc.),
 the Gaussian 90(TM) system (copyright 1990, Gaussian, Inc.),
 the Gaussian 88(TM) system (copyright 1988, Gaussian, Inc.),
 the Gaussian 86(TM) system (copyright 1986, Carnegie Mellon
 University), and the Gaussian 82(TM) system (copyright 1983,
 Carnegie Mellon University). Gaussian is a federally registered
 trademark of Gaussian, Inc.
  
 This software contains proprietary and confidential information,
 including trade secrets, belonging to Gaussian, Inc.
  
 This software is provided under written license and may be
 used, copied, transmitted, or stored only in accord with that
 written license.
  
 The following legend is applicable only to US Government
 contracts under FAR:
  
                    RESTRICTED RIGHTS LEGEND
  
 Use, reproduction and disclosure by the US Government is
 subject to restrictions as set forth in subparagraphs (a)
 and (c) of the Commercial Computer Software - Restricted
 Rights clause in FAR 52.227-19.
  
 Gaussian, Inc.
 340 Quinnipiac St., Bldg. 40, Wallingford CT 06492
  
  
 ---------------------------------------------------------------
 Warning -- This program may not be used in any manner that
 competes with the business of Gaussian, Inc. or will provide
 assistance to any competitor of Gaussian, Inc.  The licensee
 of this program is prohibited from giving any competitor of
 Gaussian, Inc. access to this program.  By using this program,
 the user acknowledges that Gaussian, Inc. is engaged in the
 business of creating and licensing software in the field of
 computational chemistry and represents and warrants to the
 licensee that it is not a competitor of Gaussian, Inc. and that
 it will not use this program in any manner prohibited above.
 ---------------------------------------------------------------
  

 Cite this work as:
 Gaussian 09, Revision E.01,
 M. J. Frisch, G. W. Trucks, H. B. Schlegel, G. E. Scuseria, 
 M. A. Robb, J. R. Cheeseman, G. Scalmani, V. Barone, B. Mennucci, 
 G. A. Petersson, H. Nakatsuji, M. Caricato, X. Li, H. P. Hratchian, 
 A. F. Izmaylov, J. Bloino, G. Zheng, J. L. Sonnenberg, M. Hada, 
 M. Ehara, K. Toyota, R. Fukuda, J. Hasegawa, M. Ishida, T. Nakajima, 
 Y. Honda, O. Kitao, H. Nakai, T. Vreven, J. A. Montgomery, Jr., 
 J. E. Peralta, F. Ogliaro, M. Bearpark, J. J. Heyd, E. Brothers, 
 K. N. Kudin, V. N. Staroverov, T. Keith, R. Kobayashi, J. Normand, 
 K. Raghavachari, A. Rendell, J. C. Burant, S. S. Iyengar, J. Tomasi, 
 M. Cossi, N. Rega, J. M. Millam, M. Klene, J. E. Knox, J. B. Cross, 
 V. Bakken, C. Adamo, J. Jaramillo, R. Gomperts, R. E. Stratmann, 
 O. Yazyev, A. J. Austin, R. Cammi, C. Pomelli, J. W. Ochterski, 
 R. L. Martin, K. Morokuma, V. G. Zakrzewski, G. A. Voth, 
 P. Salvador, J. J. Dannenberg, S. Dapprich, A. D. Daniels, 
 O. Farkas, J. B. Foresman, J. V. Ortiz, J. Cioslowski, 
 and D. J. Fox, Gaussian, Inc., Wallingford CT, 2013.
 
 ******************************************
 Gaussian 09:  ES64L-G09RevE.01 30-Nov-2015
                27-Mar-2021 
 ******************************************
 %chk=cp.chk
 Default route:  MaxDisk=500GB
 ----------------------------------------------------------------------
 #p PBEPBE/def2TZVP opt freq=noraman nosymm int=ultrafine scrf=(SMD,sol
 vent=n,n-DiMethylAcetamide) EmpiricalDispersion=GD3BJ
 ----------------------------------------------------------------------
 1/14=-1,18=20,19=15,26=4,38=1/1,3;
 2/9=110,12=2,15=1,17=6,18=5,40=1/2;
 3/5=44,7=101,11=2,16=1,25=1,30=1,70=32201,71=1,72=147,74=1009,75=-5,124=41/1,2,3;
 4//1;
 5/5=2,38=5,53=147/2;
 6/7=2,8=2,9=2,10=2,28=1/1;
 7/30=1/1,2,3,16;
 1/14=-1,18=20,19=15,26=4/3(2);
 2/9=110,15=1/2;
 99//99;
 2/9=110,15=1/2;
 3/5=44,7=101,11=2,16=1,25=1,30=1,70=32205,71=1,72=147,74=1009,75=-5,124=41/1,2,3;
 4/5=5,16=3,69=1/1;
 5/5=2,38=5,53=147/2;
 7/30=1/1,2,3,16;
 1/14=-1,18=20,19=15,26=4/3(-5);
 2/9=110,15=1/2;
 6/7=2,8=2,9=2,10=2,19=2,28=1/1;
 99/9=1/99;
 Leave Link    1 at Sat Mar 27 20:22:21 2021, MaxMem=           0 cpu:         1.7
 (Enter /opt/nce/packages/global/g09/l101.exe)
 -----
 Title
 -----
 Symbolic Z-matrix:
 Charge =  0 Multiplicity = 1
 C                    -1.96983   3.5769   -0.31917 
 C                    -2.35017   2.49065   0.46963 
 C                    -1.57707   1.32453   0.46712 
 C                    -0.42654   1.23187  -0.33713 
 C                    -0.07864   2.31188  -1.15811 
 C                    -0.83901   3.48215  -1.13547 
 C                    -0.4181   -1.19096  -0.39704 
 C                    -1.56109  -1.36184   0.40242 
 C                    -2.29929  -2.54958   0.33255 
 H                    -3.19273  -2.66168   0.95051 
 C                    -1.89264  -3.57349  -0.5237 
 C                    -0.77064  -3.39741  -1.34136 
 C                    -0.04988  -2.20414  -1.29236 
 H                    -3.24813   2.53722   1.08943 
 H                     0.8052    2.23246  -1.78603 
 H                    -0.54733   4.32397  -1.76741 
 H                    -2.4645   -4.50301  -0.56723 
 H                    -0.46409  -4.18699  -2.03088 
 C                     1.69499  -0.00085  -0.00283 
 C                     2.31494  -1.17271   0.49248 
 C                     3.67153  -1.12759   0.78515 
 C                     3.67484   1.16474   0.12689 
 C                     4.38526   0.06283   0.59813 
 H                     4.16948  -2.0191    1.17483 
 H                     4.17957   2.12618  -0.0249 
 H                     1.7399   -2.08139   0.66147 
 H                     5.45154   0.13442   0.81827 
 H                    -2.56744   4.49121  -0.30784 
 N                     0.32399   0.01796  -0.30451 
 H                     0.82065  -2.05149  -1.93283 
 S                    -2.03918  -0.05054   1.50312 
 N                     2.37499   1.1342   -0.17127 
 
 NAtoms=     32 NQM=       32 NQMF=       0 NMMI=      0 NMMIF=      0
                NMic=       0 NMicF=      0.
                    Isotopes and Nuclear Properties:
 (Nuclear quadrupole moments (NQMom) in fm**2, nuclear magnetic moments (NMagM)
  in nuclear magnetons)

  Atom         1           2           3           4           5           6           7           8           9          10
 IAtWgt=          12          12          12          12          12          12          12          12          12           1
 AtmWgt=  12.0000000  12.0000000  12.0000000  12.0000000  12.0000000  12.0000000  12.0000000  12.0000000  12.0000000   1.0078250
 NucSpn=           0           0           0           0           0           0           0           0           0           1
 AtZEff=   0.0000000   0.0000000   0.0000000   0.0000000   0.0000000   0.0000000   0.0000000   0.0000000   0.0000000   0.0000000
 NQMom=    0.0000000   0.0000000   0.0000000   0.0000000   0.0000000   0.0000000   0.0000000   0.0000000   0.0000000   0.0000000
 NMagM=    0.0000000   0.0000000   0.0000000   0.0000000   0.0000000   0.0000000   0.0000000   0.0000000   0.0000000   2.7928460
 AtZNuc=   6.0000000   6.0000000   6.0000000   6.0000000   6.0000000   6.0000000   6.0000000   6.0000000   6.0000000   1.0000000

  Atom        11          12          13          14          15          16          17          18          19          20
 IAtWgt=          12          12          12           1           1           1           1           1          12          12
 AtmWgt=  12.0000000  12.0000000  12.0000000   1.0078250   1.0078250   1.0078250   1.0078250   1.0078250  12.0000000  12.0000000
 NucSpn=           0           0           0           1           1           1           1           1           0           0
 AtZEff=   0.0000000   0.0000000   0.0000000   0.0000000   0.0000000   0.0000000   0.0000000   0.0000000   0.0000000   0.0000000
 NQMom=    0.0000000   0.0000000   0.0000000   0.0000000   0.0000000   0.0000000   0.0000000   0.0000000   0.0000000   0.0000000
 NMagM=    0.0000000   0.0000000   0.0000000   2.7928460   2.7928460   2.7928460   2.7928460   2.7928460   0.0000000   0.0000000
 AtZNuc=   6.0000000   6.0000000   6.0000000   1.0000000   1.0000000   1.0000000   1.0000000   1.0000000   6.0000000   6.0000000

  Atom        21          22          23          24          25          26          27          28          29          30
 IAtWgt=          12          12          12           1           1           1           1           1          14           1
 AtmWgt=  12.0000000  12.0000000  12.0000000   1.0078250   1.0078250   1.0078250   1.0078250   1.0078250  14.0030740   1.0078250
 NucSpn=           0           0           0           1           1           1           1           1           2           1
 AtZEff=   0.0000000   0.0000000   0.0000000   0.0000000   0.0000000   0.0000000   0.0000000   0.0000000   0.0000000   0.0000000
 NQMom=    0.0000000   0.0000000   0.0000000   0.0000000   0.0000000   0.0000000   0.0000000   0.0000000   2.0440000   0.0000000
 NMagM=    0.0000000   0.0000000   0.0000000   2.7928460   2.7928460   2.7928460   2.7928460   2.7928460   0.4037610   2.7928460
 AtZNuc=   6.0000000   6.0000000   6.0000000   1.0000000   1.0000000   1.0000000   1.0000000   1.0000000   7.0000000   1.0000000

  Atom        31          32
 IAtWgt=          32          14
 AtmWgt=  31.9720718  14.0030740
 NucSpn=           0           2
 AtZEff=   0.0000000   0.0000000
 NQMom=    0.0000000   2.0440000
 NMagM=    0.0000000   0.4037610
 AtZNuc=  16.0000000   7.0000000
 Leave Link  101 at Sat Mar 27 20:22:22 2021, MaxMem=  5242880000 cpu:         5.6
 (Enter /opt/nce/packages/global/g09/l103.exe)

 GradGradGradGradGradGradGradGradGradGradGradGradGradGradGradGradGradGrad
 Berny optimization.
 Initialization pass.
                           ----------------------------
                           !    Initial Parameters    !
                           ! (Angstroms and Degrees)  !
 --------------------------                            --------------------------
 ! Name  Definition              Value          Derivative Info.                !
 --------------------------------------------------------------------------------
 ! R1    R(1,2)                  1.3953         estimate D2E/DX2                !
 ! R2    R(1,6)                  1.3979         estimate D2E/DX2                !
 ! R3    R(1,28)                 1.0923         estimate D2E/DX2                !
 ! R4    R(2,3)                  1.3991         estimate D2E/DX2                !
 ! R5    R(2,14)                 1.0921         estimate D2E/DX2                !
 ! R6    R(3,4)                  1.4068         estimate D2E/DX2                !
 ! R7    R(3,31)                 1.7826         estimate D2E/DX2                !
 ! R8    R(4,5)                  1.4005         estimate D2E/DX2                !
 ! R9    R(4,29)                 1.4276         estimate D2E/DX2                !
 ! R10   R(5,6)                  1.3958         estimate D2E/DX2                !
 ! R11   R(5,15)                 1.0871         estimate D2E/DX2                !
 ! R12   R(6,16)                 1.0923         estimate D2E/DX2                !
 ! R13   R(7,8)                  1.4053         estimate D2E/DX2                !
 ! R14   R(7,13)                 1.4013         estimate D2E/DX2                !
 ! R15   R(7,29)                 1.4215         estimate D2E/DX2                !
 ! R16   R(8,9)                  1.4002         estimate D2E/DX2                !
 ! R17   R(8,31)                 1.7775         estimate D2E/DX2                !
 ! R18   R(9,10)                 1.0921         estimate D2E/DX2                !
 ! R19   R(9,11)                 1.3953         estimate D2E/DX2                !
 ! R20   R(11,12)                1.3994         estimate D2E/DX2                !
 ! R21   R(11,17)                1.0922         estimate D2E/DX2                !
 ! R22   R(12,13)                1.3949         estimate D2E/DX2                !
 ! R23   R(12,18)                1.0922         estimate D2E/DX2                !
 ! R24   R(13,30)                1.0915         estimate D2E/DX2                !
 ! R25   R(19,20)                1.4152         estimate D2E/DX2                !
 ! R26   R(19,29)                1.4039         estimate D2E/DX2                !
 ! R27   R(19,32)                1.3338         estimate D2E/DX2                !
 ! R28   R(20,21)                1.3885         estimate D2E/DX2                !
 ! R29   R(20,26)                1.0885         estimate D2E/DX2                !
 ! R30   R(21,23)                1.4005         estimate D2E/DX2                !
 ! R31   R(21,24)                1.093          estimate D2E/DX2                !
 ! R32   R(22,23)                1.3932         estimate D2E/DX2                !
 ! R33   R(22,25)                1.0964         estimate D2E/DX2                !
 ! R34   R(22,32)                1.334          estimate D2E/DX2                !
 ! R35   R(23,27)                1.0911         estimate D2E/DX2                !
 ! A1    A(2,1,6)              119.8594         estimate D2E/DX2                !
 ! A2    A(2,1,28)             119.7773         estimate D2E/DX2                !
 ! A3    A(6,1,28)             120.3553         estimate D2E/DX2                !
 ! A4    A(1,2,3)              119.8168         estimate D2E/DX2                !
 ! A5    A(1,2,14)             120.7825         estimate D2E/DX2                !
 ! A6    A(3,2,14)             119.4006         estimate D2E/DX2                !
 ! A7    A(2,3,4)              120.5191         estimate D2E/DX2                !
 ! A8    A(2,3,31)             119.9097         estimate D2E/DX2                !
 ! A9    A(4,3,31)             119.5676         estimate D2E/DX2                !
 ! A10   A(3,4,5)              119.1753         estimate D2E/DX2                !
 ! A11   A(3,4,29)             118.2232         estimate D2E/DX2                !
 ! A12   A(5,4,29)             122.5837         estimate D2E/DX2                !
 ! A13   A(4,5,6)              120.1142         estimate D2E/DX2                !
 ! A14   A(4,5,15)             118.9618         estimate D2E/DX2                !
 ! A15   A(6,5,15)             120.8991         estimate D2E/DX2                !
 ! A16   A(1,6,5)              120.4634         estimate D2E/DX2                !
 ! A17   A(1,6,16)             120.1077         estimate D2E/DX2                !
 ! A18   A(5,6,16)             119.4276         estimate D2E/DX2                !
 ! A19   A(8,7,13)             119.2935         estimate D2E/DX2                !
 ! A20   A(8,7,29)             119.4055         estimate D2E/DX2                !
 ! A21   A(13,7,29)            121.2847         estimate D2E/DX2                !
 ! A22   A(7,8,9)              120.2369         estimate D2E/DX2                !
 ! A23   A(7,8,31)             118.7731         estimate D2E/DX2                !
 ! A24   A(9,8,31)             120.989          estimate D2E/DX2                !
 ! A25   A(8,9,10)             119.35           estimate D2E/DX2                !
 ! A26   A(8,9,11)             119.9632         estimate D2E/DX2                !
 ! A27   A(10,9,11)            120.6866         estimate D2E/DX2                !
 ! A28   A(9,11,12)            119.992          estimate D2E/DX2                !
 ! A29   A(9,11,17)            119.7603         estimate D2E/DX2                !
 ! A30   A(12,11,17)           120.2364         estimate D2E/DX2                !
 ! A31   A(11,12,13)           120.0908         estimate D2E/DX2                !
 ! A32   A(11,12,18)           120.1951         estimate D2E/DX2                !
 ! A33   A(13,12,18)           119.708          estimate D2E/DX2                !
 ! A34   A(7,13,12)            120.3425         estimate D2E/DX2                !
 ! A35   A(7,13,30)            118.9049         estimate D2E/DX2                !
 ! A36   A(12,13,30)           120.7398         estimate D2E/DX2                !
 ! A37   A(20,19,29)           120.9353         estimate D2E/DX2                !
 ! A38   A(20,19,32)           121.7022         estimate D2E/DX2                !
 ! A39   A(29,19,32)           117.3429         estimate D2E/DX2                !
 ! A40   A(19,20,21)           118.3483         estimate D2E/DX2                !
 ! A41   A(19,20,26)           120.9395         estimate D2E/DX2                !
 ! A42   A(21,20,26)           120.6984         estimate D2E/DX2                !
 ! A43   A(20,21,23)           119.8252         estimate D2E/DX2                !
 ! A44   A(20,21,24)           119.5877         estimate D2E/DX2                !
 ! A45   A(23,21,24)           120.5802         estimate D2E/DX2                !
 ! A46   A(23,22,25)           120.3741         estimate D2E/DX2                !
 ! A47   A(23,22,32)           123.6678         estimate D2E/DX2                !
 ! A48   A(25,22,32)           115.9573         estimate D2E/DX2                !
 ! A49   A(21,23,22)           117.2313         estimate D2E/DX2                !
 ! A50   A(21,23,27)           121.7918         estimate D2E/DX2                !
 ! A51   A(22,23,27)           120.9748         estimate D2E/DX2                !
 ! A52   A(4,29,7)             116.5651         estimate D2E/DX2                !
 ! A53   A(4,29,19)            121.9861         estimate D2E/DX2                !
 ! A54   A(7,29,19)            120.823          estimate D2E/DX2                !
 ! A55   A(3,31,8)              98.0164         estimate D2E/DX2                !
 ! A56   A(19,32,22)           119.2112         estimate D2E/DX2                !
 ! D1    D(6,1,2,3)              1.7307         estimate D2E/DX2                !
 ! D2    D(6,1,2,14)          -178.1007         estimate D2E/DX2                !
 ! D3    D(28,1,2,3)          -179.29           estimate D2E/DX2                !
 ! D4    D(28,1,2,14)            0.8786         estimate D2E/DX2                !
 ! D5    D(2,1,6,5)             -0.6166         estimate D2E/DX2                !
 ! D6    D(2,1,6,16)           178.9585         estimate D2E/DX2                !
 ! D7    D(28,1,6,5)          -179.59           estimate D2E/DX2                !
 ! D8    D(28,1,6,16)           -0.0149         estimate D2E/DX2                !
 ! D9    D(1,2,3,4)             -0.7561         estimate D2E/DX2                !
 ! D10   D(1,2,3,31)           178.5563         estimate D2E/DX2                !
 ! D11   D(14,2,3,4)           179.0776         estimate D2E/DX2                !
 ! D12   D(14,2,3,31)           -1.6099         estimate D2E/DX2                !
 ! D13   D(2,3,4,5)             -1.3286         estimate D2E/DX2                !
 ! D14   D(2,3,4,29)          -179.8352         estimate D2E/DX2                !
 ! D15   D(31,3,4,5)           179.3566         estimate D2E/DX2                !
 ! D16   D(31,3,4,29)            0.8499         estimate D2E/DX2                !
 ! D17   D(2,3,31,8)           144.0725         estimate D2E/DX2                !
 ! D18   D(4,3,31,8)           -36.6084         estimate D2E/DX2                !
 ! D19   D(3,4,5,6)              2.4428         estimate D2E/DX2                !
 ! D20   D(3,4,5,15)          -179.3576         estimate D2E/DX2                !
 ! D21   D(29,4,5,6)          -179.1188         estimate D2E/DX2                !
 ! D22   D(29,4,5,15)           -0.9192         estimate D2E/DX2                !
 ! D23   D(3,4,29,7)            46.2269         estimate D2E/DX2                !
 ! D24   D(3,4,29,19)         -124.7689         estimate D2E/DX2                !
 ! D25   D(5,4,29,7)          -132.2256         estimate D2E/DX2                !
 ! D26   D(5,4,29,19)           56.7785         estimate D2E/DX2                !
 ! D27   D(4,5,6,1)             -1.491          estimate D2E/DX2                !
 ! D28   D(4,5,6,16)           178.9311         estimate D2E/DX2                !
 ! D29   D(15,5,6,1)          -179.6551         estimate D2E/DX2                !
 ! D30   D(15,5,6,16)            0.7669         estimate D2E/DX2                !
 ! D31   D(13,7,8,9)             1.9207         estimate D2E/DX2                !
 ! D32   D(13,7,8,31)         -178.45           estimate D2E/DX2                !
 ! D33   D(29,7,8,9)          -179.5253         estimate D2E/DX2                !
 ! D34   D(29,7,8,31)            0.104          estimate D2E/DX2                !
 ! D35   D(8,7,13,12)           -3.2152         estimate D2E/DX2                !
 ! D36   D(8,7,13,30)          178.0805         estimate D2E/DX2                !
 ! D37   D(29,7,13,12)         178.2589         estimate D2E/DX2                !
 ! D38   D(29,7,13,30)          -0.4454         estimate D2E/DX2                !
 ! D39   D(8,7,29,4)           -47.0616         estimate D2E/DX2                !
 ! D40   D(8,7,29,19)          124.046          estimate D2E/DX2                !
 ! D41   D(13,7,29,4)          131.4627         estimate D2E/DX2                !
 ! D42   D(13,7,29,19)         -57.4297         estimate D2E/DX2                !
 ! D43   D(7,8,9,10)          -179.1879         estimate D2E/DX2                !
 ! D44   D(7,8,9,11)             0.6313         estimate D2E/DX2                !
 ! D45   D(31,8,9,10)            1.1911         estimate D2E/DX2                !
 ! D46   D(31,8,9,11)         -178.9897         estimate D2E/DX2                !
 ! D47   D(7,8,31,3)            35.9763         estimate D2E/DX2                !
 ! D48   D(9,8,31,3)          -144.3973         estimate D2E/DX2                !
 ! D49   D(8,9,11,12)           -1.9128         estimate D2E/DX2                !
 ! D50   D(8,9,11,17)          179.3092         estimate D2E/DX2                !
 ! D51   D(10,9,11,12)         177.904          estimate D2E/DX2                !
 ! D52   D(10,9,11,17)          -0.874          estimate D2E/DX2                !
 ! D53   D(9,11,12,13)           0.6256         estimate D2E/DX2                !
 ! D54   D(9,11,12,18)        -178.4699         estimate D2E/DX2                !
 ! D55   D(17,11,12,13)        179.3977         estimate D2E/DX2                !
 ! D56   D(17,11,12,18)          0.3022         estimate D2E/DX2                !
 ! D57   D(11,12,13,7)           1.9591         estimate D2E/DX2                !
 ! D58   D(11,12,13,30)       -179.3606         estimate D2E/DX2                !
 ! D59   D(18,12,13,7)        -178.941          estimate D2E/DX2                !
 ! D60   D(18,12,13,30)         -0.2607         estimate D2E/DX2                !
 ! D61   D(29,19,20,21)       -179.393          estimate D2E/DX2                !
 ! D62   D(29,19,20,26)         -0.7327         estimate D2E/DX2                !
 ! D63   D(32,19,20,21)         -1.046          estimate D2E/DX2                !
 ! D64   D(32,19,20,26)        177.6143         estimate D2E/DX2                !
 ! D65   D(20,19,29,4)         157.0809         estimate D2E/DX2                !
 ! D66   D(20,19,29,7)         -13.5376         estimate D2E/DX2                !
 ! D67   D(32,19,29,4)         -21.3358         estimate D2E/DX2                !
 ! D68   D(32,19,29,7)         168.0457         estimate D2E/DX2                !
 ! D69   D(20,19,32,22)          0.4082         estimate D2E/DX2                !
 ! D70   D(29,19,32,22)        178.812          estimate D2E/DX2                !
 ! D71   D(19,20,21,23)          0.5618         estimate D2E/DX2                !
 ! D72   D(19,20,21,24)        179.6096         estimate D2E/DX2                !
 ! D73   D(26,20,21,23)       -178.1019         estimate D2E/DX2                !
 ! D74   D(26,20,21,24)          0.946          estimate D2E/DX2                !
 ! D75   D(20,21,23,22)          0.4777         estimate D2E/DX2                !
 ! D76   D(20,21,23,27)        179.9616         estimate D2E/DX2                !
 ! D77   D(24,21,23,22)       -178.5605         estimate D2E/DX2                !
 ! D78   D(24,21,23,27)          0.9233         estimate D2E/DX2                !
 ! D79   D(25,22,23,21)        179.1536         estimate D2E/DX2                !
 ! D80   D(25,22,23,27)         -0.3347         estimate D2E/DX2                !
 ! D81   D(32,22,23,21)         -1.1805         estimate D2E/DX2                !
 ! D82   D(32,22,23,27)        179.3312         estimate D2E/DX2                !
 ! D83   D(23,22,32,19)          0.7409         estimate D2E/DX2                !
 ! D84   D(25,22,32,19)       -179.5798         estimate D2E/DX2                !
 --------------------------------------------------------------------------------
 Trust Radius=3.00D-01 FncErr=1.00D-07 GrdErr=1.00D-06
 Number of steps in this run=    185 maximum allowed number of steps=    192.
 GradGradGradGradGradGradGradGradGradGradGradGradGradGradGradGradGradGrad

 Leave Link  103 at Sat Mar 27 20:22:22 2021, MaxMem=  5242880000 cpu:         0.2
 (Enter /opt/nce/packages/global/g09/l202.exe)
                          Input orientation:                          
 ---------------------------------------------------------------------
 Center     Atomic      Atomic             Coordinates (Angstroms)
 Number     Number       Type             X           Y           Z
 ---------------------------------------------------------------------
      1          6           0       -1.969825    3.576904   -0.319172
      2          6           0       -2.350171    2.490645    0.469632
      3          6           0       -1.577065    1.324529    0.467120
      4          6           0       -0.426542    1.231872   -0.337125
      5          6           0       -0.078643    2.311877   -1.158109
      6          6           0       -0.839012    3.482152   -1.135470
      7          6           0       -0.418101   -1.190961   -0.397035
      8          6           0       -1.561091   -1.361840    0.402424
      9          6           0       -2.299294   -2.549577    0.332549
     10          1           0       -3.192727   -2.661677    0.950514
     11          6           0       -1.892637   -3.573490   -0.523697
     12          6           0       -0.770641   -3.397414   -1.341361
     13          6           0       -0.049882   -2.204143   -1.292364
     14          1           0       -3.248134    2.537222    1.089426
     15          1           0        0.805195    2.232461   -1.786029
     16          1           0       -0.547333    4.323967   -1.767406
     17          1           0       -2.464502   -4.503010   -0.567228
     18          1           0       -0.464087   -4.186986   -2.030876
     19          6           0        1.694994   -0.000853   -0.002833
     20          6           0        2.314937   -1.172714    0.492477
     21          6           0        3.671534   -1.127594    0.785152
     22          6           0        3.674841    1.164743    0.126890
     23          6           0        4.385256    0.062831    0.598126
     24          1           0        4.169485   -2.019104    1.174833
     25          1           0        4.179567    2.126181   -0.024899
     26          1           0        1.739896   -2.081386    0.661465
     27          1           0        5.451537    0.134424    0.818271
     28          1           0       -2.567436    4.491206   -0.307841
     29          7           0        0.323988    0.017956   -0.304506
     30          1           0        0.820647   -2.051488   -1.932830
     31         16           0       -2.039182   -0.050543    1.503115
     32          7           0        2.374990    1.134198   -0.171274
 ---------------------------------------------------------------------
                    Distance matrix (angstroms):
                    1          2          3          4          5
     1  C    0.000000
     2  C    1.395290   0.000000
     3  C    2.417790   1.399116   0.000000
     4  C    2.807351   2.436332   1.406804   0.000000
     5  C    2.425011   2.800239   2.421052   1.400521   0.000000
     6  C    1.397876   2.417238   2.787177   2.423065   1.395785
     7  C    5.014623   4.247144   2.901319   2.423588   3.600603
     8  C    5.007889   3.933040   2.687195   2.926000   4.257829
     9  C    6.169851   5.042343   3.943149   4.272589   5.548611
    10  H    6.482861   5.242859   4.328264   4.946667   6.235387
    11  C    7.153735   6.161962   5.007184   5.027499   6.191171
    12  C    7.150107   6.359548   5.120319   4.749440   5.753994
    13  C    6.168775   5.516973   4.228427   3.586161   4.518107
    14  H    2.167755   1.092086   2.156469   3.420580   3.892026
    15  H    3.414664   3.887287   3.402379   2.148878   1.087088
    16  H    2.163092   3.408172   3.879444   3.409009   2.153931
    17  H    8.098842   7.071023   5.984783   6.090575   7.244594
    18  H    8.091673   7.375677   6.152682   5.677519   6.568524
    19  C    5.131405   4.774321   3.561441   2.476343   3.135151
    20  C    6.448010   5.931606   4.624343   3.739783   4.538285
    21  C    7.428106   7.032221   5.801883   4.860125   5.447022
    22  C    6.154652   6.178694   5.265340   4.128094   4.129865
    23  C    7.319645   7.160780   6.095762   5.039321   5.298015
    24  H    8.440289   7.958710   6.686073   5.829093   6.499739
    25  H    6.325047   6.558573   5.832970   4.702501   4.410329
    26  H    6.836660   6.137501   4.758178   4.082685   5.091041
    27  H    8.259604   8.157204   7.137290   6.090250   6.263407
    28  H    1.092344   2.157293   3.407234   3.899685   3.415629
    29  N    4.234136   3.723521   2.432394   1.427568   2.480489
    30  H    6.486095   6.037954   4.786050   3.857746   4.521932
    31  S    4.060038   2.760876   1.782599   2.762549   4.062863
    32  N    4.986592   4.957606   4.007806   2.808136   2.895011
                    6          7          8          9         10
     6  C    0.000000
     7  C    4.749783   0.000000
     8  C    5.133301   1.405262   0.000000
     9  C    6.377245   2.432492   1.400195   0.000000
    10  H    6.902024   3.417227   2.156899   1.092094   0.000000
    11  C    7.160061   2.804772   2.420541   1.395323   2.166780
    12  C    6.882986   2.425793   2.794487   2.420244   3.414748
    13  C    5.742934   1.401334   2.421886   2.796341   3.888099
    14  H    3.412759   4.911008   4.303576   5.229597   5.201050
    15  H    2.165265   3.891732   4.827798   6.082279   6.886555
    16  H    1.092278   5.684105   6.169625   7.397620   7.948863
    17  H    8.168716   3.896972   3.409300   2.157033   2.494867
    18  H    7.730330   3.412875   3.886620   3.410993   4.319807
    19  C    4.453692   2.457015   3.552268   4.750033   5.646120
    20  C    5.853664   2.874206   3.881684   4.817931   5.723738
    21  C    6.729307   4.257546   5.251830   6.154484   7.035541
    22  C    5.228652   4.751422   5.820183   7.037667   7.904640
    23  C    6.479976   5.063060   6.117763   7.181811   8.060580
    24  H    7.790145   4.919607   5.819632   6.544918   7.393604
    25  H    5.315841   5.681590   6.730828   7.997882   8.844531
    26  H    6.390047   2.563246   3.388416   4.079515   4.975043
    27  H    7.388870   6.138914   7.182526   8.216761   9.086197
    28  H    2.165781   6.075740   5.981250   7.074929   7.289594
    29  N    3.747496   1.421527   2.440719   3.725543   4.595954
    30  H    5.831931   2.152596   3.406127   3.887681   4.979274
    31  S    4.569734   2.745729   1.777524   2.771832   2.907586
    32  N    4.095408   3.641248   4.695963   5.972685   6.831292
                   11         12         13         14         15
    11  C    0.000000
    12  C    1.399447   0.000000
    13  C    2.421096   1.394916   0.000000
    14  H    6.463771   6.875071   6.195344   0.000000
    15  H    6.525400   5.863146   4.545142   4.979016   0.000000
    16  H    8.107187   7.736350   6.564247   4.318365   2.490798
    17  H    1.092214   2.165823   3.411891   7.274850   7.585708
    18  H    2.165345   1.092168   2.156069   7.918471   6.548307
    19  C    5.089807   4.405410   3.092243   5.662982   2.993196
    20  C    4.949749   4.222919   3.137176   6.713250   4.366478
    21  C    6.217354   5.422828   4.395903   7.836151   5.110464
    22  C    7.339682   6.536922   5.218931   7.123044   3.610284
    23  C    7.341203   6.505242   5.327624   8.039442   4.817502
    24  H    6.484631   5.712777   4.891253   8.705658   6.177455
    25  H    8.343064   7.533109   6.184368   7.522062   3.807789
    26  H    4.101985   3.470740   2.652512   6.811397   5.047095
    27  H    8.335850   7.473513   6.339502   9.029465   5.724739
    28  H    8.095756   8.156406   7.220461   2.496750   4.319908
    29  N    4.226104   3.733368   2.460359   4.588006   2.707490
    30  H    3.415268   2.166460   1.091477   6.837051   4.286491
    31  S    4.067013   4.571847   4.050927   2.886041   4.911319
    32  N    6.363896   5.639114   4.275672   5.931051   2.505568
                   16         17         18         19         20
    16  H    0.000000
    17  H    9.112161   0.000000
    18  H    8.515437   2.498759   0.000000
    19  C    5.181295   6.155434   5.128187   0.000000
    20  C    6.596451   5.920885   4.814158   1.415245   0.000000
    21  C    7.350776   7.132552   5.864576   2.407733   1.388542
    22  C    5.603196   8.384316   7.101245   2.301138   2.728864
    23  C    6.934224   8.314093   6.963384   2.757302   2.413287
    24  H    8.434435   7.294817   6.037075   3.403431   2.149729
    25  H    5.496379   9.401274   8.089718   3.270759   3.824556
    26  H    7.222145   5.005089   4.066914   2.184474   1.088538
    27  H    7.760441   9.278420   7.860460   3.847613   3.413651
    28  H    2.497822   8.998544   9.094171   6.199995   7.520510
    29  N    4.630444   5.318255   4.613345   1.403929   2.452907
    30  H    6.522665   4.320536   2.494094   2.948640   2.981151
    31  S    5.662001   4.928659   5.663937   4.026713   4.608580
    32  N    4.611099   7.440133   6.311377   1.333832   2.401253
                   21         22         23         24         25
    21  C    0.000000
    22  C    2.384980   0.000000
    23  C    1.400532   1.393184   0.000000
    24  H    1.092976   3.388176   2.171083   0.000000
    25  H    3.391361   1.096427   2.165152   4.315420   0.000000
    26  H    2.157833   3.816692   3.405820   2.484015   4.911895
    27  H    2.182246   2.167075   1.091121   2.531497   2.509171
    28  H    8.467012   7.086633   8.292841   9.485176   7.155100
    29  N    3.702121   3.567834   4.160608   4.596292   4.403213
    30  H    4.045808   4.767915   4.856184   4.568734   5.689944
    31  S    5.855577   6.001748   6.488857   6.521545   6.763564
    32  N    2.776955   1.333959   2.404365   3.869823   2.064450
                   26         27         28         29         30
    26  H    0.000000
    27  H    4.325584   0.000000
    28  H    7.917805   9.195303   0.000000
    29  N    2.710190   5.250329   5.326379   0.000000
    30  H    2.752504   5.813081   7.544968   2.679684   0.000000
    31  S    4.371971   7.524234   4.917936   2.976031   4.897767
    32  N    3.381831   3.382882   5.976264   2.338879   3.958239
                   31         32
    31  S    0.000000
    32  N    4.867454   0.000000
 Symmetry turned off by external request.
 Stoichiometry    C17H12N2S
 Framework group  C1[X(C17H12N2S)]
 Deg. of freedom    90
 Full point group                 C1      NOp   1
 Rotational constants (GHZ):      0.3825642      0.3446792      0.2112543
 Leave Link  202 at Sat Mar 27 20:22:22 2021, MaxMem=  5242880000 cpu:         0.6
 (Enter /opt/nce/packages/global/g09/l301.exe)
 Standard basis: def2TZVP (5D, 7F)
 Ernie: Thresh=  0.10000D-02 Tol=  0.10000D-05 Strict=F.
   698 basis functions,  1134 primitive gaussians,   798 cartesian basis functions
    72 alpha electrons       72 beta electrons
       nuclear repulsion energy      1566.6532973845 Hartrees.
 IExCor= 1009 DFT=T Ex=PBE Corr=PBE ExCW=0 ScaHFX=  0.000000
 ScaDFX=  1.000000  1.000000  1.000000  1.000000 ScalE2=  1.000000  1.000000
 IRadAn=      5 IRanWt=     -1 IRanGd=            0 ICorTp=0 IEmpDi=141
 NAtoms=   32 NActive=   32 NUniq=   32 SFac= 1.00D+00 NAtFMM=   60 NAOKFM=F Big=F
 Integral buffers will be    131072 words long.
 Raffenetti 2 integral format.
 Two-electron integral symmetry is turned off.
 R6Disp:  Grimme-D3(BJ) Dispersion energy=       -0.0492061462 Hartrees.
 Nuclear repulsion after empirical dispersion term =     1566.6040912383 Hartrees.
 ------------------------------------------------------------------------------
 Polarizable Continuum Model (PCM)
 =================================
 Model                : PCM (using non-symmetric T matrix).
 Atomic radii         : SMD-Coulomb.
 Polarization charges : Total charges.
 Charge compensation  : None.
 Solution method      : On-the-fly selection.
 Cavity type          : VdW (van der Waals Surface) (Alpha=1.000).
 Cavity algorithm     : GePol (No added spheres)
                        Default sphere list used, NSphG=   32.
                        Lebedev-Laikov grids with approx.  5.0 points / Ang**2.
                        Smoothing algorithm: York/Karplus (Gamma=1.0000).
                        Polarization charges: spherical gaussians, with
                                              point-specific exponents (IZeta= 3).
                        Self-potential: point-specific (ISelfS= 7).
                        Self-field    : sphere-specific E.n sum rule (ISelfD= 2).
 1st derivatives      : Analytical E(r).r(x)/FMM algorithm (CHGder, D1EAlg=3).
                        Cavity 1st derivative terms included.
 Solvent              : n,n-DiMethylAcetamide, Eps=  37.781000 Eps(inf)=   2.067844
 ------------------------------------------------------------------------------
 GePol: Number of generator spheres                  =      32
 GePol: Total number of spheres                      =      32
 GePol: Number of exposed spheres                    =      32 (100.00%)
 GePol: Number of points                             =    2528
 GePol: Average weight of points                     =       0.11
 GePol: Minimum weight of points                     =   0.22D-09
 GePol: Maximum weight of points                     =    0.19854
 GePol: Number of points with low weight             =     136
 GePol: Fraction of low-weight points (<1% of avg)   =       5.38%
 GePol: Cavity surface area                          =    289.266 Ang**2
 GePol: Cavity volume                                =    290.887 Ang**3
 ------------------------------------------------------------------------------
 Atomic radii for non-electrostatic terms: SMD-CDS.
 ------------------------------------------------------------------------------
 PCM non-electrostatic energy =        -0.0058321980 Hartrees.
 Nuclear repulsion after PCM non-electrostatic terms =     1566.5982590404 Hartrees.
 Leave Link  301 at Sat Mar 27 20:22:22 2021, MaxMem=  5242880000 cpu:         2.1
 (Enter /opt/nce/packages/global/g09/l302.exe)
 NPDir=0 NMtPBC=     1 NCelOv=     1 NCel=       1 NClECP=     1 NCelD=      1
         NCelK=      1 NCelE2=     1 NClLst=     1 CellRange=     0.0.
 One-electron integrals computed using PRISM.
   1 Symmetry operations used in ECPInt.
 ECPInt:  NShTT=   36585 NPrTT=  115450 LenC2=   32969 LenP2D=   74222.
 LDataN:  DoStor=T MaxTD1= 6 Len=  172
 NBasis=   698 RedAO= T EigKep=  6.23D-06  NBF=   698
 NBsUse=   698 1.00D-06 EigRej= -1.00D+00 NBFU=   698
 Precomputing XC quadrature grid using
 IXCGrd= 4 IRadAn=           5 IRanWt=          -1 IRanGd=           0 AccXCQ= 0.00D+00.
 Generated NRdTot=       0 NPtTot=           0 NUsed=           0 NTot=          32
 NSgBfM=   786   786   786   786   786 MxSgAt=    32 MxSgA2=    32.
 Leave Link  302 at Sat Mar 27 20:22:25 2021, MaxMem=  5242880000 cpu:        29.7
 (Enter /opt/nce/packages/global/g09/l303.exe)
 DipDrv:  MaxL=1.
 Leave Link  303 at Sat Mar 27 20:22:26 2021, MaxMem=  5242880000 cpu:         3.4
 (Enter /opt/nce/packages/global/g09/l401.exe)
 ExpMin= 9.52D-02 ExpMax= 6.07D+04 ExpMxC= 2.07D+03 IAcc=3 IRadAn=         5 AccDes= 0.00D+00
 Harris functional with IExCor= 1009 and IRadAn=       5 diagonalized for initial guess.
 HarFok:  IExCor= 1009 AccDes= 0.00D+00 IRadAn=         5 IDoV= 1 UseB2=F ITyADJ=14
 ICtDFT=  3500011 ScaDFX=  1.000000  1.000000  1.000000  1.000000
 FoFCou: FMM=F IPFlag=           0 FMFlag=      100000 FMFlg1=           0
         NFxFlg=           0 DoJE=T BraDBF=F KetDBF=T FulRan=T
         wScrn=  0.000000 ICntrl=     500 IOpCl=  0 I1Cent=   200000004 NGrid=           0
         NMat0=    1 NMatS0=      1 NMatT0=    0 NMatD0=    1 NMtDS0=    0 NMtDT0=    0
 Symmetry not used in FoFCou.
 Harris En= -1162.17755491419    
 JPrj=0 DoOrth=F DoCkMO=F.
 Leave Link  401 at Sat Mar 27 20:22:31 2021, MaxMem=  5242880000 cpu:        65.0
 (Enter /opt/nce/packages/global/g09/l502.exe)
 Closed shell SCF:
 Using DIIS extrapolation, IDIIS=  1040.
 Two-electron integral symmetry not used.
 IVT=     1943390 IEndB=     1943390 NGot=  5242880000 MDV=  5241590853
 LenX=  5241590853 LenY=  5240953251
 Requested convergence on RMS density matrix=1.00D-08 within 128 cycles.
 Requested convergence on MAX density matrix=1.00D-06.
 Requested convergence on             energy=1.00D-06.
 No special actions if energy rises.
 Fock matrices will be formed incrementally for  20 cycles.

 Cycle   1  Pass 1  IDiag  1:
 FoFJK:  IHMeth= 1 ICntrl=     500 DoSepK=F KAlg= 0 I1Cent=   0 FoldK=F
 IRaf= 810000000 NMat=   1 IRICut=       1 DoRegI=T DoRafI=F ISym2E= 0.
 FoFCou: FMM=F IPFlag=           0 FMFlag=      100000 FMFlg1=           0
         NFxFlg=           0 DoJE=T BraDBF=F KetDBF=F FulRan=T
         wScrn=  0.000000 ICntrl=     500 IOpCl=  0 I1Cent=           0 NGrid=           0
         NMat0=    1 NMatS0=      1 NMatT0=    0 NMatD0=    1 NMtDS0=    0 NMtDT0=    0
 Symmetry not used in FoFCou.
 Inv3:  Mode=1 IEnd=    19172352.
 Iteration    1 A*A^-1 deviation from unit magnitude is 3.77D-15 for   2498.
 Iteration    1 A*A^-1 deviation from orthogonality  is 2.85D-15 for   2521   1898.
 Iteration    1 A^-1*A deviation from unit magnitude is 3.77D-15 for   2496.
 Iteration    1 A^-1*A deviation from orthogonality  is 2.31D-12 for   1925   1921.
 E= -1161.55999520723    
 DIIS: error= 1.64D-02 at cycle   1 NSaved=   1.
 NSaved= 1 IEnMin= 1 EnMin= -1161.55999520723     IErMin= 1 ErrMin= 1.64D-02
 ErrMax= 1.64D-02  0.00D+00 EMaxC= 1.00D-01 BMatC= 4.00D-01 BMatP= 4.00D-01
 IDIUse=3 WtCom= 8.36D-01 WtEn= 1.64D-01
 Coeff-Com:  0.100D+01
 Coeff-En:   0.100D+01
 Coeff:      0.100D+01
 Gap=     0.237 Goal=   None    Shift=    0.000
 GapD=    0.237 DampG=1.000 DampE=0.500 DampFc=0.5000 IDamp=-1.
 Damping current iteration by 5.00D-01
 RMSDP=4.02D-03 MaxDP=3.40D-01              OVMax= 3.00D-01

 Cycle   2  Pass 1  IDiag  1:
 RMSU=  2.01D-03    CP:  1.01D+00
 E= -1161.62265457732     Delta-E=       -0.062659370096 Rises=F Damp=T
 DIIS: error= 8.02D-03 at cycle   2 NSaved=   2.
 NSaved= 2 IEnMin= 2 EnMin= -1161.62265457732     IErMin= 2 ErrMin= 8.02D-03
 ErrMax= 8.02D-03  0.00D+00 EMaxC= 1.00D-01 BMatC= 7.83D-02 BMatP= 4.00D-01
 IDIUse=3 WtCom= 9.20D-01 WtEn= 8.02D-02
 Coeff-Com:  0.250D+00 0.750D+00
 Coeff-En:   0.429D+00 0.571D+00
 Coeff:      0.265D+00 0.735D+00
 Gap=     0.171 Goal=   None    Shift=    0.000
 RMSDP=1.61D-03 MaxDP=1.05D-01 DE=-6.27D-02 OVMax= 3.26D-01

 Cycle   3  Pass 1  IDiag  1:
 RMSU=  1.51D-03    CP:  1.01D+00  7.29D-01
 E= -1161.87215160470     Delta-E=       -0.249497027376 Rises=F Damp=F
 DIIS: error= 1.07D-02 at cycle   3 NSaved=   3.
 NSaved= 3 IEnMin= 3 EnMin= -1161.87215160470     IErMin= 2 ErrMin= 8.02D-03
 ErrMax= 1.07D-02  0.00D+00 EMaxC= 1.00D-01 BMatC= 7.78D-02 BMatP= 7.83D-02
 IDIUse=3 WtCom= 8.93D-01 WtEn= 1.07D-01
 Coeff-Com:  0.846D-01 0.494D+00 0.422D+00
 Coeff-En:   0.000D+00 0.000D+00 0.100D+01
 Coeff:      0.755D-01 0.441D+00 0.484D+00
 Gap=     0.131 Goal=   None    Shift=    0.000
 RMSDP=1.03D-03 MaxDP=6.43D-02 DE=-2.49D-01 OVMax= 1.54D-01

 Cycle   4  Pass 1  IDiag  1:
 RMSU=  5.46D-04    CP:  9.96D-01  5.78D-01  4.60D-01
 E= -1161.92549790933     Delta-E=       -0.053346304629 Rises=F Damp=F
 DIIS: error= 5.68D-03 at cycle   4 NSaved=   4.
 NSaved= 4 IEnMin= 4 EnMin= -1161.92549790933     IErMin= 4 ErrMin= 5.68D-03
 ErrMax= 5.68D-03  0.00D+00 EMaxC= 1.00D-01 BMatC= 3.06D-02 BMatP= 7.78D-02
 IDIUse=3 WtCom= 9.43D-01 WtEn= 5.68D-02
 Coeff-Com:  0.107D-01 0.161D+00 0.378D+00 0.450D+00
 Coeff-En:   0.000D+00 0.000D+00 0.333D+00 0.667D+00
 Coeff:      0.101D-01 0.151D+00 0.376D+00 0.463D+00
 Gap=     0.125 Goal=   None    Shift=    0.000
 RMSDP=2.98D-04 MaxDP=1.79D-02 DE=-5.33D-02 OVMax= 7.54D-02

 Cycle   5  Pass 1  IDiag  1:
 RMSU=  2.41D-04    CP:  9.94D-01  5.88D-01  4.89D-01  6.93D-01
 E= -1161.95787005722     Delta-E=       -0.032372147889 Rises=F Damp=F
 DIIS: error= 1.16D-03 at cycle   5 NSaved=   5.
 NSaved= 5 IEnMin= 5 EnMin= -1161.95787005722     IErMin= 5 ErrMin= 1.16D-03
 ErrMax= 1.16D-03  0.00D+00 EMaxC= 1.00D-01 BMatC= 1.14D-03 BMatP= 3.06D-02
 IDIUse=3 WtCom= 9.88D-01 WtEn= 1.16D-02
 Coeff-Com: -0.727D-03 0.424D-01 0.176D+00 0.265D+00 0.517D+00
 Coeff-En:   0.000D+00 0.000D+00 0.000D+00 0.000D+00 0.100D+01
 Coeff:     -0.718D-03 0.419D-01 0.174D+00 0.262D+00 0.523D+00
 Gap=     0.118 Goal=   None    Shift=    0.000
 RMSDP=1.65D-04 MaxDP=1.23D-02 DE=-3.24D-02 OVMax= 1.27D-02

 Cycle   6  Pass 1  IDiag  1:
 RMSU=  3.79D-05    CP:  9.97D-01  6.17D-01  5.62D-01  6.74D-01  5.97D-01
 E= -1161.95895015290     Delta-E=       -0.001080095685 Rises=F Damp=F
 DIIS: error= 4.75D-04 at cycle   6 NSaved=   6.
 NSaved= 6 IEnMin= 6 EnMin= -1161.95895015290     IErMin= 6 ErrMin= 4.75D-04
 ErrMax= 4.75D-04  0.00D+00 EMaxC= 1.00D-01 BMatC= 1.30D-04 BMatP= 1.14D-03
 IDIUse=3 WtCom= 9.95D-01 WtEn= 4.75D-03
 Coeff-Com: -0.113D-02 0.870D-02 0.619D-01 0.101D+00 0.300D+00 0.529D+00
 Coeff-En:   0.000D+00 0.000D+00 0.000D+00 0.000D+00 0.621D-01 0.938D+00
 Coeff:     -0.113D-02 0.866D-02 0.616D-01 0.101D+00 0.299D+00 0.531D+00
 Gap=     0.117 Goal=   None    Shift=    0.000
 RMSDP=2.44D-05 MaxDP=1.91D-03 DE=-1.08D-03 OVMax= 5.18D-03

 Cycle   7  Pass 1  IDiag  1:
 RMSU=  1.62D-05    CP:  9.97D-01  6.12D-01  5.61D-01  6.77D-01  6.14D-01
                    CP:  6.21D-01
 E= -1161.95905711208     Delta-E=       -0.000106959174 Rises=F Damp=F
 DIIS: error= 1.79D-04 at cycle   7 NSaved=   7.
 NSaved= 7 IEnMin= 7 EnMin= -1161.95905711208     IErMin= 7 ErrMin= 1.79D-04
 ErrMax= 1.79D-04  0.00D+00 EMaxC= 1.00D-01 BMatC= 2.59D-05 BMatP= 1.30D-04
 IDIUse=3 WtCom= 9.98D-01 WtEn= 1.79D-03
 Coeff-Com: -0.606D-03 0.164D-02 0.221D-01 0.383D-01 0.141D+00 0.352D+00
 Coeff-Com:  0.445D+00
 Coeff-En:   0.000D+00 0.000D+00 0.000D+00 0.000D+00 0.000D+00 0.170D+00
 Coeff-En:   0.830D+00
 Coeff:     -0.605D-03 0.163D-02 0.221D-01 0.382D-01 0.141D+00 0.352D+00
 Coeff:      0.446D+00
 Gap=     0.117 Goal=   None    Shift=    0.000
 RMSDP=9.77D-06 MaxDP=4.94D-04 DE=-1.07D-04 OVMax= 1.77D-03

 Cycle   8  Pass 1  IDiag  1:
 RMSU=  5.27D-06    CP:  9.97D-01  6.13D-01  5.60D-01  6.79D-01  6.22D-01
                    CP:  6.95D-01  5.87D-01
 E= -1161.95908140485     Delta-E=       -0.000024292771 Rises=F Damp=F
 DIIS: error= 3.80D-05 at cycle   8 NSaved=   8.
 NSaved= 8 IEnMin= 8 EnMin= -1161.95908140485     IErMin= 8 ErrMin= 3.80D-05
 ErrMax= 3.80D-05  0.00D+00 EMaxC= 1.00D-01 BMatC= 2.18D-06 BMatP= 2.59D-05
 IDIUse=1 WtCom= 1.00D+00 WtEn= 0.00D+00
 Coeff-Com: -0.159D-03-0.223D-03 0.455D-02 0.859D-02 0.436D-01 0.142D+00
 Coeff-Com:  0.271D+00 0.530D+00
 Coeff:     -0.159D-03-0.223D-03 0.455D-02 0.859D-02 0.436D-01 0.142D+00
 Coeff:      0.271D+00 0.530D+00
 Gap=     0.117 Goal=   None    Shift=    0.000
 RMSDP=4.43D-06 MaxDP=4.24D-04 DE=-2.43D-05 OVMax= 4.80D-04

 Cycle   9  Pass 1  IDiag  1:
 RMSU=  1.95D-06    CP:  9.97D-01  6.12D-01  5.59D-01  6.80D-01  6.27D-01
                    CP:  6.72D-01  6.62D-01  6.90D-01
 E= -1161.95908312976     Delta-E=       -0.000001724918 Rises=F Damp=F
 DIIS: error= 1.60D-05 at cycle   9 NSaved=   9.
 NSaved= 9 IEnMin= 9 EnMin= -1161.95908312976     IErMin= 9 ErrMin= 1.60D-05
 ErrMax= 1.60D-05  0.00D+00 EMaxC= 1.00D-01 BMatC= 4.14D-07 BMatP= 2.18D-06
 IDIUse=1 WtCom= 1.00D+00 WtEn= 0.00D+00
 Coeff-Com: -0.144D-04-0.266D-03 0.663D-03 0.139D-02 0.137D-01 0.549D-01
 Coeff-Com:  0.129D+00 0.358D+00 0.443D+00
 Coeff:     -0.144D-04-0.266D-03 0.663D-03 0.139D-02 0.137D-01 0.549D-01
 Coeff:      0.129D+00 0.358D+00 0.443D+00
 Gap=     0.117 Goal=   None    Shift=    0.000
 RMSDP=1.88D-06 MaxDP=1.87D-04 DE=-1.72D-06 OVMax= 1.69D-04

 Cycle  10  Pass 1  IDiag  1:
 RMSU=  5.40D-07    CP:  9.97D-01  6.13D-01  5.59D-01  6.80D-01  6.25D-01
                    CP:  6.85D-01  6.49D-01  7.47D-01  6.23D-01
 E= -1161.95908350802     Delta-E=       -0.000000378258 Rises=F Damp=F
 DIIS: error= 3.10D-06 at cycle  10 NSaved=  10.
 NSaved=10 IEnMin=10 EnMin= -1161.95908350802     IErMin=10 ErrMin= 3.10D-06
 ErrMax= 3.10D-06  0.00D+00 EMaxC= 1.00D-01 BMatC= 1.46D-08 BMatP= 4.14D-07
 IDIUse=1 WtCom= 1.00D+00 WtEn= 0.00D+00
 Coeff-Com:  0.187D-05-0.119D-03 0.889D-04 0.199D-03 0.512D-02 0.219D-01
 Coeff-Com:  0.541D-01 0.167D+00 0.245D+00 0.507D+00
 Coeff:      0.187D-05-0.119D-03 0.889D-04 0.199D-03 0.512D-02 0.219D-01
 Coeff:      0.541D-01 0.167D+00 0.245D+00 0.507D+00
 Gap=     0.117 Goal=   None    Shift=    0.000
 RMSDP=3.68D-07 MaxDP=3.02D-05 DE=-3.78D-07 OVMax= 5.60D-05

 Cycle  11  Pass 1  IDiag  1:
 RMSU=  2.06D-07    CP:  9.97D-01  6.13D-01  5.60D-01  6.80D-01  6.25D-01
                    CP:  6.83D-01  6.57D-01  7.48D-01  6.45D-01  6.48D-01
 E= -1161.95908352092     Delta-E=       -0.000000012895 Rises=F Damp=F
 DIIS: error= 1.36D-06 at cycle  11 NSaved=  11.
 NSaved=11 IEnMin=11 EnMin= -1161.95908352092     IErMin=11 ErrMin= 1.36D-06
 ErrMax= 1.36D-06  0.00D+00 EMaxC= 1.00D-01 BMatC= 2.20D-09 BMatP= 1.46D-08
 IDIUse=1 WtCom= 1.00D+00 WtEn= 0.00D+00
 Coeff-Com:  0.149D-05-0.298D-04-0.164D-05-0.218D-04 0.162D-02 0.694D-02
 Coeff-Com:  0.179D-01 0.603D-01 0.991D-01 0.322D+00 0.492D+00
 Coeff:      0.149D-05-0.298D-04-0.164D-05-0.218D-04 0.162D-02 0.694D-02
 Coeff:      0.179D-01 0.603D-01 0.991D-01 0.322D+00 0.492D+00
 Gap=     0.117 Goal=   None    Shift=    0.000
 RMSDP=1.26D-07 MaxDP=7.73D-06 DE=-1.29D-08 OVMax= 1.74D-05

 Cycle  12  Pass 1  IDiag  1:
 RMSU=  4.92D-08    CP:  9.97D-01  6.13D-01  5.59D-01  6.80D-01  6.25D-01
                    CP:  6.84D-01  6.55D-01  7.51D-01  6.48D-01  7.26D-01
                    CP:  6.52D-01
 E= -1161.95908352305     Delta-E=       -0.000000002128 Rises=F Damp=F
 DIIS: error= 5.12D-07 at cycle  12 NSaved=  12.
 NSaved=12 IEnMin=12 EnMin= -1161.95908352305     IErMin=12 ErrMin= 5.12D-07
 ErrMax= 5.12D-07  0.00D+00 EMaxC= 1.00D-01 BMatC= 2.45D-10 BMatP= 2.20D-09
 IDIUse=1 WtCom= 1.00D+00 WtEn= 0.00D+00
 Coeff-Com:  0.513D-06-0.895D-05-0.620D-05-0.270D-04 0.646D-03 0.274D-02
 Coeff-Com:  0.727D-02 0.257D-01 0.447D-01 0.171D+00 0.325D+00 0.422D+00
 Coeff:      0.513D-06-0.895D-05-0.620D-05-0.270D-04 0.646D-03 0.274D-02
 Coeff:      0.727D-02 0.257D-01 0.447D-01 0.171D+00 0.325D+00 0.422D+00
 Gap=     0.117 Goal=   None    Shift=    0.000
 RMSDP=2.71D-08 MaxDP=1.43D-06 DE=-2.13D-09 OVMax= 5.19D-06

 Cycle  13  Pass 1  IDiag  1:
 RMSU=  1.70D-08    CP:  9.97D-01  6.13D-01  5.59D-01  6.80D-01  6.25D-01
                    CP:  6.84D-01  6.55D-01  7.50D-01  6.50D-01  7.26D-01
                    CP:  6.63D-01  6.89D-01
 E= -1161.95908352332     Delta-E=       -0.000000000278 Rises=F Damp=F
 DIIS: error= 1.09D-07 at cycle  13 NSaved=  13.
 NSaved=13 IEnMin=13 EnMin= -1161.95908352332     IErMin=13 ErrMin= 1.09D-07
 ErrMax= 1.09D-07  0.00D+00 EMaxC= 1.00D-01 BMatC= 1.23D-11 BMatP= 2.45D-10
 IDIUse=1 WtCom= 1.00D+00 WtEn= 0.00D+00
 Coeff-Com:  0.479D-07-0.214D-05-0.435D-05-0.133D-04 0.162D-03 0.713D-03
 Coeff-Com:  0.199D-02 0.725D-02 0.131D-01 0.565D-01 0.124D+00 0.230D+00
 Coeff-Com:  0.566D+00
 Coeff:      0.479D-07-0.214D-05-0.435D-05-0.133D-04 0.162D-03 0.713D-03
 Coeff:      0.199D-02 0.725D-02 0.131D-01 0.565D-01 0.124D+00 0.230D+00
 Coeff:      0.566D+00
 Gap=     0.117 Goal=   None    Shift=    0.000
 RMSDP=7.93D-09 MaxDP=6.40D-07 DE=-2.78D-10 OVMax= 1.42D-06

 Error on total polarization charges =  0.05542
 SCF Done:  E(RPBE-PBE) =  -1161.95908352     A.U. after   13 cycles
            NFock= 13  Conv=0.79D-08     -V/T= 2.0037
 KE= 1.157666255865D+03 PE=-5.856279305467D+03 EE= 1.970055707038D+03
 SMD-CDS (non-electrostatic) energy       (kcal/mol) =      -3.66
 (included in total energy above)
 Leave Link  502 at Sat Mar 27 20:27:28 2021, MaxMem=  5242880000 cpu:      3530.5
 (Enter /opt/nce/packages/global/g09/l601.exe)
 Copying SCF densities to generalized density rwf, IOpCl= 0 IROHF=0.

 **********************************************************************

            Population analysis using the SCF density.

 **********************************************************************

 Alpha  occ. eigenvalues --  -88.06371 -14.03249 -13.97718  -9.96046  -9.93728
 Alpha  occ. eigenvalues --   -9.93635  -9.92772  -9.92673  -9.91492  -9.89772
 Alpha  occ. eigenvalues --   -9.89638  -9.89450  -9.89425  -9.89136  -9.89097
 Alpha  occ. eigenvalues --   -9.89043  -9.89018  -9.88922  -9.88816  -9.88292
 Alpha  occ. eigenvalues --   -7.68898  -5.71097  -5.70709  -5.70065  -0.91185
 Alpha  occ. eigenvalues --   -0.85451  -0.79019  -0.78620  -0.73536  -0.72680
 Alpha  occ. eigenvalues --   -0.69549  -0.69142  -0.68348  -0.65982  -0.62489
 Alpha  occ. eigenvalues --   -0.58695  -0.58248  -0.55524  -0.54463  -0.54356
 Alpha  occ. eigenvalues --   -0.51087  -0.49209  -0.48840  -0.44676  -0.43934
 Alpha  occ. eigenvalues --   -0.43034  -0.42161  -0.41677  -0.41162  -0.39529
 Alpha  occ. eigenvalues --   -0.39123  -0.38568  -0.37859  -0.37346  -0.36267
 Alpha  occ. eigenvalues --   -0.34925  -0.34320  -0.33786  -0.33244  -0.32199
 Alpha  occ. eigenvalues --   -0.31536  -0.30687  -0.30429  -0.28771  -0.27166
 Alpha  occ. eigenvalues --   -0.25959  -0.24457  -0.24100  -0.23531  -0.21647
 Alpha  occ. eigenvalues --   -0.20287  -0.17907
 Alpha virt. eigenvalues --   -0.06181  -0.05929  -0.05464  -0.04853  -0.04218
 Alpha virt. eigenvalues --   -0.02838  -0.01186   0.02340   0.04019   0.05140
 Alpha virt. eigenvalues --    0.05531   0.05939   0.06691   0.07197   0.07717
 Alpha virt. eigenvalues --    0.07999   0.08535   0.09123   0.09455   0.09610
 Alpha virt. eigenvalues --    0.10125   0.10478   0.10921   0.11740   0.11757
 Alpha virt. eigenvalues --    0.13596   0.14397   0.14567   0.15442   0.16125
 Alpha virt. eigenvalues --    0.16771   0.16891   0.17498   0.18297   0.18801
 Alpha virt. eigenvalues --    0.19039   0.19438   0.19883   0.20363   0.21052
 Alpha virt. eigenvalues --    0.21213   0.21471   0.21822   0.22225   0.22299
 Alpha virt. eigenvalues --    0.22729   0.23414   0.23683   0.24430   0.24677
 Alpha virt. eigenvalues --    0.25529   0.25772   0.26265   0.26325   0.27409
 Alpha virt. eigenvalues --    0.27789   0.28394   0.28701   0.29008   0.29222
 Alpha virt. eigenvalues --    0.29662   0.29786   0.30446   0.31102   0.32067
 Alpha virt. eigenvalues --    0.32557   0.32860   0.33573   0.34406   0.34640
 Alpha virt. eigenvalues --    0.34824   0.35330   0.35803   0.36129   0.36520
 Alpha virt. eigenvalues --    0.37434   0.37866   0.38648   0.39130   0.39477
 Alpha virt. eigenvalues --    0.39688   0.40036   0.40397   0.40978   0.41531
 Alpha virt. eigenvalues --    0.41659   0.41838   0.42388   0.42922   0.43709
 Alpha virt. eigenvalues --    0.44319   0.44734   0.44964   0.45430   0.46006
 Alpha virt. eigenvalues --    0.46249   0.46477   0.47034   0.47246   0.48035
 Alpha virt. eigenvalues --    0.48830   0.49018   0.49973   0.50916   0.51842
 Alpha virt. eigenvalues --    0.52503   0.53237   0.53789   0.54715   0.55249
 Alpha virt. eigenvalues --    0.56770   0.57082   0.57701   0.58465   0.58849
 Alpha virt. eigenvalues --    0.59451   0.60164   0.61159   0.61400   0.62641
 Alpha virt. eigenvalues --    0.62846   0.63365   0.63749   0.63945   0.64884
 Alpha virt. eigenvalues --    0.65200   0.65755   0.66187   0.66894   0.67189
 Alpha virt. eigenvalues --    0.68552   0.69190   0.70180   0.70679   0.71050
 Alpha virt. eigenvalues --    0.71451   0.71669   0.72162   0.73539   0.74441
 Alpha virt. eigenvalues --    0.75900   0.76479   0.77139   0.77389   0.77955
 Alpha virt. eigenvalues --    0.78710   0.79329   0.79586   0.80956   0.81851
 Alpha virt. eigenvalues --    0.82475   0.83600   0.84052   0.84495   0.85135
 Alpha virt. eigenvalues --    0.85312   0.86516   0.86910   0.88632   0.88849
 Alpha virt. eigenvalues --    0.89326   0.89639   0.90614   0.92844   0.92952
 Alpha virt. eigenvalues --    0.94706   0.95451   0.95723   0.97463   0.97834
 Alpha virt. eigenvalues --    0.99082   0.99466   1.00395   1.01136   1.01582
 Alpha virt. eigenvalues --    1.03178   1.04261   1.04656   1.05894   1.07116
 Alpha virt. eigenvalues --    1.07500   1.08255   1.08593   1.09991   1.10655
 Alpha virt. eigenvalues --    1.12172   1.12392   1.13632   1.14297   1.15005
 Alpha virt. eigenvalues --    1.16503   1.17503   1.17982   1.18697   1.18917
 Alpha virt. eigenvalues --    1.19694   1.20377   1.21808   1.22220   1.23534
 Alpha virt. eigenvalues --    1.23793   1.24223   1.25574   1.25935   1.26885
 Alpha virt. eigenvalues --    1.27355   1.27981   1.28496   1.29538   1.30894
 Alpha virt. eigenvalues --    1.31204   1.32483   1.33634   1.34109   1.35867
 Alpha virt. eigenvalues --    1.36916   1.37540   1.38077   1.38352   1.39192
 Alpha virt. eigenvalues --    1.39745   1.40179   1.41261   1.42125   1.43325
 Alpha virt. eigenvalues --    1.43892   1.44198   1.45410   1.46033   1.46270
 Alpha virt. eigenvalues --    1.46657   1.49246   1.50073   1.50893   1.50960
 Alpha virt. eigenvalues --    1.51798   1.52622   1.53565   1.53973   1.54847
 Alpha virt. eigenvalues --    1.55739   1.55999   1.56504   1.56871   1.57204
 Alpha virt. eigenvalues --    1.58004   1.59062   1.59265   1.59987   1.60860
 Alpha virt. eigenvalues --    1.61620   1.62236   1.62915   1.63337   1.64763
 Alpha virt. eigenvalues --    1.65700   1.65881   1.66815   1.67102   1.67431
 Alpha virt. eigenvalues --    1.68285   1.69602   1.69890   1.70885   1.72069
 Alpha virt. eigenvalues --    1.73173   1.74099   1.75038   1.75715   1.76921
 Alpha virt. eigenvalues --    1.78153   1.79501   1.79843   1.81044   1.81895
 Alpha virt. eigenvalues --    1.82957   1.83753   1.84013   1.85685   1.88338
 Alpha virt. eigenvalues --    1.88874   1.89040   1.89825   1.90264   1.92916
 Alpha virt. eigenvalues --    1.92996   1.94702   1.95525   1.96725   1.97463
 Alpha virt. eigenvalues --    1.98880   1.99218   2.00073   2.00776   2.02284
 Alpha virt. eigenvalues --    2.02733   2.03260   2.04197   2.04874   2.06850
 Alpha virt. eigenvalues --    2.07471   2.07911   2.09096   2.10138   2.11476
 Alpha virt. eigenvalues --    2.11803   2.12572   2.12925   2.14365   2.15298
 Alpha virt. eigenvalues --    2.16647   2.17509   2.18165   2.18591   2.20576
 Alpha virt. eigenvalues --    2.21328   2.22959   2.24494   2.26270   2.27460
 Alpha virt. eigenvalues --    2.30455   2.33177   2.33815   2.35411   2.36671
 Alpha virt. eigenvalues --    2.37258   2.38070   2.40105   2.40514   2.42920
 Alpha virt. eigenvalues --    2.43636   2.44028   2.44839   2.45194   2.45678
 Alpha virt. eigenvalues --    2.49302   2.50240   2.50896   2.51780   2.51900
 Alpha virt. eigenvalues --    2.52943   2.53315   2.54444   2.55252   2.55851
 Alpha virt. eigenvalues --    2.56093   2.56668   2.56848   2.57864   2.59161
 Alpha virt. eigenvalues --    2.59641   2.59734   2.61053   2.61401   2.61849
 Alpha virt. eigenvalues --    2.62283   2.62927   2.63772   2.64654   2.64941
 Alpha virt. eigenvalues --    2.65562   2.65696   2.66953   2.67870   2.68403
 Alpha virt. eigenvalues --    2.69528   2.71104   2.71781   2.71850   2.73309
 Alpha virt. eigenvalues --    2.73860   2.73904   2.74869   2.75154   2.75931
 Alpha virt. eigenvalues --    2.76919   2.77471   2.78459   2.79073   2.79396
 Alpha virt. eigenvalues --    2.79648   2.80749   2.81155   2.82363   2.82708
 Alpha virt. eigenvalues --    2.83581   2.84252   2.84770   2.85527   2.85905
 Alpha virt. eigenvalues --    2.86563   2.87091   2.88837   2.90035   2.90207
 Alpha virt. eigenvalues --    2.91721   2.93179   2.94659   2.95121   2.95769
 Alpha virt. eigenvalues --    2.96979   2.97743   2.98431   3.00591   3.00873
 Alpha virt. eigenvalues --    3.01820   3.02111   3.02697   3.03915   3.04678
 Alpha virt. eigenvalues --    3.05079   3.06090   3.06648   3.07336   3.07734
 Alpha virt. eigenvalues --    3.07925   3.08341   3.08629   3.09543   3.10016
 Alpha virt. eigenvalues --    3.10661   3.11113   3.12317   3.12413   3.13242
 Alpha virt. eigenvalues --    3.13461   3.14491   3.15849   3.16238   3.18297
 Alpha virt. eigenvalues --    3.19046   3.19791   3.20570   3.21718   3.22218
 Alpha virt. eigenvalues --    3.23178   3.23693   3.24142   3.24635   3.25447
 Alpha virt. eigenvalues --    3.25775   3.26253   3.26981   3.27787   3.28248
 Alpha virt. eigenvalues --    3.28945   3.29681   3.30308   3.30823   3.31311
 Alpha virt. eigenvalues --    3.32098   3.32306   3.33752   3.34659   3.35009
 Alpha virt. eigenvalues --    3.35745   3.36447   3.37224   3.38377   3.38938
 Alpha virt. eigenvalues --    3.39051   3.40592   3.41193   3.41575   3.43368
 Alpha virt. eigenvalues --    3.43774   3.44307   3.45513   3.46396   3.46567
 Alpha virt. eigenvalues --    3.46919   3.47711   3.48694   3.49810   3.50380
 Alpha virt. eigenvalues --    3.51780   3.52249   3.53490   3.54447   3.56862
 Alpha virt. eigenvalues --    3.59226   3.60964   3.62705   3.62974   3.64340
 Alpha virt. eigenvalues --    3.64940   3.65781   3.67436   3.67841   3.69784
 Alpha virt. eigenvalues --    3.70771   3.72796   3.75933   3.78087   3.80145
 Alpha virt. eigenvalues --    3.81088   3.81790   3.82955   3.83244   3.84793
 Alpha virt. eigenvalues --    3.86007   3.87877   3.88709   3.91080   3.93582
 Alpha virt. eigenvalues --    3.94290   3.95316   3.95781   3.97543   3.99465
 Alpha virt. eigenvalues --    4.00088   4.00104   4.01326   4.01880   4.04108
 Alpha virt. eigenvalues --    4.04352   4.05957   4.07625   4.09461   4.09542
 Alpha virt. eigenvalues --    4.10168   4.11236   4.11936   4.12743   4.13296
 Alpha virt. eigenvalues --    4.13727   4.14496   4.15093   4.16311   4.16761
 Alpha virt. eigenvalues --    4.19299   4.20044   4.20519   4.22069   4.23691
 Alpha virt. eigenvalues --    4.24973   4.25949   4.27493   4.28952   4.29653
 Alpha virt. eigenvalues --    4.31459   4.32887   4.35147   4.38594   4.41006
 Alpha virt. eigenvalues --    4.42854   4.48403   4.50819   4.53264   4.55343
 Alpha virt. eigenvalues --    4.58325   4.61157   4.62286   4.63835   4.64582
 Alpha virt. eigenvalues --    4.64867   4.65967   4.66776   4.69545   4.71549
 Alpha virt. eigenvalues --    4.72751   4.76152   4.77308   4.81786   4.83842
 Alpha virt. eigenvalues --    4.85663   4.86983   4.87483   4.90093   4.91798
 Alpha virt. eigenvalues --    4.93538   4.97964   4.99332   5.03393   5.04871
 Alpha virt. eigenvalues --    5.05647   5.09699   5.12375   5.12922   5.13574
 Alpha virt. eigenvalues --    5.16026   5.17418   5.19736   5.22765   5.27726
 Alpha virt. eigenvalues --    5.30086   5.32873   5.33139   5.35197   5.37895
 Alpha virt. eigenvalues --    5.43830   5.45848   5.51139   5.56907   5.60148
 Alpha virt. eigenvalues --    5.62822   5.64352   5.72204   5.82001   5.84972
 Alpha virt. eigenvalues --    5.90209   5.98110   6.23662   8.81308   9.24366
 Alpha virt. eigenvalues --    9.41248  20.07954  21.81082  21.95275  22.07791
 Alpha virt. eigenvalues --   22.29761  22.31671  22.32200  22.36831  22.37342
 Alpha virt. eigenvalues --   22.39462  22.51983  22.52758  22.56047  22.60318
 Alpha virt. eigenvalues --   22.63509  22.92137  22.97581  23.00333  32.28596
 Alpha virt. eigenvalues --   32.86115
          Condensed to atoms (all electrons):
               1          2          3          4          5          6
     1  C    5.129039   0.263288   0.184144  -0.220095   0.166647   0.307883
     2  C    0.263288   5.441281   0.065126   0.168383  -0.262038   0.124881
     3  C    0.184144   0.065126   5.385805   0.160008   0.213063  -0.187484
     4  C   -0.220095   0.168383   0.160008   5.464457   0.112350   0.151724
     5  C    0.166647  -0.262038   0.213063   0.112350   5.540161   0.204356
     6  C    0.307883   0.124881  -0.187484   0.151724   0.204356   5.153866
     7  C   -0.000703   0.003516   0.002377  -0.118319  -0.002997   0.000624
     8  C   -0.001429   0.004341  -0.040295  -0.000646  -0.005677   0.000736
     9  C   -0.000350   0.004528   0.006506  -0.003787  -0.002281   0.000200
    10  H   -0.000012   0.000275   0.000390  -0.000207  -0.000048   0.000009
    11  C    0.000022  -0.000315  -0.001797   0.001497   0.000331  -0.000013
    12  C   -0.000006   0.000164   0.001328  -0.003031  -0.000493   0.000034
    13  C    0.000393  -0.002677  -0.007783   0.024179   0.010975  -0.000752
    14  H   -0.069364   0.469157  -0.105085   0.025170  -0.009825   0.019836
    15  H    0.015733  -0.005274   0.014499  -0.078455   0.454999  -0.056796
    16  H   -0.063475   0.016159  -0.005246   0.019636  -0.064149   0.440811
    17  H    0.000000  -0.000003   0.000003   0.000012   0.000001  -0.000000
    18  H   -0.000000   0.000001  -0.000001  -0.000021  -0.000003   0.000000
    19  C   -0.001970   0.004434  -0.013861  -0.101317  -0.026255   0.004255
    20  C    0.000129  -0.000682   0.001113   0.019187   0.002339  -0.000040
    21  C    0.000010  -0.000024  -0.000023   0.001178   0.000404  -0.000078
    22  C    0.000127  -0.000164  -0.000572  -0.001804   0.003429  -0.000510
    23  C    0.000010  -0.000010   0.000048   0.000279   0.000132  -0.000039
    24  H    0.000000  -0.000000  -0.000003   0.000078   0.000013  -0.000000
    25  H   -0.000033   0.000024  -0.000063   0.000422  -0.000425   0.000207
    26  H   -0.000011   0.000053   0.000283  -0.004058  -0.000596   0.000039
    27  H   -0.000000   0.000000   0.000000  -0.000047  -0.000010   0.000002
    28  H    0.447755  -0.070493   0.020463  -0.007037   0.019686  -0.068039
    29  N   -0.005515   0.026132  -0.089707   0.300922  -0.108516   0.014707
    30  H   -0.000006   0.000029  -0.000084   0.001352  -0.000027   0.000026
    31  S    0.014610  -0.072514   0.390860  -0.090803   0.026425  -0.004253
    32  N    0.002497  -0.003016   0.008020  -0.018086   0.034555  -0.013229
               7          8          9         10         11         12
     1  C   -0.000703  -0.001429  -0.000350  -0.000012   0.000022  -0.000006
     2  C    0.003516   0.004341   0.004528   0.000275  -0.000315   0.000164
     3  C    0.002377  -0.040295   0.006506   0.000390  -0.001797   0.001328
     4  C   -0.118319  -0.000646  -0.003787  -0.000207   0.001497  -0.003031
     5  C   -0.002997  -0.005677  -0.002281  -0.000048   0.000331  -0.000493
     6  C    0.000624   0.000736   0.000200   0.000009  -0.000013   0.000034
     7  C    5.522016   0.203510   0.119942   0.024211  -0.185532   0.073315
     8  C    0.203510   5.315227   0.136166  -0.099397   0.150233  -0.140767
     9  C    0.119942   0.136166   5.360971   0.462846   0.299131   0.084034
    10  H    0.024211  -0.099397   0.462846   0.532663  -0.068707   0.018936
    11  C   -0.185532   0.150233   0.299131  -0.068707   5.114140   0.329972
    12  C    0.073315  -0.140767   0.084034   0.018936   0.329972   5.118550
    13  C    0.193696   0.126365  -0.179865  -0.008301   0.111720   0.292744
    14  H    0.000094   0.000159   0.000220   0.000054  -0.000013   0.000008
    15  H   -0.000428  -0.000223   0.000025   0.000000  -0.000007   0.000027
    16  H    0.000019  -0.000001   0.000001   0.000000  -0.000000  -0.000000
    17  H   -0.005485   0.018157  -0.066808  -0.010061   0.445438  -0.065469
    18  H    0.017595  -0.004517   0.015316  -0.000199  -0.062625   0.439504
    19  C   -0.081351  -0.029320   0.005319   0.000038  -0.001348  -0.002689
    20  C   -0.025579   0.012437  -0.002882  -0.000020   0.001568  -0.003043
    21  C   -0.006548  -0.000520  -0.000036  -0.000001   0.000093  -0.000277
    22  C   -0.001777  -0.000007   0.000010  -0.000000  -0.000001  -0.000004
    23  C    0.000191   0.000080  -0.000012  -0.000000   0.000001   0.000028
    24  H    0.000001  -0.000008   0.000002   0.000000  -0.000003   0.000011
    25  H    0.000105   0.000002   0.000000  -0.000000  -0.000000  -0.000000
    26  H    0.005211   0.003753   0.000410   0.000007  -0.000126   0.001161
    27  H    0.000018   0.000001  -0.000000   0.000000  -0.000000  -0.000000
    28  H   -0.000006   0.000011  -0.000002  -0.000000   0.000000  -0.000000
    29  N    0.296559  -0.077963   0.014579  -0.000210  -0.000250   0.006402
    30  H   -0.064735   0.013634  -0.002709   0.000054   0.012718  -0.051300
    31  S   -0.118620   0.411173  -0.072177   0.002801   0.013526  -0.003283
    32  N   -0.000551  -0.000660   0.000053  -0.000001  -0.000002  -0.000168
              13         14         15         16         17         18
     1  C    0.000393  -0.069364   0.015733  -0.063475   0.000000  -0.000000
     2  C   -0.002677   0.469157  -0.005274   0.016159  -0.000003   0.000001
     3  C   -0.007783  -0.105085   0.014499  -0.005246   0.000003  -0.000001
     4  C    0.024179   0.025170  -0.078455   0.019636   0.000012  -0.000021
     5  C    0.010975  -0.009825   0.454999  -0.064149   0.000001  -0.000003
     6  C   -0.000752   0.019836  -0.056796   0.440811  -0.000000   0.000000
     7  C    0.193696   0.000094  -0.000428   0.000019  -0.005485   0.017595
     8  C    0.126365   0.000159  -0.000223  -0.000001   0.018157  -0.004517
     9  C   -0.179865   0.000220   0.000025   0.000001  -0.066808   0.015316
    10  H   -0.008301   0.000054   0.000000   0.000000  -0.010061  -0.000199
    11  C    0.111720  -0.000013  -0.000007  -0.000000   0.445438  -0.062625
    12  C    0.292744   0.000008   0.000027  -0.000000  -0.065469   0.439504
    13  C    5.343956  -0.000046   0.000268  -0.000005   0.017327  -0.060911
    14  H   -0.000046   0.533855   0.000023  -0.000208  -0.000000   0.000000
    15  H    0.000268   0.000023   0.518928  -0.009720  -0.000000  -0.000000
    16  H   -0.000005  -0.000208  -0.009720   0.528867   0.000000  -0.000000
    17  H    0.017327  -0.000000  -0.000000   0.000000   0.527711  -0.008493
    18  H   -0.060911   0.000000  -0.000000  -0.000000  -0.008493   0.524753
    19  C   -0.002688   0.000062  -0.004794   0.000006   0.000005   0.000143
    20  C    0.017329  -0.000005  -0.000563  -0.000007   0.000009  -0.000198
    21  C    0.003989  -0.000000   0.000425  -0.000000   0.000000  -0.000008
    22  C   -0.000210  -0.000000   0.001961  -0.000017  -0.000000   0.000001
    23  C    0.000133  -0.000000   0.000182  -0.000002   0.000000  -0.000001
    24  H   -0.000051  -0.000000   0.000004  -0.000000  -0.000000   0.000000
    25  H   -0.000017   0.000000  -0.000806   0.000013   0.000000   0.000000
    26  H   -0.006764   0.000000  -0.000118   0.000000  -0.000001   0.000049
    27  H    0.000000   0.000000  -0.000027   0.000000  -0.000000   0.000000
    28  H    0.000002  -0.010194  -0.000111  -0.008730   0.000000   0.000000
    29  N   -0.054700  -0.000085  -0.008446  -0.000067   0.000028  -0.000295
    30  H    0.440064   0.000001   0.000074  -0.000000  -0.000181  -0.008950
    31  S    0.024286   0.002151  -0.000366   0.000034  -0.000407   0.000035
    32  N   -0.001079  -0.000009   0.032342  -0.000364   0.000000   0.000002
              19         20         21         22         23         24
     1  C   -0.001970   0.000129   0.000010   0.000127   0.000010   0.000000
     2  C    0.004434  -0.000682  -0.000024  -0.000164  -0.000010  -0.000000
     3  C   -0.013861   0.001113  -0.000023  -0.000572   0.000048  -0.000003
     4  C   -0.101317   0.019187   0.001178  -0.001804   0.000279   0.000078
     5  C   -0.026255   0.002339   0.000404   0.003429   0.000132   0.000013
     6  C    0.004255  -0.000040  -0.000078  -0.000510  -0.000039  -0.000000
     7  C   -0.081351  -0.025579  -0.006548  -0.001777   0.000191   0.000001
     8  C   -0.029320   0.012437  -0.000520  -0.000007   0.000080  -0.000008
     9  C    0.005319  -0.002882  -0.000036   0.000010  -0.000012   0.000002
    10  H    0.000038  -0.000020  -0.000001  -0.000000  -0.000000   0.000000
    11  C   -0.001348   0.001568   0.000093  -0.000001   0.000001  -0.000003
    12  C   -0.002689  -0.003043  -0.000277  -0.000004   0.000028   0.000011
    13  C   -0.002688   0.017329   0.003989  -0.000210   0.000133  -0.000051
    14  H    0.000062  -0.000005  -0.000000  -0.000000  -0.000000  -0.000000
    15  H   -0.004794  -0.000563   0.000425   0.001961   0.000182   0.000004
    16  H    0.000006  -0.000007  -0.000000  -0.000017  -0.000002  -0.000000
    17  H    0.000005   0.000009   0.000000  -0.000000   0.000000  -0.000000
    18  H    0.000143  -0.000198  -0.000008   0.000001  -0.000001   0.000000
    19  C    4.916078   0.428805  -0.004154  -0.075044  -0.052832   0.011220
    20  C    0.428805   5.082102   0.455353  -0.056957  -0.007597  -0.052810
    21  C   -0.004154   0.455353   4.980987  -0.002284   0.447707   0.432896
    22  C   -0.075044  -0.056957  -0.002284   4.822698   0.487635   0.008702
    23  C   -0.052832  -0.007597   0.447707   0.487635   5.034696  -0.052875
    24  H    0.011220  -0.052810   0.432896   0.008702  -0.052875   0.518620
    25  H    0.003728   0.000710   0.004651   0.422146  -0.070893  -0.000400
    26  H   -0.057686   0.430712  -0.054636  -0.002161   0.013633  -0.009507
    27  H   -0.002708   0.013618  -0.060047  -0.034052   0.406912  -0.008084
    28  H    0.000005   0.000001   0.000000   0.000000   0.000000   0.000000
    29  N    0.459263  -0.070233  -0.000193  -0.000273   0.002149  -0.000158
    30  H   -0.002535   0.002631   0.000483   0.000073   0.000061   0.000011
    31  S    0.004054   0.002668  -0.000034   0.000057   0.000045  -0.000003
    32  N    0.424818  -0.039345  -0.047757   0.547815  -0.064163  -0.001396
              25         26         27         28         29         30
     1  C   -0.000033  -0.000011  -0.000000   0.447755  -0.005515  -0.000006
     2  C    0.000024   0.000053   0.000000  -0.070493   0.026132   0.000029
     3  C   -0.000063   0.000283   0.000000   0.020463  -0.089707  -0.000084
     4  C    0.000422  -0.004058  -0.000047  -0.007037   0.300922   0.001352
     5  C   -0.000425  -0.000596  -0.000010   0.019686  -0.108516  -0.000027
     6  C    0.000207   0.000039   0.000002  -0.068039   0.014707   0.000026
     7  C    0.000105   0.005211   0.000018  -0.000006   0.296559  -0.064735
     8  C    0.000002   0.003753   0.000001   0.000011  -0.077963   0.013634
     9  C    0.000000   0.000410  -0.000000  -0.000002   0.014579  -0.002709
    10  H   -0.000000   0.000007   0.000000  -0.000000  -0.000210   0.000054
    11  C   -0.000000  -0.000126  -0.000000   0.000000  -0.000250   0.012718
    12  C   -0.000000   0.001161  -0.000000  -0.000000   0.006402  -0.051300
    13  C   -0.000017  -0.006764   0.000000   0.000002  -0.054700   0.440064
    14  H    0.000000   0.000000   0.000000  -0.010194  -0.000085   0.000001
    15  H   -0.000806  -0.000118  -0.000027  -0.000111  -0.008446   0.000074
    16  H    0.000013   0.000000   0.000000  -0.008730  -0.000067  -0.000000
    17  H    0.000000  -0.000001  -0.000000   0.000000   0.000028  -0.000181
    18  H    0.000000   0.000049   0.000000   0.000000  -0.000295  -0.008950
    19  C    0.003728  -0.057686  -0.002708   0.000005   0.459263  -0.002535
    20  C    0.000710   0.430712   0.013618   0.000001  -0.070233   0.002631
    21  C    0.004651  -0.054636  -0.060047   0.000000  -0.000193   0.000483
    22  C    0.422146  -0.002161  -0.034052   0.000000  -0.000273   0.000073
    23  C   -0.070893   0.013633   0.406912   0.000000   0.002149   0.000061
    24  H   -0.000400  -0.009507  -0.008084   0.000000  -0.000158   0.000011
    25  H    0.543034   0.000179  -0.001474  -0.000000   0.000120  -0.000004
    26  H    0.000179   0.516892   0.000125  -0.000000  -0.005388  -0.001465
    27  H   -0.001474   0.000125   0.525038  -0.000000   0.000063  -0.000001
    28  H   -0.000000  -0.000000  -0.000000   0.530865  -0.000000  -0.000000
    29  N    0.000120  -0.005388   0.000063  -0.000000   6.281553   0.001299
    30  H   -0.000004  -0.001465  -0.000001  -0.000000   0.001299   0.512027
    31  S    0.000000   0.000025   0.000000  -0.000416  -0.003806  -0.000451
    32  N   -0.040918   0.005897   0.009023   0.000010  -0.114341  -0.000375
              31         32
     1  C    0.014610   0.002497
     2  C   -0.072514  -0.003016
     3  C    0.390860   0.008020
     4  C   -0.090803  -0.018086
     5  C    0.026425   0.034555
     6  C   -0.004253  -0.013229
     7  C   -0.118620  -0.000551
     8  C    0.411173  -0.000660
     9  C   -0.072177   0.000053
    10  H    0.002801  -0.000001
    11  C    0.013526  -0.000002
    12  C   -0.003283  -0.000168
    13  C    0.024286  -0.001079
    14  H    0.002151  -0.000009
    15  H   -0.000366   0.032342
    16  H    0.000034  -0.000364
    17  H   -0.000407   0.000000
    18  H    0.000035   0.000002
    19  C    0.004054   0.424818
    20  C    0.002668  -0.039345
    21  C   -0.000034  -0.047757
    22  C    0.000057   0.547815
    23  C    0.000045  -0.064163
    24  H   -0.000003  -0.001396
    25  H    0.000000  -0.040918
    26  H    0.000025   0.005897
    27  H    0.000000   0.009023
    28  H   -0.000416   0.000010
    29  N   -0.003806  -0.114341
    30  H   -0.000451  -0.000375
    31  S   15.567200  -0.000388
    32  N   -0.000388   6.549480
 Mulliken charges:
               1
     1  C   -0.169317
     2  C   -0.174561
     3  C   -0.002029
     4  C    0.196879
     5  C   -0.306524
     6  C   -0.092962
     7  C    0.149628
     8  C    0.005447
     9  C   -0.179350
    10  H    0.144882
    11  C   -0.159652
    12  C   -0.095688
    13  C   -0.281577
    14  H    0.144046
    15  H    0.126644
    16  H    0.146447
    17  H    0.148215
    18  H    0.148822
    19  C    0.198318
    20  C   -0.210750
    21  C   -0.151554
    22  C   -0.118817
    23  C   -0.145501
    24  H    0.153740
    25  H    0.139690
    26  H    0.164087
    27  H    0.151648
    28  H    0.146231
    29  N    0.136369
    30  H    0.148285
    31  S   -0.092431
    32  N   -0.268665
 Sum of Mulliken charges =  -0.00000
 Mulliken charges with hydrogens summed into heavy atoms:
               1
     1  C   -0.023086
     2  C   -0.030516
     3  C   -0.002029
     4  C    0.196879
     5  C   -0.179880
     6  C    0.053485
     7  C    0.149628
     8  C    0.005447
     9  C   -0.034468
    11  C   -0.011437
    12  C    0.053134
    13  C   -0.133292
    19  C    0.198318
    20  C   -0.046664
    21  C    0.002186
    22  C    0.020873
    23  C    0.006147
    29  N    0.136369
[...]
 Alpha virt. eigenvalues --    4.65013   4.66275   4.66892   4.69103   4.71384
 Alpha virt. eigenvalues --    4.72516   4.75618   4.77162   4.81572   4.83875
 Alpha virt. eigenvalues --    4.85376   4.87140   4.88422   4.89952   4.93003
 Alpha virt. eigenvalues --    4.94690   4.97309   4.98318   5.03431   5.04810
 Alpha virt. eigenvalues --    5.06611   5.09699   5.11852   5.12939   5.13019
 Alpha virt. eigenvalues --    5.14659   5.17729   5.19497   5.22384   5.27745
 Alpha virt. eigenvalues --    5.29550   5.31214   5.33430   5.35333   5.37403
 Alpha virt. eigenvalues --    5.43702   5.46152   5.51282   5.56417   5.59053
 Alpha virt. eigenvalues --    5.63141   5.65056   5.74061   5.82126   5.83119
 Alpha virt. eigenvalues --    5.92241   5.99007   6.23139   8.81459   9.24914
 Alpha virt. eigenvalues --    9.41467  20.13182  21.81027  21.96128  22.07321
 Alpha virt. eigenvalues --   22.29582  22.32077  22.32819  22.37009  22.37453
 Alpha virt. eigenvalues --   22.39675  22.52844  22.52958  22.56399  22.60822
 Alpha virt. eigenvalues --   22.63447  22.91558  22.97590  23.01430  32.26313
 Alpha virt. eigenvalues --   32.87240
          Condensed to atoms (all electrons):
               1          2          3          4          5          6
     1  C    5.109432   0.285643   0.163536  -0.194507   0.133022   0.333152
     2  C    0.285643   5.416594   0.090916   0.137571  -0.227624   0.099000
     3  C    0.163536   0.090916   5.347329   0.210769   0.170621  -0.161013
     4  C   -0.194507   0.137571   0.210769   5.420591   0.156238   0.106726
     5  C    0.133022  -0.227624   0.170621   0.156238   5.467663   0.263430
     6  C    0.333152   0.099000  -0.161013   0.106726   0.263430   5.110620
     7  C   -0.000021   0.000728  -0.004038  -0.106687   0.006682  -0.000810
     8  C   -0.001535   0.005404  -0.040187  -0.007546  -0.007088   0.000997
     9  C   -0.000393   0.005010   0.006171  -0.003537  -0.002587   0.000222
    10  H   -0.000012   0.000252   0.000353  -0.000125  -0.000044   0.000008
    11  C    0.000027  -0.000353  -0.001471   0.001093   0.000362  -0.000015
    12  C   -0.000010   0.000190   0.000900  -0.002689  -0.000531   0.000038
    13  C    0.000397  -0.002787  -0.005810   0.024546   0.011115  -0.000675
    14  H   -0.068080   0.466545  -0.101974   0.024132  -0.008913   0.018912
    15  H    0.013721  -0.003726   0.012169  -0.073718   0.452223  -0.051887
    16  H   -0.062650   0.015604  -0.004780   0.018630  -0.062426   0.439265
    17  H    0.000000  -0.000002   0.000006   0.000009   0.000001  -0.000000
    18  H   -0.000000   0.000001  -0.000002  -0.000026  -0.000004   0.000000
    19  C   -0.001486   0.003948  -0.013807  -0.107161  -0.022835   0.002329
    20  C    0.000095  -0.000469  -0.000815   0.021435   0.001394  -0.000155
    21  C    0.000003  -0.000012   0.000079   0.000607   0.000254  -0.000037
    22  C    0.000080  -0.000130  -0.000547  -0.003505   0.004451  -0.000225
    23  C    0.000007  -0.000007  -0.000089   0.000751   0.000267  -0.000026
    24  H    0.000000  -0.000000  -0.000003   0.000065   0.000010  -0.000000
    25  H   -0.000023   0.000018  -0.000007   0.000191  -0.000648   0.000161
    26  H   -0.000004   0.000023   0.000261  -0.003791  -0.000427   0.000020
    27  H   -0.000000   0.000000   0.000001  -0.000043  -0.000016   0.000001
    28  H    0.445490  -0.068438   0.019264  -0.006002   0.018041  -0.065666
    29  N   -0.004053   0.025745  -0.084388   0.269379  -0.100137   0.011556
    30  H   -0.000003   0.000016  -0.000048   0.001489   0.000073   0.000030
    31  S    0.014539  -0.071752   0.397506  -0.100610   0.025896  -0.004040
    32  N    0.001588  -0.002674   0.007619  -0.011524   0.043074  -0.008975
               7          8          9         10         11         12
     1  C   -0.000021  -0.001535  -0.000393  -0.000012   0.000027  -0.000010
     2  C    0.000728   0.005404   0.005010   0.000252  -0.000353   0.000190
     3  C   -0.004038  -0.040187   0.006171   0.000353  -0.001471   0.000900
     4  C   -0.106687  -0.007546  -0.003537  -0.000125   0.001093  -0.002689
     5  C    0.006682  -0.007088  -0.002587  -0.000044   0.000362  -0.000531
     6  C   -0.000810   0.000997   0.000222   0.000008  -0.000015   0.000038
     7  C    5.493016   0.216505   0.122629   0.023990  -0.190869   0.077709
     8  C    0.216505   5.329274   0.129181  -0.099628   0.155611  -0.146324
     9  C    0.122629   0.129181   5.369299   0.463593   0.292678   0.089778
    10  H    0.023990  -0.099628   0.463593   0.531294  -0.068132   0.018791
    11  C   -0.190869   0.155611   0.292678  -0.068132   5.119919   0.326351
    12  C    0.077709  -0.146324   0.089778   0.018791   0.326351   5.117831
    13  C    0.160575   0.126539  -0.189244  -0.008306   0.118307   0.287078
    14  H    0.000032   0.000240   0.000239   0.000052  -0.000014   0.000009
    15  H    0.000457  -0.000150   0.000022   0.000000  -0.000005   0.000016
    16  H    0.000011  -0.000001   0.000001   0.000000  -0.000000   0.000000
    17  H   -0.005632   0.018492  -0.066966  -0.010077   0.445397  -0.065300
    18  H    0.018806  -0.004794   0.015706  -0.000202  -0.064106   0.440313
    19  C   -0.075610  -0.026389   0.004814   0.000054  -0.001809   0.000125
    20  C   -0.028993   0.009158  -0.001726  -0.000020   0.000941  -0.001866
    21  C   -0.005041  -0.000499  -0.000128  -0.000001   0.000114  -0.000150
    22  C   -0.000841  -0.000103  -0.000002  -0.000000   0.000001  -0.000008
    23  C   -0.000182   0.000055   0.000003  -0.000000  -0.000002   0.000016
    24  H    0.000002  -0.000004  -0.000000   0.000000  -0.000001   0.000004
    25  H    0.000093   0.000004   0.000000  -0.000000  -0.000000   0.000000
    26  H    0.008230   0.002635   0.000809   0.000007  -0.000712   0.003218
    27  H    0.000012   0.000001   0.000000   0.000000  -0.000000   0.000000
    28  H    0.000001   0.000007  -0.000003  -0.000000   0.000000  -0.000000
    29  N    0.288376  -0.078984   0.016114  -0.000200  -0.000569   0.006295
    30  H   -0.071786   0.014271  -0.003380   0.000051   0.013717  -0.051577
    31  S   -0.115251   0.409786  -0.070357   0.002811   0.013549  -0.003590
    32  N    0.003690  -0.000596   0.000027  -0.000000  -0.000004  -0.000087
              13         14         15         16         17         18
     1  C    0.000397  -0.068080   0.013721  -0.062650   0.000000  -0.000000
     2  C   -0.002787   0.466545  -0.003726   0.015604  -0.000002   0.000001
     3  C   -0.005810  -0.101974   0.012169  -0.004780   0.000006  -0.000002
     4  C    0.024546   0.024132  -0.073718   0.018630   0.000009  -0.000026
     5  C    0.011115  -0.008913   0.452223  -0.062426   0.000001  -0.000004
     6  C   -0.000675   0.018912  -0.051887   0.439265  -0.000000   0.000000
     7  C    0.160575   0.000032   0.000457   0.000011  -0.005632   0.018806
     8  C    0.126539   0.000240  -0.000150  -0.000001   0.018492  -0.004794
     9  C   -0.189244   0.000239   0.000022   0.000001  -0.066966   0.015706
    10  H   -0.008306   0.000052   0.000000   0.000000  -0.010077  -0.000202
    11  C    0.118307  -0.000014  -0.000005  -0.000000   0.445397  -0.064106
    12  C    0.287078   0.000009   0.000016   0.000000  -0.065300   0.440313
    13  C    5.403259  -0.000047   0.000185  -0.000006   0.017392  -0.061782
    14  H   -0.000047   0.532473   0.000041  -0.000215  -0.000000   0.000000
    15  H    0.000185   0.000041   0.518831  -0.009344  -0.000000  -0.000000
    16  H   -0.000006  -0.000215  -0.009344   0.527920   0.000000  -0.000000
    17  H    0.017392  -0.000000  -0.000000   0.000000   0.527512  -0.008516
    18  H   -0.061782   0.000000  -0.000000  -0.000000  -0.008516   0.525780
    19  C   -0.005930   0.000049  -0.002432   0.000018   0.000001   0.000129
    20  C    0.014779  -0.000005  -0.000844  -0.000003   0.000010  -0.000125
    21  C    0.006278   0.000000   0.000264  -0.000000   0.000000  -0.000010
    22  C   -0.000065  -0.000000   0.001574  -0.000019   0.000000   0.000000
    23  C   -0.000257  -0.000000  -0.000020  -0.000001  -0.000000  -0.000000
    24  H    0.000025  -0.000000   0.000002  -0.000000  -0.000000  -0.000000
    25  H   -0.000014   0.000000  -0.000286   0.000007   0.000000   0.000000
    26  H   -0.013854   0.000000  -0.000075   0.000000  -0.000008   0.000134
    27  H   -0.000001   0.000000  -0.000014   0.000000  -0.000000   0.000000
    28  H    0.000002  -0.010098  -0.000168  -0.008561   0.000000   0.000000
    29  N   -0.050938  -0.000103  -0.004131  -0.000134   0.000028  -0.000303
    30  H    0.447912   0.000001   0.000111  -0.000001  -0.000168  -0.009224
    31  S    0.025319   0.002120  -0.000413   0.000035  -0.000421   0.000033
    32  N   -0.001329  -0.000007   0.016666  -0.000224  -0.000000   0.000001
              19         20         21         22         23         24
     1  C   -0.001486   0.000095   0.000003   0.000080   0.000007   0.000000
     2  C    0.003948  -0.000469  -0.000012  -0.000130  -0.000007  -0.000000
     3  C   -0.013807  -0.000815   0.000079  -0.000547  -0.000089  -0.000003
     4  C   -0.107161   0.021435   0.000607  -0.003505   0.000751   0.000065
     5  C   -0.022835   0.001394   0.000254   0.004451   0.000267   0.000010
     6  C    0.002329  -0.000155  -0.000037  -0.000225  -0.000026  -0.000000
     7  C   -0.075610  -0.028993  -0.005041  -0.000841  -0.000182   0.000002
     8  C   -0.026389   0.009158  -0.000499  -0.000103   0.000055  -0.000004
     9  C    0.004814  -0.001726  -0.000128  -0.000002   0.000003  -0.000000
    10  H    0.000054  -0.000020  -0.000001  -0.000000  -0.000000   0.000000
    11  C   -0.001809   0.000941   0.000114   0.000001  -0.000002  -0.000001
    12  C    0.000125  -0.001866  -0.000150  -0.000008   0.000016   0.000004
    13  C   -0.005930   0.014779   0.006278  -0.000065  -0.000257   0.000025
    14  H    0.000049  -0.000005   0.000000  -0.000000  -0.000000  -0.000000
    15  H   -0.002432  -0.000844   0.000264   0.001574  -0.000020   0.000002
    16  H    0.000018  -0.000003  -0.000000  -0.000019  -0.000001  -0.000000
    17  H    0.000001   0.000010   0.000000   0.000000  -0.000000  -0.000000
    18  H    0.000129  -0.000125  -0.000010   0.000000  -0.000000  -0.000000
    19  C    4.890335   0.432304  -0.009844  -0.071475  -0.053408   0.011476
    20  C    0.432304   5.100051   0.467698  -0.054865  -0.009280  -0.053248
    21  C   -0.009844   0.467698   4.961260  -0.010480   0.455320   0.432828
    22  C   -0.071475  -0.054865  -0.010480   4.831429   0.477850   0.008673
    23  C   -0.053408  -0.009280   0.455320   0.477850   5.054719  -0.053156
    24  H    0.011476  -0.053248   0.432828   0.008673  -0.053156   0.519056
    25  H    0.003651   0.000583   0.005067   0.425352  -0.072625  -0.000382
    26  H   -0.057263   0.428045  -0.050238  -0.001705   0.013260  -0.009416
    27  H   -0.002781   0.013214  -0.059557  -0.031770   0.405635  -0.007942
    28  H    0.000010   0.000001  -0.000000   0.000000   0.000000   0.000000
    29  N    0.465314  -0.072711   0.000583   0.000798   0.001562  -0.000140
    30  H   -0.002383  -0.000330   0.000722   0.000041   0.000000   0.000025
    31  S    0.006021   0.002407   0.000034   0.000107   0.000026  -0.000001
    32  N    0.425558  -0.032260  -0.046877   0.542580  -0.067078  -0.001290
              25         26         27         28         29         30
     1  C   -0.000023  -0.000004  -0.000000   0.445490  -0.004053  -0.000003
     2  C    0.000018   0.000023   0.000000  -0.068438   0.025745   0.000016
     3  C   -0.000007   0.000261   0.000001   0.019264  -0.084388  -0.000048
     4  C    0.000191  -0.003791  -0.000043  -0.006002   0.269379   0.001489
     5  C   -0.000648  -0.000427  -0.000016   0.018041  -0.100137   0.000073
     6  C    0.000161   0.000020   0.000001  -0.065666   0.011556   0.000030
     7  C    0.000093   0.008230   0.000012   0.000001   0.288376  -0.071786
     8  C    0.000004   0.002635   0.000001   0.000007  -0.078984   0.014271
     9  C    0.000000   0.000809   0.000000  -0.000003   0.016114  -0.003380
    10  H   -0.000000   0.000007   0.000000  -0.000000  -0.000200   0.000051
    11  C   -0.000000  -0.000712  -0.000000   0.000000  -0.000569   0.013717
    12  C    0.000000   0.003218   0.000000  -0.000000   0.006295  -0.051577
    13  C   -0.000014  -0.013854  -0.000001   0.000002  -0.050938   0.447912
    14  H    0.000000   0.000000   0.000000  -0.010098  -0.000103   0.000001
    15  H   -0.000286  -0.000075  -0.000014  -0.000168  -0.004131   0.000111
    16  H    0.000007   0.000000   0.000000  -0.008561  -0.000134  -0.000001
    17  H    0.000000  -0.000008  -0.000000   0.000000   0.000028  -0.000168
    18  H    0.000000   0.000134   0.000000   0.000000  -0.000303  -0.009224
    19  C    0.003651  -0.057263  -0.002781   0.000010   0.465314  -0.002383
    20  C    0.000583   0.428045   0.013214   0.000001  -0.072711  -0.000330
    21  C    0.005067  -0.050238  -0.059557  -0.000000   0.000583   0.000722
    22  C    0.425352  -0.001705  -0.031770   0.000000   0.000798   0.000041
    23  C   -0.072625   0.013260   0.405635   0.000000   0.001562   0.000000
    24  H   -0.000382  -0.009416  -0.007942   0.000000  -0.000140   0.000025
    25  H    0.541389   0.000176  -0.001777  -0.000000   0.000153  -0.000002
    26  H    0.000176   0.514398   0.000116   0.000000  -0.005805  -0.002795
    27  H   -0.001777   0.000116   0.524907  -0.000000   0.000058  -0.000000
    28  H   -0.000000   0.000000  -0.000000   0.529949   0.000008  -0.000000
    29  N    0.000153  -0.005805   0.000058   0.000008   6.301628   0.002499
    30  H   -0.000002  -0.002795  -0.000000  -0.000000   0.002499   0.506923
    31  S    0.000002  -0.000018  -0.000000  -0.000419  -0.004094  -0.000419
    32  N   -0.041200   0.006095   0.008880   0.000005  -0.112019  -0.000404
              31         32
     1  C    0.014539   0.001588
     2  C   -0.071752  -0.002674
     3  C    0.397506   0.007619
     4  C   -0.100610  -0.011524
     5  C    0.025896   0.043074
     6  C   -0.004040  -0.008975
     7  C   -0.115251   0.003690
     8  C    0.409786  -0.000596
     9  C   -0.070357   0.000027
    10  H    0.002811  -0.000000
    11  C    0.013549  -0.000004
    12  C   -0.003590  -0.000087
    13  C    0.025319  -0.001329
    14  H    0.002120  -0.000007
    15  H   -0.000413   0.016666
    16  H    0.000035  -0.000224
    17  H   -0.000421  -0.000000
    18  H    0.000033   0.000001
    19  C    0.006021   0.425558
    20  C    0.002407  -0.032260
    21  C    0.000034  -0.046877
    22  C    0.000107   0.542580
    23  C    0.000026  -0.067078
    24  H   -0.000001  -0.001290
    25  H    0.000002  -0.041200
    26  H   -0.000018   0.006095
    27  H   -0.000000   0.008880
    28  H   -0.000419   0.000005
    29  N   -0.004094  -0.112019
    30  H   -0.000419  -0.000404
    31  S   15.563338  -0.000948
    32  N   -0.000948   6.547079
 Mulliken charges:
               1
     1  C   -0.167952
     2  C   -0.175233
     3  C   -0.008520
     4  C    0.227248
     5  C   -0.321538
     6  C   -0.092943
     7  C    0.184219
     8  C   -0.004332
     9  C   -0.177971
    10  H    0.145491
    11  C   -0.160004
    12  C   -0.096532
    13  C   -0.302663
    14  H    0.144611
    15  H    0.130932
    16  H    0.146873
    17  H    0.148243
    18  H    0.148193
    19  C    0.208480
    20  C   -0.234397
    21  C   -0.148236
    22  C   -0.117197
    23  C   -0.153340
    24  H    0.153419
    25  H    0.140118
    26  H    0.168685
    27  H    0.151075
    28  H    0.146578
    29  N    0.128613
    30  H    0.154640
    31  S   -0.091195
    32  N   -0.275362
 Sum of Mulliken charges =  -0.00000
 Mulliken charges with hydrogens summed into heavy atoms:
               1
     1  C   -0.021374
     2  C   -0.030622
     3  C   -0.008520
     4  C    0.227248
     5  C   -0.190607
     6  C    0.053930
     7  C    0.184219
     8  C   -0.004332
     9  C   -0.032480
    11  C   -0.011761
    12  C    0.051661
    13  C   -0.148023
    19  C    0.208480
    20  C   -0.065712
    21  C    0.005183
    22  C    0.022921
    23  C   -0.002265
    29  N    0.128613
    31  S   -0.091195
    32  N   -0.275362
 Electronic spatial extent (au):  <R**2>=           5277.8631
 Charge=             -0.0000 electrons
 Dipole moment (field-independent basis, Debye):
    X=             -0.4387    Y=             -2.5341    Z=              1.3460  Tot=              2.9028
 Quadrupole moment (field-independent basis, Debye-Ang):
   XX=           -108.8015   YY=           -103.5859   ZZ=           -122.9382
   XY=              3.1326   XZ=             -1.7347   YZ=              0.1176
 Traceless Quadrupole moment (field-independent basis, Debye-Ang):
   XX=              2.9737   YY=              8.1893   ZZ=            -11.1630
   XY=              3.1326   XZ=             -1.7347   YZ=              0.1176
 Octapole moment (field-independent basis, Debye-Ang**2):
  XXX=            -49.8819  YYY=             -8.7471  ZZZ=              9.3550  XYY=             28.9913
  XXY=            -10.7402  XXZ=            -26.8258  XZZ=             -2.3976  YZZ=             -1.4802
  YYZ=             23.8713  XYZ=             -5.0418
 Hexadecapole moment (field-independent basis, Debye-Ang**3):
 XXXX=          -3160.9889 YYYY=          -2847.2274 ZZZZ=           -691.7031 XXXY=             -7.3462
 XXXZ=             37.9880 YYYX=             14.7449 YYYZ=             -0.9085 ZZZX=            -33.7701
 ZZZY=             -5.0547 XXYY=           -953.2318 XXZZ=           -731.6519 YYZZ=           -603.2731
 XXYZ=             11.1113 YYXZ=             -4.9451 ZZXY=             -2.1590
 N-N= 1.567633483417D+03 E-N=-5.858397621972D+03  KE= 1.157676379692D+03
 Leave Link  601 at Sat Mar 27 23:38:21 2021, MaxMem=  5242880000 cpu:         2.9
 (Enter /opt/nce/packages/global/g09/l9999.exe)
 1\1\GINC-CN043\SP\RPBEPBE TD-FC\Gen\C17H12N2S1\PNG4RJV\27-Mar-2021\0\\
 #p PBEPBE chkbasis geom=allcheck Guess=Read int=ultrafine scrf=(SMD,so
 lvent=n,n-DiMethylAcetamide) td=(NStates=30) EmpiricalDispersion=GD3BJ
 \\Title\\0,1\C,0,-1.9500502145,3.561393534,-0.3691039013\C,0,-2.317385
 5529,2.5013165819,0.4591831022\C,0,-1.547919138,1.3316741085,0.4704484
 11\C,0,-0.4149587168,1.2155379535,-0.3527865822\C,0,-0.0878564281,2.26
 41493731,-1.2205932352\C,0,-0.8438545321,3.4365832241,-1.2162478251\C,
 0,-0.4169065959,-1.1983469445,-0.384451122\C,0,-1.545870899,-1.3497165
 715,0.4381853977\C,0,-2.3034676446,-2.5258265595,0.3899084607\H,0,-3.1
 839744211,-2.6290248367,1.0266548476\C,0,-1.9290080518,-3.5548681781,-
 0.4741654842\C,0,-0.8276739736,-3.3933646716,-1.3214611898\C,0,-0.0854
 418175,-2.2128473753,-1.2902576666\H,0,-3.2007774072,2.5738832317,1.09
 62046163\H,0,0.769710638,2.1594549786,-1.8832225962\H,0,-0.5701498596,
 4.2548837531,-1.8842571138\H,0,-2.514211937,-4.4754274528,-0.501596809
 7\H,0,-0.550458752,-4.1856677597,-2.0184757819\C,0,1.7046028594,-0.001
 7006378,0.0190367994\C,0,2.3816143512,-1.2043938321,0.3262123811\C,0,3
 .7297513755,-1.1398131645,0.6474453426\C,0,3.6265173227,1.2253862601,0
 .3720036246\C,0,4.3855313651,0.0971859685,0.6657823905\H,0,4.267340901
 3,-2.0578834012,0.8929421597\H,0,4.0810982976,2.2210673554,0.390392937
 4\H,0,1.8608302224,-2.1596822654,0.3321045372\H,0,5.4445280666,0.18296
 53971,0.9093700355\H,0,-2.5435227407,4.4771626753,-0.3689950313\N,0,0.
 3396058677,0.0056343208,-0.3003092314\H,0,0.7678735082,-2.0754570178,-
 1.9558953673\S,0,-1.9976644406,-0.0236114403,1.5223828743\N,0,2.322710
 3474,1.189741393,0.0555000201\\Version=ES64L-G09RevE.01\State=1-A\HF=-
 1161.9597754\RMSD=8.467e-09\PG=C01 [X(C17H12N2S1)]\\@


 BLACK HOLES SUCK.
 Job cpu time:       0 days 12 hours  8 minutes  2.1 seconds.
 File lengths (MBytes):  RWF=   1841 Int=      0 D2E=      0 Chk=    437 Scr=      1
 Normal termination of Gaussian 09 at Sat Mar 27 23:38:22 2021.
