 Entering Gaussian System, Link 0=g09
 Input=/home/png4rjv/fotokatalizis/benchmark/OPCs/PTZ_2_CAM-B3LYP-D3_def2TZVP.gjf
 Output=/home/png4rjv/fotokatalizis/benchmark/OPCs/PTZ_2_CAM-B3LYP-D3_def2TZVP.log
 Initial command:
 /opt/nce/packages/global/g09/l1.exe "/home/png4rjv/fotokatalizis/benchmark/OPCs/PTZ_2_CAM-B3LYP-D3_def2TZVP/Gau-47636.inp" -scrdir="/home/png4rjv/fotokatalizis/benchmark/OPCs/PTZ_2_CAM-B3LYP-D3_def2TZVP/"
 Default is to use a total of  12 processors:
                               12 via shared-memory
                                1 via Linda
 Entering Link 1 = /opt/nce/packages/global/g09/l1.exe PID=     47637.
  
 Copyright (c) 1988,1990,1992,1993,1995,1998,2003,2009,2015,
            Gaussian, Inc.  All Rights Reserved.
  
 This is part of the Gaussian(R) 09 program.  It is based on
 the Gaussian(R) 03 system (copyright 2003, Gaussian, Inc.),
 the Gaussian(R) 98 system (copyright 1998, Gaussian, Inc.),
 the Gaussian(R) 94 system (copyright 1995, Gaussian, Inc.),
 the Gaussian 92(TM) system (copyright 1992, Gaussian, Inc.),
 the Gaussian 90(TM) system (copyright 1990, Gaussian, Inc.),
 the Gaussian 88(TM) system (copyright 1988, Gaussian, Inc.),
 the Gaussian 86(TM) system (copyright 1986, Carnegie Mellon
 University), and the Gaussian 82(TM) system (copyright 1983,
 Carnegie Mellon University). Gaussian is a federally registered
 trademark of Gaussian, Inc.
  
 This software contains proprietary and confidential information,
 including trade secrets, belonging to Gaussian, Inc.
  
 This software is provided under written license and may be
 used, copied, transmitted, or stored only in accord with that
 written license.
  
 The following legend is applicable only to US Government
 contracts under FAR:
  
                    RESTRICTED RIGHTS LEGEND
  
 Use, reproduction and disclosure by the US Government is
 subject to restrictions as set forth in subparagraphs (a)
 and (c) of the Commercial Computer Software - Restricted
 Rights clause in FAR 52.227-19.
  
 Gaussian, Inc.
 340 Quinnipiac St., Bldg. 40, Wallingford CT 06492
  
  
 ---------------------------------------------------------------
 Warning -- This program may not be used in any manner that
 competes with the business of Gaussian, Inc. or will provide
 assistance to any competitor of Gaussian, Inc.  The licensee
 of this program is prohibited from giving any competitor of
 Gaussian, Inc. access to this program.  By using this program,
 the user acknowledges that Gaussian, Inc. is engaged in the
 business of creating and licensing software in the field of
 computational chemistry and represents and warrants to the
 licensee that it is not a competitor of Gaussian, Inc. and that
 it will not use this program in any manner prohibited above.
 ---------------------------------------------------------------
  

 Cite this work as:
 Gaussian 09, Revision E.01,
 M. J. Frisch, G. W. Trucks, H. B. Schlegel, G. E. Scuseria, 
 M. A. Robb, J. R. Cheeseman, G. Scalmani, V. Barone, B. Mennucci, 
 G. A. Petersson, H. Nakatsuji, M. Caricato, X. Li, H. P. Hratchian, 
 A. F. Izmaylov, J. Bloino, G. Zheng, J. L. Sonnenberg, M. Hada, 
 M. Ehara, K. Toyota, R. Fukuda, J. Hasegawa, M. Ishida, T. Nakajima, 
 Y. Honda, O. Kitao, H. Nakai, T. Vreven, J. A. Montgomery, Jr., 
 J. E. Peralta, F. Ogliaro, M. Bearpark, J. J. Heyd, E. Brothers, 
 K. N. Kudin, V. N. Staroverov, T. Keith, R. Kobayashi, J. Normand, 
 K. Raghavachari, A. Rendell, J. C. Burant, S. S. Iyengar, J. Tomasi, 
 M. Cossi, N. Rega, J. M. Millam, M. Klene, J. E. Knox, J. B. Cross, 
 V. Bakken, C. Adamo, J. Jaramillo, R. Gomperts, R. E. Stratmann, 
 O. Yazyev, A. J. Austin, R. Cammi, C. Pomelli, J. W. Ochterski, 
 R. L. Martin, K. Morokuma, V. G. Zakrzewski, G. A. Voth, 
 P. Salvador, J. J. Dannenberg, S. Dapprich, A. D. Daniels, 
 O. Farkas, J. B. Foresman, J. V. Ortiz, J. Cioslowski, 
 and D. J. Fox, Gaussian, Inc., Wallingford CT, 2013.
 
 ******************************************
 Gaussian 09:  ES64L-G09RevE.01 30-Nov-2015
                25-Feb-2021 
 ******************************************
 %chk=cp.chk
 Default route:  MaxDisk=500GB
 ----------------------------------------------------------------------
 #p cam-b3lyp/def2TZVP opt freq=noraman nosymm int=ultrafine scrf=(SMD,
 solvent=n,n-DiMethylAcetamide) EmpiricalDispersion=GD3BJ
 ----------------------------------------------------------------------
 1/14=-1,18=20,19=15,26=4,38=1/1,3;
 2/9=110,12=2,15=1,17=6,18=5,40=1/2;
 3/5=44,7=101,11=2,16=1,25=1,30=1,70=32201,71=1,72=147,74=-40,75=-5,124=41/1,2,3;
 4//1;
 5/5=2,38=5,53=147/2;
 6/7=2,8=2,9=2,10=2,28=1/1;
 7/30=1/1,2,3,16;
 1/14=-1,18=20,19=15,26=4/3(2);
 2/9=110,15=1/2;
 99//99;
 2/9=110,15=1/2;
 3/5=44,7=101,11=2,16=1,25=1,30=1,70=32205,71=1,72=147,74=-40,75=-5,124=41/1,2,3;
 4/5=5,16=3,69=1/1;
 5/5=2,38=5,53=147/2;
 7/30=1/1,2,3,16;
 1/14=-1,18=20,19=15,26=4/3(-5);
 2/9=110,15=1/2;
 6/7=2,8=2,9=2,10=2,19=2,28=1/1;
 99/9=1/99;
 Leave Link    1 at Thu Feb 25 18:59:12 2021, MaxMem=           0 cpu:         2.1
 (Enter /opt/nce/packages/global/g09/l101.exe)
 -----
 Title
 -----
 Symbolic Z-matrix:
 Charge =  0 Multiplicity = 1
 C                    -1.96983   3.5769   -0.31917 
 C                    -2.35017   2.49065   0.46963 
 C                    -1.57707   1.32453   0.46712 
 C                    -0.42654   1.23187  -0.33713 
 C                    -0.07864   2.31188  -1.15811 
 C                    -0.83901   3.48215  -1.13547 
 C                    -0.4181   -1.19096  -0.39704 
 C                    -1.56109  -1.36184   0.40242 
 C                    -2.29929  -2.54958   0.33255 
 H                    -3.19273  -2.66168   0.95051 
 C                    -1.89264  -3.57349  -0.5237 
 C                    -0.77064  -3.39741  -1.34136 
 C                    -0.04988  -2.20414  -1.29236 
 H                    -3.24813   2.53722   1.08943 
 H                     0.8052    2.23246  -1.78603 
 H                    -0.54733   4.32397  -1.76741 
 H                    -2.4645   -4.50301  -0.56723 
 H                    -0.46409  -4.18699  -2.03088 
 C                     1.69499  -0.00085  -0.00283 
 C                     2.31494  -1.17271   0.49248 
 C                     3.67153  -1.12759   0.78515 
 C                     3.67484   1.16474   0.12689 
 C                     4.38526   0.06283   0.59813 
 H                     4.16948  -2.0191    1.17483 
 H                     4.17957   2.12618  -0.0249 
 H                     1.7399   -2.08139   0.66147 
 H                     5.45154   0.13442   0.81827 
 H                    -2.56744   4.49121  -0.30784 
 N                     0.32399   0.01796  -0.30451 
 H                     0.82065  -2.05149  -1.93283 
 S                    -2.03918  -0.05054   1.50312 
 N                     2.37499   1.1342   -0.17127 
 
 NAtoms=     32 NQM=       32 NQMF=       0 NMMI=      0 NMMIF=      0
                NMic=       0 NMicF=      0.
                    Isotopes and Nuclear Properties:
 (Nuclear quadrupole moments (NQMom) in fm**2, nuclear magnetic moments (NMagM)
  in nuclear magnetons)

  Atom         1           2           3           4           5           6           7           8           9          10
 IAtWgt=          12          12          12          12          12          12          12          12          12           1
 AtmWgt=  12.0000000  12.0000000  12.0000000  12.0000000  12.0000000  12.0000000  12.0000000  12.0000000  12.0000000   1.0078250
 NucSpn=           0           0           0           0           0           0           0           0           0           1
 AtZEff=   0.0000000   0.0000000   0.0000000   0.0000000   0.0000000   0.0000000   0.0000000   0.0000000   0.0000000   0.0000000
 NQMom=    0.0000000   0.0000000   0.0000000   0.0000000   0.0000000   0.0000000   0.0000000   0.0000000   0.0000000   0.0000000
 NMagM=    0.0000000   0.0000000   0.0000000   0.0000000   0.0000000   0.0000000   0.0000000   0.0000000   0.0000000   2.7928460
 AtZNuc=   6.0000000   6.0000000   6.0000000   6.0000000   6.0000000   6.0000000   6.0000000   6.0000000   6.0000000   1.0000000

  Atom        11          12          13          14          15          16          17          18          19          20
 IAtWgt=          12          12          12           1           1           1           1           1          12          12
 AtmWgt=  12.0000000  12.0000000  12.0000000   1.0078250   1.0078250   1.0078250   1.0078250   1.0078250  12.0000000  12.0000000
 NucSpn=           0           0           0           1           1           1           1           1           0           0
 AtZEff=   0.0000000   0.0000000   0.0000000   0.0000000   0.0000000   0.0000000   0.0000000   0.0000000   0.0000000   0.0000000
 NQMom=    0.0000000   0.0000000   0.0000000   0.0000000   0.0000000   0.0000000   0.0000000   0.0000000   0.0000000   0.0000000
 NMagM=    0.0000000   0.0000000   0.0000000   2.7928460   2.7928460   2.7928460   2.7928460   2.7928460   0.0000000   0.0000000
 AtZNuc=   6.0000000   6.0000000   6.0000000   1.0000000   1.0000000   1.0000000   1.0000000   1.0000000   6.0000000   6.0000000

  Atom        21          22          23          24          25          26          27          28          29          30
 IAtWgt=          12          12          12           1           1           1           1           1          14           1
 AtmWgt=  12.0000000  12.0000000  12.0000000   1.0078250   1.0078250   1.0078250   1.0078250   1.0078250  14.0030740   1.0078250
 NucSpn=           0           0           0           1           1           1           1           1           2           1
 AtZEff=   0.0000000   0.0000000   0.0000000   0.0000000   0.0000000   0.0000000   0.0000000   0.0000000   0.0000000   0.0000000
 NQMom=    0.0000000   0.0000000   0.0000000   0.0000000   0.0000000   0.0000000   0.0000000   0.0000000   2.0440000   0.0000000
 NMagM=    0.0000000   0.0000000   0.0000000   2.7928460   2.7928460   2.7928460   2.7928460   2.7928460   0.4037610   2.7928460
 AtZNuc=   6.0000000   6.0000000   6.0000000   1.0000000   1.0000000   1.0000000   1.0000000   1.0000000   7.0000000   1.0000000

  Atom        31          32
 IAtWgt=          32          14
 AtmWgt=  31.9720718  14.0030740
 NucSpn=           0           2
 AtZEff=   0.0000000   0.0000000
 NQMom=    0.0000000   2.0440000
 NMagM=    0.0000000   0.4037610
 AtZNuc=  16.0000000   7.0000000
 Leave Link  101 at Thu Feb 25 18:59:12 2021, MaxMem=  5242880000 cpu:         4.4
 (Enter /opt/nce/packages/global/g09/l103.exe)

 GradGradGradGradGradGradGradGradGradGradGradGradGradGradGradGradGradGrad
 Berny optimization.
 Initialization pass.
                           ----------------------------
                           !    Initial Parameters    !
                           ! (Angstroms and Degrees)  !
 --------------------------                            --------------------------
 ! Name  Definition              Value          Derivative Info.                !
 --------------------------------------------------------------------------------
 ! R1    R(1,2)                  1.3953         estimate D2E/DX2                !
 ! R2    R(1,6)                  1.3979         estimate D2E/DX2                !
 ! R3    R(1,28)                 1.0923         estimate D2E/DX2                !
 ! R4    R(2,3)                  1.3991         estimate D2E/DX2                !
 ! R5    R(2,14)                 1.0921         estimate D2E/DX2                !
 ! R6    R(3,4)                  1.4068         estimate D2E/DX2                !
 ! R7    R(3,31)                 1.7826         estimate D2E/DX2                !
 ! R8    R(4,5)                  1.4005         estimate D2E/DX2                !
 ! R9    R(4,29)                 1.4276         estimate D2E/DX2                !
 ! R10   R(5,6)                  1.3958         estimate D2E/DX2                !
 ! R11   R(5,15)                 1.0871         estimate D2E/DX2                !
 ! R12   R(6,16)                 1.0923         estimate D2E/DX2                !
 ! R13   R(7,8)                  1.4053         estimate D2E/DX2                !
 ! R14   R(7,13)                 1.4013         estimate D2E/DX2                !
 ! R15   R(7,29)                 1.4215         estimate D2E/DX2                !
 ! R16   R(8,9)                  1.4002         estimate D2E/DX2                !
 ! R17   R(8,31)                 1.7775         estimate D2E/DX2                !
 ! R18   R(9,10)                 1.0921         estimate D2E/DX2                !
 ! R19   R(9,11)                 1.3953         estimate D2E/DX2                !
 ! R20   R(11,12)                1.3994         estimate D2E/DX2                !
 ! R21   R(11,17)                1.0922         estimate D2E/DX2                !
 ! R22   R(12,13)                1.3949         estimate D2E/DX2                !
 ! R23   R(12,18)                1.0922         estimate D2E/DX2                !
 ! R24   R(13,30)                1.0915         estimate D2E/DX2                !
 ! R25   R(19,20)                1.4152         estimate D2E/DX2                !
 ! R26   R(19,29)                1.4039         estimate D2E/DX2                !
 ! R27   R(19,32)                1.3338         estimate D2E/DX2                !
 ! R28   R(20,21)                1.3885         estimate D2E/DX2                !
 ! R29   R(20,26)                1.0885         estimate D2E/DX2                !
 ! R30   R(21,23)                1.4005         estimate D2E/DX2                !
 ! R31   R(21,24)                1.093          estimate D2E/DX2                !
 ! R32   R(22,23)                1.3932         estimate D2E/DX2                !
 ! R33   R(22,25)                1.0964         estimate D2E/DX2                !
 ! R34   R(22,32)                1.334          estimate D2E/DX2                !
 ! R35   R(23,27)                1.0911         estimate D2E/DX2                !
 ! A1    A(2,1,6)              119.8594         estimate D2E/DX2                !
 ! A2    A(2,1,28)             119.7773         estimate D2E/DX2                !
 ! A3    A(6,1,28)             120.3553         estimate D2E/DX2                !
 ! A4    A(1,2,3)              119.8168         estimate D2E/DX2                !
 ! A5    A(1,2,14)             120.7825         estimate D2E/DX2                !
 ! A6    A(3,2,14)             119.4006         estimate D2E/DX2                !
 ! A7    A(2,3,4)              120.5191         estimate D2E/DX2                !
 ! A8    A(2,3,31)             119.9097         estimate D2E/DX2                !
 ! A9    A(4,3,31)             119.5676         estimate D2E/DX2                !
 ! A10   A(3,4,5)              119.1753         estimate D2E/DX2                !
 ! A11   A(3,4,29)             118.2232         estimate D2E/DX2                !
 ! A12   A(5,4,29)             122.5837         estimate D2E/DX2                !
 ! A13   A(4,5,6)              120.1142         estimate D2E/DX2                !
 ! A14   A(4,5,15)             118.9618         estimate D2E/DX2                !
 ! A15   A(6,5,15)             120.8991         estimate D2E/DX2                !
 ! A16   A(1,6,5)              120.4634         estimate D2E/DX2                !
 ! A17   A(1,6,16)             120.1077         estimate D2E/DX2                !
 ! A18   A(5,6,16)             119.4276         estimate D2E/DX2                !
 ! A19   A(8,7,13)             119.2935         estimate D2E/DX2                !
 ! A20   A(8,7,29)             119.4055         estimate D2E/DX2                !
 ! A21   A(13,7,29)            121.2847         estimate D2E/DX2                !
 ! A22   A(7,8,9)              120.2369         estimate D2E/DX2                !
 ! A23   A(7,8,31)             118.7731         estimate D2E/DX2                !
 ! A24   A(9,8,31)             120.989          estimate D2E/DX2                !
 ! A25   A(8,9,10)             119.35           estimate D2E/DX2                !
 ! A26   A(8,9,11)             119.9632         estimate D2E/DX2                !
 ! A27   A(10,9,11)            120.6866         estimate D2E/DX2                !
 ! A28   A(9,11,12)            119.992          estimate D2E/DX2                !
 ! A29   A(9,11,17)            119.7603         estimate D2E/DX2                !
 ! A30   A(12,11,17)           120.2364         estimate D2E/DX2                !
 ! A31   A(11,12,13)           120.0908         estimate D2E/DX2                !
 ! A32   A(11,12,18)           120.1951         estimate D2E/DX2                !
 ! A33   A(13,12,18)           119.708          estimate D2E/DX2                !
 ! A34   A(7,13,12)            120.3425         estimate D2E/DX2                !
 ! A35   A(7,13,30)            118.9049         estimate D2E/DX2                !
 ! A36   A(12,13,30)           120.7398         estimate D2E/DX2                !
 ! A37   A(20,19,29)           120.9353         estimate D2E/DX2                !
 ! A38   A(20,19,32)           121.7022         estimate D2E/DX2                !
 ! A39   A(29,19,32)           117.3429         estimate D2E/DX2                !
 ! A40   A(19,20,21)           118.3483         estimate D2E/DX2                !
 ! A41   A(19,20,26)           120.9395         estimate D2E/DX2                !
 ! A42   A(21,20,26)           120.6984         estimate D2E/DX2                !
 ! A43   A(20,21,23)           119.8252         estimate D2E/DX2                !
 ! A44   A(20,21,24)           119.5877         estimate D2E/DX2                !
 ! A45   A(23,21,24)           120.5802         estimate D2E/DX2                !
 ! A46   A(23,22,25)           120.3741         estimate D2E/DX2                !
 ! A47   A(23,22,32)           123.6678         estimate D2E/DX2                !
 ! A48   A(25,22,32)           115.9573         estimate D2E/DX2                !
 ! A49   A(21,23,22)           117.2313         estimate D2E/DX2                !
 ! A50   A(21,23,27)           121.7918         estimate D2E/DX2                !
 ! A51   A(22,23,27)           120.9748         estimate D2E/DX2                !
 ! A52   A(4,29,7)             116.5651         estimate D2E/DX2                !
 ! A53   A(4,29,19)            121.9861         estimate D2E/DX2                !
 ! A54   A(7,29,19)            120.823          estimate D2E/DX2                !
 ! A55   A(3,31,8)              98.0164         estimate D2E/DX2                !
 ! A56   A(19,32,22)           119.2112         estimate D2E/DX2                !
 ! D1    D(6,1,2,3)              1.7307         estimate D2E/DX2                !
 ! D2    D(6,1,2,14)          -178.1007         estimate D2E/DX2                !
 ! D3    D(28,1,2,3)          -179.29           estimate D2E/DX2                !
 ! D4    D(28,1,2,14)            0.8786         estimate D2E/DX2                !
 ! D5    D(2,1,6,5)             -0.6166         estimate D2E/DX2                !
 ! D6    D(2,1,6,16)           178.9585         estimate D2E/DX2                !
 ! D7    D(28,1,6,5)          -179.59           estimate D2E/DX2                !
 ! D8    D(28,1,6,16)           -0.0149         estimate D2E/DX2                !
 ! D9    D(1,2,3,4)             -0.7561         estimate D2E/DX2                !
 ! D10   D(1,2,3,31)           178.5563         estimate D2E/DX2                !
 ! D11   D(14,2,3,4)           179.0776         estimate D2E/DX2                !
 ! D12   D(14,2,3,31)           -1.6099         estimate D2E/DX2                !
 ! D13   D(2,3,4,5)             -1.3286         estimate D2E/DX2                !
 ! D14   D(2,3,4,29)          -179.8352         estimate D2E/DX2                !
 ! D15   D(31,3,4,5)           179.3566         estimate D2E/DX2                !
 ! D16   D(31,3,4,29)            0.8499         estimate D2E/DX2                !
 ! D17   D(2,3,31,8)           144.0725         estimate D2E/DX2                !
 ! D18   D(4,3,31,8)           -36.6084         estimate D2E/DX2                !
 ! D19   D(3,4,5,6)              2.4428         estimate D2E/DX2                !
 ! D20   D(3,4,5,15)          -179.3576         estimate D2E/DX2                !
 ! D21   D(29,4,5,6)          -179.1188         estimate D2E/DX2                !
 ! D22   D(29,4,5,15)           -0.9192         estimate D2E/DX2                !
 ! D23   D(3,4,29,7)            46.2269         estimate D2E/DX2                !
 ! D24   D(3,4,29,19)         -124.7689         estimate D2E/DX2                !
 ! D25   D(5,4,29,7)          -132.2256         estimate D2E/DX2                !
 ! D26   D(5,4,29,19)           56.7785         estimate D2E/DX2                !
 ! D27   D(4,5,6,1)             -1.491          estimate D2E/DX2                !
 ! D28   D(4,5,6,16)           178.9311         estimate D2E/DX2                !
 ! D29   D(15,5,6,1)          -179.6551         estimate D2E/DX2                !
 ! D30   D(15,5,6,16)            0.7669         estimate D2E/DX2                !
 ! D31   D(13,7,8,9)             1.9207         estimate D2E/DX2                !
 ! D32   D(13,7,8,31)         -178.45           estimate D2E/DX2                !
 ! D33   D(29,7,8,9)          -179.5253         estimate D2E/DX2                !
 ! D34   D(29,7,8,31)            0.104          estimate D2E/DX2                !
 ! D35   D(8,7,13,12)           -3.2152         estimate D2E/DX2                !
 ! D36   D(8,7,13,30)          178.0805         estimate D2E/DX2                !
 ! D37   D(29,7,13,12)         178.2589         estimate D2E/DX2                !
 ! D38   D(29,7,13,30)          -0.4454         estimate D2E/DX2                !
 ! D39   D(8,7,29,4)           -47.0616         estimate D2E/DX2                !
 ! D40   D(8,7,29,19)          124.046          estimate D2E/DX2                !
 ! D41   D(13,7,29,4)          131.4627         estimate D2E/DX2                !
 ! D42   D(13,7,29,19)         -57.4297         estimate D2E/DX2                !
 ! D43   D(7,8,9,10)          -179.1879         estimate D2E/DX2                !
 ! D44   D(7,8,9,11)             0.6313         estimate D2E/DX2                !
 ! D45   D(31,8,9,10)            1.1911         estimate D2E/DX2                !
 ! D46   D(31,8,9,11)         -178.9897         estimate D2E/DX2                !
 ! D47   D(7,8,31,3)            35.9763         estimate D2E/DX2                !
 ! D48   D(9,8,31,3)          -144.3973         estimate D2E/DX2                !
 ! D49   D(8,9,11,12)           -1.9128         estimate D2E/DX2                !
 ! D50   D(8,9,11,17)          179.3092         estimate D2E/DX2                !
 ! D51   D(10,9,11,12)         177.904          estimate D2E/DX2                !
 ! D52   D(10,9,11,17)          -0.874          estimate D2E/DX2                !
 ! D53   D(9,11,12,13)           0.6256         estimate D2E/DX2                !
 ! D54   D(9,11,12,18)        -178.4699         estimate D2E/DX2                !
 ! D55   D(17,11,12,13)        179.3977         estimate D2E/DX2                !
 ! D56   D(17,11,12,18)          0.3022         estimate D2E/DX2                !
 ! D57   D(11,12,13,7)           1.9591         estimate D2E/DX2                !
 ! D58   D(11,12,13,30)       -179.3606         estimate D2E/DX2                !
 ! D59   D(18,12,13,7)        -178.941          estimate D2E/DX2                !
 ! D60   D(18,12,13,30)         -0.2607         estimate D2E/DX2                !
 ! D61   D(29,19,20,21)       -179.393          estimate D2E/DX2                !
 ! D62   D(29,19,20,26)         -0.7327         estimate D2E/DX2                !
 ! D63   D(32,19,20,21)         -1.046          estimate D2E/DX2                !
 ! D64   D(32,19,20,26)        177.6143         estimate D2E/DX2                !
 ! D65   D(20,19,29,4)         157.0809         estimate D2E/DX2                !
 ! D66   D(20,19,29,7)         -13.5376         estimate D2E/DX2                !
 ! D67   D(32,19,29,4)         -21.3358         estimate D2E/DX2                !
 ! D68   D(32,19,29,7)         168.0457         estimate D2E/DX2                !
 ! D69   D(20,19,32,22)          0.4082         estimate D2E/DX2                !
 ! D70   D(29,19,32,22)        178.812          estimate D2E/DX2                !
 ! D71   D(19,20,21,23)          0.5618         estimate D2E/DX2                !
 ! D72   D(19,20,21,24)        179.6096         estimate D2E/DX2                !
 ! D73   D(26,20,21,23)       -178.1019         estimate D2E/DX2                !
 ! D74   D(26,20,21,24)          0.946          estimate D2E/DX2                !
 ! D75   D(20,21,23,22)          0.4777         estimate D2E/DX2                !
 ! D76   D(20,21,23,27)        179.9616         estimate D2E/DX2                !
 ! D77   D(24,21,23,22)       -178.5605         estimate D2E/DX2                !
 ! D78   D(24,21,23,27)          0.9233         estimate D2E/DX2                !
 ! D79   D(25,22,23,21)        179.1536         estimate D2E/DX2                !
 ! D80   D(25,22,23,27)         -0.3347         estimate D2E/DX2                !
 ! D81   D(32,22,23,21)         -1.1805         estimate D2E/DX2                !
 ! D82   D(32,22,23,27)        179.3312         estimate D2E/DX2                !
 ! D83   D(23,22,32,19)          0.7409         estimate D2E/DX2                !
 ! D84   D(25,22,32,19)       -179.5798         estimate D2E/DX2                !
 --------------------------------------------------------------------------------
 Trust Radius=3.00D-01 FncErr=1.00D-07 GrdErr=1.00D-06
 Number of steps in this run=    185 maximum allowed number of steps=    192.
 GradGradGradGradGradGradGradGradGradGradGradGradGradGradGradGradGradGrad

 Leave Link  103 at Thu Feb 25 18:59:13 2021, MaxMem=  5242880000 cpu:         0.2
 (Enter /opt/nce/packages/global/g09/l202.exe)
                          Input orientation:                          
 ---------------------------------------------------------------------
 Center     Atomic      Atomic             Coordinates (Angstroms)
 Number     Number       Type             X           Y           Z
 ---------------------------------------------------------------------
      1          6           0       -1.969825    3.576904   -0.319172
      2          6           0       -2.350171    2.490645    0.469632
      3          6           0       -1.577065    1.324529    0.467120
      4          6           0       -0.426542    1.231872   -0.337125
      5          6           0       -0.078643    2.311877   -1.158109
      6          6           0       -0.839012    3.482152   -1.135470
      7          6           0       -0.418101   -1.190961   -0.397035
      8          6           0       -1.561091   -1.361840    0.402424
      9          6           0       -2.299294   -2.549577    0.332549
     10          1           0       -3.192727   -2.661677    0.950514
     11          6           0       -1.892637   -3.573490   -0.523697
     12          6           0       -0.770641   -3.397414   -1.341361
     13          6           0       -0.049882   -2.204143   -1.292364
     14          1           0       -3.248134    2.537222    1.089426
     15          1           0        0.805195    2.232461   -1.786029
     16          1           0       -0.547333    4.323967   -1.767406
     17          1           0       -2.464502   -4.503010   -0.567228
     18          1           0       -0.464087   -4.186986   -2.030876
     19          6           0        1.694994   -0.000853   -0.002833
     20          6           0        2.314937   -1.172714    0.492477
     21          6           0        3.671534   -1.127594    0.785152
     22          6           0        3.674841    1.164743    0.126890
     23          6           0        4.385256    0.062831    0.598126
     24          1           0        4.169485   -2.019104    1.174833
     25          1           0        4.179567    2.126181   -0.024899
     26          1           0        1.739896   -2.081386    0.661465
     27          1           0        5.451537    0.134424    0.818271
     28          1           0       -2.567436    4.491206   -0.307841
     29          7           0        0.323988    0.017956   -0.304506
     30          1           0        0.820647   -2.051488   -1.932830
     31         16           0       -2.039182   -0.050543    1.503115
     32          7           0        2.374990    1.134198   -0.171274
 ---------------------------------------------------------------------
                    Distance matrix (angstroms):
                    1          2          3          4          5
     1  C    0.000000
     2  C    1.395290   0.000000
     3  C    2.417790   1.399116   0.000000
     4  C    2.807351   2.436332   1.406804   0.000000
     5  C    2.425011   2.800239   2.421052   1.400521   0.000000
     6  C    1.397876   2.417238   2.787177   2.423065   1.395785
     7  C    5.014623   4.247144   2.901319   2.423588   3.600603
     8  C    5.007889   3.933040   2.687195   2.926000   4.257829
     9  C    6.169851   5.042343   3.943149   4.272589   5.548611
    10  H    6.482861   5.242859   4.328264   4.946667   6.235387
    11  C    7.153735   6.161962   5.007184   5.027499   6.191171
    12  C    7.150107   6.359548   5.120319   4.749440   5.753994
    13  C    6.168775   5.516973   4.228427   3.586161   4.518107
    14  H    2.167755   1.092086   2.156469   3.420580   3.892026
    15  H    3.414664   3.887287   3.402379   2.148878   1.087088
    16  H    2.163092   3.408172   3.879444   3.409009   2.153931
    17  H    8.098842   7.071023   5.984783   6.090575   7.244594
    18  H    8.091673   7.375677   6.152682   5.677519   6.568524
    19  C    5.131405   4.774321   3.561441   2.476343   3.135151
    20  C    6.448010   5.931606   4.624343   3.739783   4.538285
    21  C    7.428106   7.032221   5.801883   4.860125   5.447022
    22  C    6.154652   6.178694   5.265340   4.128094   4.129865
    23  C    7.319645   7.160780   6.095762   5.039321   5.298015
    24  H    8.440289   7.958710   6.686073   5.829093   6.499739
    25  H    6.325047   6.558573   5.832970   4.702501   4.410329
    26  H    6.836660   6.137501   4.758178   4.082685   5.091041
    27  H    8.259604   8.157204   7.137290   6.090250   6.263407
    28  H    1.092344   2.157293   3.407234   3.899685   3.415629
    29  N    4.234136   3.723521   2.432394   1.427568   2.480489
    30  H    6.486095   6.037954   4.786050   3.857746   4.521932
    31  S    4.060038   2.760876   1.782599   2.762549   4.062863
    32  N    4.986592   4.957606   4.007806   2.808136   2.895011
                    6          7          8          9         10
     6  C    0.000000
     7  C    4.749783   0.000000
     8  C    5.133301   1.405262   0.000000
     9  C    6.377245   2.432492   1.400195   0.000000
    10  H    6.902024   3.417227   2.156899   1.092094   0.000000
    11  C    7.160061   2.804772   2.420541   1.395323   2.166780
    12  C    6.882986   2.425793   2.794487   2.420244   3.414748
    13  C    5.742934   1.401334   2.421886   2.796341   3.888099
    14  H    3.412759   4.911008   4.303576   5.229597   5.201050
    15  H    2.165265   3.891732   4.827798   6.082279   6.886555
    16  H    1.092278   5.684105   6.169625   7.397620   7.948863
    17  H    8.168716   3.896972   3.409300   2.157033   2.494867
    18  H    7.730330   3.412875   3.886620   3.410993   4.319807
    19  C    4.453692   2.457015   3.552268   4.750033   5.646120
    20  C    5.853664   2.874206   3.881684   4.817931   5.723738
    21  C    6.729307   4.257546   5.251830   6.154484   7.035541
    22  C    5.228652   4.751422   5.820183   7.037667   7.904640
    23  C    6.479976   5.063060   6.117763   7.181811   8.060580
    24  H    7.790145   4.919607   5.819632   6.544918   7.393604
    25  H    5.315841   5.681590   6.730828   7.997882   8.844531
    26  H    6.390047   2.563246   3.388416   4.079515   4.975043
    27  H    7.388870   6.138914   7.182526   8.216761   9.086197
    28  H    2.165781   6.075740   5.981250   7.074929   7.289594
    29  N    3.747496   1.421527   2.440719   3.725543   4.595954
    30  H    5.831931   2.152596   3.406127   3.887681   4.979274
    31  S    4.569734   2.745729   1.777524   2.771832   2.907586
    32  N    4.095408   3.641248   4.695963   5.972685   6.831292
                   11         12         13         14         15
    11  C    0.000000
    12  C    1.399447   0.000000
    13  C    2.421096   1.394916   0.000000
    14  H    6.463771   6.875071   6.195344   0.000000
    15  H    6.525400   5.863146   4.545142   4.979016   0.000000
    16  H    8.107187   7.736350   6.564247   4.318365   2.490798
    17  H    1.092214   2.165823   3.411891   7.274850   7.585708
    18  H    2.165345   1.092168   2.156069   7.918471   6.548307
    19  C    5.089807   4.405410   3.092243   5.662982   2.993196
    20  C    4.949749   4.222919   3.137176   6.713250   4.366478
    21  C    6.217354   5.422828   4.395903   7.836151   5.110464
    22  C    7.339682   6.536922   5.218931   7.123044   3.610284
    23  C    7.341203   6.505242   5.327624   8.039442   4.817502
    24  H    6.484631   5.712777   4.891253   8.705658   6.177455
    25  H    8.343064   7.533109   6.184368   7.522062   3.807789
    26  H    4.101985   3.470740   2.652512   6.811397   5.047095
    27  H    8.335850   7.473513   6.339502   9.029465   5.724739
    28  H    8.095756   8.156406   7.220461   2.496750   4.319908
    29  N    4.226104   3.733368   2.460359   4.588006   2.707490
    30  H    3.415268   2.166460   1.091477   6.837051   4.286491
    31  S    4.067013   4.571847   4.050927   2.886041   4.911319
    32  N    6.363896   5.639114   4.275672   5.931051   2.505568
                   16         17         18         19         20
    16  H    0.000000
    17  H    9.112161   0.000000
    18  H    8.515437   2.498759   0.000000
    19  C    5.181295   6.155434   5.128187   0.000000
    20  C    6.596451   5.920885   4.814158   1.415245   0.000000
    21  C    7.350776   7.132552   5.864576   2.407733   1.388542
    22  C    5.603196   8.384316   7.101245   2.301138   2.728864
    23  C    6.934224   8.314093   6.963384   2.757302   2.413287
    24  H    8.434435   7.294817   6.037075   3.403431   2.149729
    25  H    5.496379   9.401274   8.089718   3.270759   3.824556
    26  H    7.222145   5.005089   4.066914   2.184474   1.088538
    27  H    7.760441   9.278420   7.860460   3.847613   3.413651
    28  H    2.497822   8.998544   9.094171   6.199995   7.520510
    29  N    4.630444   5.318255   4.613345   1.403929   2.452907
    30  H    6.522665   4.320536   2.494094   2.948640   2.981151
    31  S    5.662001   4.928659   5.663937   4.026713   4.608580
    32  N    4.611099   7.440133   6.311377   1.333832   2.401253
                   21         22         23         24         25
    21  C    0.000000
    22  C    2.384980   0.000000
    23  C    1.400532   1.393184   0.000000
    24  H    1.092976   3.388176   2.171083   0.000000
    25  H    3.391361   1.096427   2.165152   4.315420   0.000000
    26  H    2.157833   3.816692   3.405820   2.484015   4.911895
    27  H    2.182246   2.167075   1.091121   2.531497   2.509171
    28  H    8.467012   7.086633   8.292841   9.485176   7.155100
    29  N    3.702121   3.567834   4.160608   4.596292   4.403213
    30  H    4.045808   4.767915   4.856184   4.568734   5.689944
    31  S    5.855577   6.001748   6.488857   6.521545   6.763564
    32  N    2.776955   1.333959   2.404365   3.869823   2.064450
                   26         27         28         29         30
    26  H    0.000000
    27  H    4.325584   0.000000
    28  H    7.917805   9.195303   0.000000
    29  N    2.710190   5.250329   5.326379   0.000000
    30  H    2.752504   5.813081   7.544968   2.679684   0.000000
    31  S    4.371971   7.524234   4.917936   2.976031   4.897767
    32  N    3.381831   3.382882   5.976264   2.338879   3.958239
                   31         32
    31  S    0.000000
    32  N    4.867454   0.000000
 Symmetry turned off by external request.
 Stoichiometry    C17H12N2S
 Framework group  C1[X(C17H12N2S)]
 Deg. of freedom    90
 Full point group                 C1      NOp   1
 Rotational constants (GHZ):      0.3825642      0.3446792      0.2112543
 Leave Link  202 at Thu Feb 25 18:59:13 2021, MaxMem=  5242880000 cpu:         0.1
 (Enter /opt/nce/packages/global/g09/l301.exe)
 Standard basis: def2TZVP (5D, 7F)
 Ernie: Thresh=  0.10000D-02 Tol=  0.10000D-05 Strict=F.
   698 basis functions,  1134 primitive gaussians,   798 cartesian basis functions
    72 alpha electrons       72 beta electrons
       nuclear repulsion energy      1566.6532973845 Hartrees.
 IExCor=20419 DFT=T Ex+Corr=CAM-B3LYP ExCW=0 ScaHFX=  1.000000
 ScaDFX=  1.000000  1.000000  1.000000  0.810000 ScalE2=  1.000000  1.000000
 IRadAn=      5 IRanWt=     -1 IRanGd=            0 ICorTp=0 IEmpDi=141
  HFx wShort=  0.000000 wLong=  0.330000 cFull=  0.190000 cShort=  0.000000 cLong=  0.460000
  DFx wShort=  0.000000 wLong=  0.330000 cFull=  0.190000 cShort=  0.000000 cLong=  0.460000
 NAtoms=   32 NActive=   32 NUniq=   32 SFac= 1.00D+00 NAtFMM=   60 NAOKFM=F Big=F
 Integral buffers will be    131072 words long.
 Raffenetti 2 integral format.
 Two-electron integral symmetry is turned off.
 R6Disp:  Grimme-D3(BJ) Dispersion energy=       -0.0414798956 Hartrees.
 Nuclear repulsion after empirical dispersion term =     1566.6118174889 Hartrees.
 ------------------------------------------------------------------------------
 Polarizable Continuum Model (PCM)
 =================================
 Model                : PCM (using non-symmetric T matrix).
 Atomic radii         : SMD-Coulomb.
 Polarization charges : Total charges.
 Charge compensation  : None.
 Solution method      : On-the-fly selection.
 Cavity type          : VdW (van der Waals Surface) (Alpha=1.000).
 Cavity algorithm     : GePol (No added spheres)
                        Default sphere list used, NSphG=   32.
                        Lebedev-Laikov grids with approx.  5.0 points / Ang**2.
                        Smoothing algorithm: York/Karplus (Gamma=1.0000).
                        Polarization charges: spherical gaussians, with
                                              point-specific exponents (IZeta= 3).
                        Self-potential: point-specific (ISelfS= 7).
                        Self-field    : sphere-specific E.n sum rule (ISelfD= 2).
 1st derivatives      : Analytical E(r).r(x)/FMM algorithm (CHGder, D1EAlg=3).
                        Cavity 1st derivative terms included.
 Solvent              : n,n-DiMethylAcetamide, Eps=  37.781000 Eps(inf)=   2.067844
 ------------------------------------------------------------------------------
 GePol: Number of generator spheres                  =      32
 GePol: Total number of spheres                      =      32
 GePol: Number of exposed spheres                    =      32 (100.00%)
 GePol: Number of points                             =    2528
 GePol: Average weight of points                     =       0.11
 GePol: Minimum weight of points                     =   0.22D-09
 GePol: Maximum weight of points                     =    0.19854
 GePol: Number of points with low weight             =     136
 GePol: Fraction of low-weight points (<1% of avg)   =       5.38%
 GePol: Cavity surface area                          =    289.266 Ang**2
 GePol: Cavity volume                                =    290.887 Ang**3
 ------------------------------------------------------------------------------
 Atomic radii for non-electrostatic terms: SMD-CDS.
 ------------------------------------------------------------------------------
 PCM non-electrostatic energy =        -0.0058321980 Hartrees.
 Nuclear repulsion after PCM non-electrostatic terms =     1566.6059852910 Hartrees.
 Leave Link  301 at Thu Feb 25 18:59:13 2021, MaxMem=  5242880000 cpu:         2.6
 (Enter /opt/nce/packages/global/g09/l302.exe)
 NPDir=0 NMtPBC=     1 NCelOv=     1 NCel=       1 NClECP=     1 NCelD=      1
         NCelK=      1 NCelE2=     1 NClLst=     1 CellRange=     0.0.
 One-electron integrals computed using PRISM.
   1 Symmetry operations used in ECPInt.
 ECPInt:  NShTT=   36585 NPrTT=  115450 LenC2=   32969 LenP2D=   74222.
 LDataN:  DoStor=T MaxTD1= 6 Len=  172
 NBasis=   698 RedAO= T EigKep=  6.23D-06  NBF=   698
 NBsUse=   698 1.00D-06 EigRej= -1.00D+00 NBFU=   698
 Precomputing XC quadrature grid using
 IXCGrd= 4 IRadAn=           5 IRanWt=          -1 IRanGd=           0 AccXCQ= 0.00D+00.
 Generated NRdTot=       0 NPtTot=           0 NUsed=           0 NTot=          32
 NSgBfM=   786   786   786   786   786 MxSgAt=    32 MxSgA2=    32.
 Leave Link  302 at Thu Feb 25 18:59:14 2021, MaxMem=  5242880000 cpu:        13.0
 (Enter /opt/nce/packages/global/g09/l303.exe)
 DipDrv:  MaxL=1.
 Leave Link  303 at Thu Feb 25 18:59:14 2021, MaxMem=  5242880000 cpu:         1.4
 (Enter /opt/nce/packages/global/g09/l401.exe)
 ExpMin= 9.52D-02 ExpMax= 6.07D+04 ExpMxC= 2.07D+03 IAcc=3 IRadAn=         5 AccDes= 0.00D+00
 Harris functional with IExCor=20419 and IRadAn=       5 diagonalized for initial guess.
 HarFok:  IExCor=20419 AccDes= 0.00D+00 IRadAn=         5 IDoV= 1 UseB2=F ITyADJ=14
 ICtDFT=  3500011 ScaDFX=  1.000000  1.000000  1.000000  1.000000
 FoFCou: FMM=F IPFlag=           0 FMFlag=      100000 FMFlg1=           0
         NFxFlg=           0 DoJE=T BraDBF=F KetDBF=T FulRan=T
         wScrn=  0.000000 ICntrl=     500 IOpCl=  0 I1Cent=   200000004 NGrid=           0
         NMat0=    1 NMatS0=      1 NMatT0=    0 NMatD0=    1 NMtDS0=    0 NMtDT0=    0
 Symmetry not used in FoFCou.
 Harris En= -1126.13291202719    
 JPrj=0 DoOrth=F DoCkMO=F.
 Leave Link  401 at Thu Feb 25 18:59:21 2021, MaxMem=  5242880000 cpu:        74.7
 (Enter /opt/nce/packages/global/g09/l502.exe)
 Closed shell SCF:
 Using DIIS extrapolation, IDIIS=  1040.
 Two-electron integral symmetry not used.
 IVT=     1943390 IEndB=     1943390 NGot=  5242880000 MDV=  5241590853
 LenX=  5241590853 LenY=  5240953251
 Requested convergence on RMS density matrix=1.00D-08 within 128 cycles.
 Requested convergence on MAX density matrix=1.00D-06.
 Requested convergence on             energy=1.00D-06.
 No special actions if energy rises.
 Fock matrices will be formed incrementally for  20 cycles.

 Cycle   1  Pass 1  IDiag  1:
 FoFJK:  IHMeth= 1 ICntrl=       0 DoSepK=T KAlg= 0 I1Cent=   0 FoldK=F
 IRaf=         1 NMat=   1 IRICut=       1 DoRegI=T DoRafI=F ISym2E= 0.
 FoFCou: FMM=F IPFlag=           0 FMFlag=      100000 FMFlg1=           0
         NFxFlg=           0 DoJE=T BraDBF=F KetDBF=F FulRan=T
         wScrn=  0.000000 ICntrl=     500 IOpCl=  0 I1Cent=           0 NGrid=           0
         NMat0=    1 NMatS0=      1 NMatT0=    0 NMatD0=    1 NMtDS0=    0 NMtDT0=    0
 Symmetry not used in FoFCou.
 Inv3:  Mode=1 IEnd=    19172352.
 Iteration    1 A*A^-1 deviation from unit magnitude is 3.77D-15 for   2498.
 Iteration    1 A*A^-1 deviation from orthogonality  is 2.79D-15 for   2521   1898.
 Iteration    1 A^-1*A deviation from unit magnitude is 3.89D-15 for   2498.
 Iteration    1 A^-1*A deviation from orthogonality  is 2.29D-12 for   1925   1921.
 E= -1162.29927498931    
 DIIS: error= 4.24D-02 at cycle   1 NSaved=   1.
 NSaved= 1 IEnMin= 1 EnMin= -1162.29927498931     IErMin= 1 ErrMin= 4.24D-02
 ErrMax= 4.24D-02  0.00D+00 EMaxC= 1.00D-01 BMatC= 1.76D+00 BMatP= 1.76D+00
 IDIUse=3 WtCom= 5.76D-01 WtEn= 4.24D-01
 Coeff-Com:  0.100D+01
 Coeff-En:   0.100D+01
 Coeff:      0.100D+01
 Gap=     0.352 Goal=   None    Shift=    0.000
 GapD=    0.352 DampG=1.000 DampE=0.500 DampFc=0.5000 IDamp=-1.
 Damping current iteration by 5.00D-01
 RMSDP=5.36D-03 MaxDP=3.55D-01              OVMax= 2.21D-01

 Cycle   2  Pass 1  IDiag  1:
 RMSU=  1.93D-03    CP:  8.04D-01
 E= -1162.46583844212     Delta-E=       -0.166563452814 Rises=F Damp=T
 DIIS: error= 1.50D-02 at cycle   2 NSaved=   2.
 NSaved= 2 IEnMin= 2 EnMin= -1162.46583844212     IErMin= 2 ErrMin= 1.50D-02
 ErrMax= 1.50D-02  0.00D+00 EMaxC= 1.00D-01 BMatC= 3.14D-01 BMatP= 1.76D+00
 IDIUse=3 WtCom= 8.50D-01 WtEn= 1.50D-01
 Coeff-Com: -0.443D+00 0.144D+01
 Coeff-En:   0.000D+00 0.100D+01
 Coeff:     -0.377D+00 0.138D+01
 Gap=     0.372 Goal=   None    Shift=    0.000
 RMSDP=1.79D-03 MaxDP=1.22D-01 DE=-1.67D-01 OVMax= 2.16D-01

 Cycle   3  Pass 1  IDiag  1:
 RMSU=  1.05D-03    CP:  6.85D-01  1.47D+00
 E= -1162.54275870086     Delta-E=       -0.076920258736 Rises=F Damp=F
 DIIS: error= 1.17D-02 at cycle   3 NSaved=   3.
 NSaved= 3 IEnMin= 3 EnMin= -1162.54275870086     IErMin= 3 ErrMin= 1.17D-02
 ErrMax= 1.17D-02  0.00D+00 EMaxC= 1.00D-01 BMatC= 1.25D-01 BMatP= 3.14D-01
 IDIUse=3 WtCom= 8.83D-01 WtEn= 1.17D-01
 Coeff-Com: -0.312D+00 0.733D+00 0.579D+00
 Coeff-En:   0.000D+00 0.121D+00 0.879D+00
 Coeff:     -0.275D+00 0.661D+00 0.614D+00
 Gap=     0.288 Goal=   None    Shift=    0.000
 RMSDP=9.54D-04 MaxDP=6.06D-02 DE=-7.69D-02 OVMax= 1.13D-01

 Cycle   4  Pass 1  IDiag  1:
 RMSU=  3.14D-04    CP:  6.27D-01  1.78D+00  6.56D-01
 E= -1162.65306020315     Delta-E=       -0.110301502296 Rises=F Damp=F
 DIIS: error= 2.87D-03 at cycle   4 NSaved=   4.
 NSaved= 4 IEnMin= 4 EnMin= -1162.65306020315     IErMin= 4 ErrMin= 2.87D-03
 ErrMax= 2.87D-03  0.00D+00 EMaxC= 1.00D-01 BMatC= 1.15D-02 BMatP= 1.25D-01
 IDIUse=3 WtCom= 9.71D-01 WtEn= 2.87D-02
 Coeff-Com: -0.118D+00 0.264D+00 0.329D+00 0.525D+00
 Coeff-En:   0.000D+00 0.000D+00 0.732D-02 0.993D+00
 Coeff:     -0.115D+00 0.256D+00 0.320D+00 0.538D+00
 Gap=     0.268 Goal=   None    Shift=    0.000
 RMSDP=1.44D-04 MaxDP=1.11D-02 DE=-1.10D-01 OVMax= 2.73D-02

 Cycle   5  Pass 1  IDiag  1:
 RMSU=  7.91D-05    CP:  6.25D-01  1.79D+00  7.32D-01  7.20D-01
 E= -1162.66325115740     Delta-E=       -0.010190954249 Rises=F Damp=F
 DIIS: error= 3.86D-04 at cycle   5 NSaved=   5.
 NSaved= 5 IEnMin= 5 EnMin= -1162.66325115740     IErMin= 5 ErrMin= 3.86D-04
 ErrMax= 3.86D-04  0.00D+00 EMaxC= 1.00D-01 BMatC= 1.40D-04 BMatP= 1.15D-02
 IDIUse=3 WtCom= 9.96D-01 WtEn= 3.86D-03
 Coeff-Com: -0.675D-02 0.135D-01 0.454D-01 0.145D+00 0.803D+00
 Coeff-En:   0.000D+00 0.000D+00 0.000D+00 0.000D+00 0.100D+01
 Coeff:     -0.672D-02 0.135D-01 0.452D-01 0.144D+00 0.804D+00
 Gap=     0.266 Goal=   None    Shift=    0.000
 RMSDP=3.87D-05 MaxDP=2.85D-03 DE=-1.02D-02 OVMax= 6.13D-03

 Cycle   6  Pass 1  IDiag  1:
 RMSU=  3.03D-05    CP:  6.24D-01  1.79D+00  7.40D-01  7.77D-01  1.03D+00
 E= -1162.66342564828     Delta-E=       -0.000174490879 Rises=F Damp=F
 DIIS: error= 1.21D-04 at cycle   6 NSaved=   6.
 NSaved= 6 IEnMin= 6 EnMin= -1162.66342564828     IErMin= 6 ErrMin= 1.21D-04
 ErrMax= 1.21D-04  0.00D+00 EMaxC= 1.00D-01 BMatC= 2.85D-05 BMatP= 1.40D-04
 IDIUse=3 WtCom= 9.99D-01 WtEn= 1.21D-03
 Coeff-Com:  0.997D-02-0.226D-01-0.180D-01-0.107D-01 0.327D+00 0.714D+00
 Coeff-En:   0.000D+00 0.000D+00 0.000D+00 0.000D+00 0.000D+00 0.100D+01
 Coeff:      0.996D-02-0.226D-01-0.180D-01-0.107D-01 0.327D+00 0.715D+00
 Gap=     0.265 Goal=   None    Shift=    0.000
 RMSDP=1.88D-05 MaxDP=1.55D-03 DE=-1.74D-04 OVMax= 2.29D-03

 Cycle   7  Pass 1  IDiag  1:
 RMSU=  1.36D-05    CP:  6.23D-01  1.79D+00  7.42D-01  7.96D-01  1.12D+00
                    CP:  1.03D+00
 E= -1162.66346013076     Delta-E=       -0.000034482483 Rises=F Damp=F
 DIIS: error= 6.66D-05 at cycle   7 NSaved=   7.
 NSaved= 7 IEnMin= 7 EnMin= -1162.66346013076     IErMin= 7 ErrMin= 6.66D-05
 ErrMax= 6.66D-05  0.00D+00 EMaxC= 1.00D-01 BMatC= 4.28D-06 BMatP= 2.85D-05
 IDIUse=1 WtCom= 1.00D+00 WtEn= 0.00D+00
 Coeff-Com:  0.483D-02-0.107D-01-0.133D-01-0.261D-01 0.415D-01 0.328D+00
 Coeff-Com:  0.676D+00
 Coeff:      0.483D-02-0.107D-01-0.133D-01-0.261D-01 0.415D-01 0.328D+00
 Coeff:      0.676D+00
 Gap=     0.265 Goal=   None    Shift=    0.000
 RMSDP=6.13D-06 MaxDP=3.04D-04 DE=-3.45D-05 OVMax= 1.17D-03

 Cycle   8  Pass 1  IDiag  1:
 RMSU=  3.32D-06    CP:  6.23D-01  1.79D+00  7.42D-01  7.93D-01  1.14D+00
                    CP:  1.18D+00  9.56D-01
 E= -1162.66346610726     Delta-E=       -0.000005976500 Rises=F Damp=F
 DIIS: error= 2.05D-05 at cycle   8 NSaved=   8.
 NSaved= 8 IEnMin= 8 EnMin= -1162.66346610726     IErMin= 8 ErrMin= 2.05D-05
 ErrMax= 2.05D-05  0.00D+00 EMaxC= 1.00D-01 BMatC= 3.77D-07 BMatP= 4.28D-06
 IDIUse=1 WtCom= 1.00D+00 WtEn= 0.00D+00
 Coeff-Com: -0.258D-03 0.633D-03-0.516D-03-0.561D-02-0.393D-01-0.114D-01
 Coeff-Com:  0.206D+00 0.851D+00
 Coeff:     -0.258D-03 0.633D-03-0.516D-03-0.561D-02-0.393D-01-0.114D-01
 Coeff:      0.206D+00 0.851D+00
 Gap=     0.266 Goal=   None    Shift=    0.000
 RMSDP=3.31D-06 MaxDP=1.54D-04 DE=-5.98D-06 OVMax= 6.38D-04

 Cycle   9  Pass 1  IDiag  1:
 RMSU=  1.48D-06    CP:  6.23D-01  1.79D+00  7.42D-01  7.93D-01  1.14D+00
                    CP:  1.23D+00  1.11D+00  1.28D+00
 E= -1162.66346703711     Delta-E=       -0.000000929844 Rises=F Damp=F
 DIIS: error= 9.81D-06 at cycle   9 NSaved=   9.
 NSaved= 9 IEnMin= 9 EnMin= -1162.66346703711     IErMin= 9 ErrMin= 9.81D-06
 ErrMax= 9.81D-06  0.00D+00 EMaxC= 1.00D-01 BMatC= 6.23D-08 BMatP= 3.77D-07
 IDIUse=1 WtCom= 1.00D+00 WtEn= 0.00D+00
 Coeff-Com: -0.760D-03 0.171D-02 0.193D-02 0.222D-02-0.206D-01-0.576D-01
 Coeff-Com: -0.294D-01 0.299D+00 0.804D+00
 Coeff:     -0.760D-03 0.171D-02 0.193D-02 0.222D-02-0.206D-01-0.576D-01
 Coeff:     -0.294D-01 0.299D+00 0.804D+00
 Gap=     0.266 Goal=   None    Shift=    0.000
 RMSDP=1.69D-06 MaxDP=9.35D-05 DE=-9.30D-07 OVMax= 2.51D-04

 Cycle  10  Pass 1  IDiag  1:
 RMSU=  4.11D-07    CP:  6.23D-01  1.79D+00  7.42D-01  7.93D-01  1.14D+00
                    CP:  1.25D+00  1.16D+00  1.49D+00  1.25D+00
 E= -1162.66346719815     Delta-E=       -0.000000161040 Rises=F Damp=F
 DIIS: error= 3.77D-06 at cycle  10 NSaved=  10.
 NSaved=10 IEnMin=10 EnMin= -1162.66346719815     IErMin=10 ErrMin= 3.77D-06
 ErrMax= 3.77D-06  0.00D+00 EMaxC= 1.00D-01 BMatC= 7.28D-09 BMatP= 6.23D-08
 IDIUse=1 WtCom= 1.00D+00 WtEn= 0.00D+00
 Coeff-Com: -0.126D-03 0.283D-03 0.483D-03 0.110D-02-0.801D-03-0.143D-01
 Coeff-Com: -0.348D-01-0.259D-01 0.244D+00 0.830D+00
 Coeff:     -0.126D-03 0.283D-03 0.483D-03 0.110D-02-0.801D-03-0.143D-01
 Coeff:     -0.348D-01-0.259D-01 0.244D+00 0.830D+00
 Gap=     0.265 Goal=   None    Shift=    0.000
 RMSDP=6.40D-07 MaxDP=3.62D-05 DE=-1.61D-07 OVMax= 8.66D-05

 Cycle  11  Pass 1  IDiag  1:
 RMSU=  1.91D-07    CP:  6.23D-01  1.79D+00  7.42D-01  7.93D-01  1.14D+00
                    CP:  1.25D+00  1.18D+00  1.55D+00  1.39D+00  1.26D+00
 E= -1162.66346721955     Delta-E=       -0.000000021404 Rises=F Damp=F
 DIIS: error= 1.17D-06 at cycle  11 NSaved=  11.
 NSaved=11 IEnMin=11 EnMin= -1162.66346721955     IErMin=11 ErrMin= 1.17D-06
 ErrMax= 1.17D-06  0.00D+00 EMaxC= 1.00D-01 BMatC= 1.21D-09 BMatP= 7.28D-09
 IDIUse=1 WtCom= 1.00D+00 WtEn= 0.00D+00
 Coeff-Com:  0.815D-04-0.186D-03-0.201D-03-0.105D-03 0.370D-02 0.755D-02
 Coeff-Com: -0.405D-02-0.635D-01-0.821D-01 0.242D+00 0.897D+00
 Coeff:      0.815D-04-0.186D-03-0.201D-03-0.105D-03 0.370D-02 0.755D-02
 Coeff:     -0.405D-02-0.635D-01-0.821D-01 0.242D+00 0.897D+00
 Gap=     0.265 Goal=   None    Shift=    0.000
 RMSDP=2.05D-07 MaxDP=9.83D-06 DE=-2.14D-08 OVMax= 3.38D-05

 Cycle  12  Pass 1  IDiag  1:
 RMSU=  7.47D-08    CP:  6.23D-01  1.79D+00  7.42D-01  7.93D-01  1.14D+00
                    CP:  1.25D+00  1.18D+00  1.57D+00  1.45D+00  1.46D+00
                    CP:  1.33D+00
 E= -1162.66346722324     Delta-E=       -0.000000003685 Rises=F Damp=F
 DIIS: error= 5.92D-07 at cycle  12 NSaved=  12.
 NSaved=12 IEnMin=12 EnMin= -1162.66346722324     IErMin=12 ErrMin= 5.92D-07
 ErrMax= 5.92D-07  0.00D+00 EMaxC= 1.00D-01 BMatC= 1.54D-10 BMatP= 1.21D-09
 IDIUse=1 WtCom= 1.00D+00 WtEn= 0.00D+00
 Coeff-Com:  0.397D-04-0.905D-04-0.124D-03-0.145D-03 0.129D-02 0.434D-02
 Coeff-Com:  0.253D-02-0.181D-01-0.553D-01-0.176D-02 0.283D+00 0.784D+00
 Coeff:      0.397D-04-0.905D-04-0.124D-03-0.145D-03 0.129D-02 0.434D-02
 Coeff:      0.253D-02-0.181D-01-0.553D-01-0.176D-02 0.283D+00 0.784D+00
 Gap=     0.265 Goal=   None    Shift=    0.000
 RMSDP=5.46D-08 MaxDP=2.08D-06 DE=-3.68D-09 OVMax= 9.46D-06

 Cycle  13  Pass 1  IDiag  1:
 RMSU=  2.70D-08    CP:  6.23D-01  1.79D+00  7.42D-01  7.93D-01  1.14D+00
                    CP:  1.25D+00  1.18D+00  1.57D+00  1.45D+00  1.50D+00
                    CP:  1.46D+00  1.25D+00
 E= -1162.66346722360     Delta-E=       -0.000000000365 Rises=F Damp=F
 DIIS: error= 1.52D-07 at cycle  13 NSaved=  13.
 NSaved=13 IEnMin=13 EnMin= -1162.66346722360     IErMin=13 ErrMin= 1.52D-07
 ErrMax= 1.52D-07  0.00D+00 EMaxC= 1.00D-01 BMatC= 2.44D-11 BMatP= 1.54D-10
 IDIUse=1 WtCom= 1.00D+00 WtEn= 0.00D+00
 Coeff-Com:  0.377D-05-0.808D-05-0.179D-04-0.301D-04-0.130D-03 0.396D-03
 Coeff-Com:  0.149D-02 0.343D-02-0.831D-02-0.369D-01-0.538D-01 0.264D+00
 Coeff-Com:  0.830D+00
 Coeff:      0.377D-05-0.808D-05-0.179D-04-0.301D-04-0.130D-03 0.396D-03
 Coeff:      0.149D-02 0.343D-02-0.831D-02-0.369D-01-0.538D-01 0.264D+00
 Coeff:      0.830D+00
 Gap=     0.265 Goal=   None    Shift=    0.000
 RMSDP=2.95D-08 MaxDP=1.36D-06 DE=-3.65D-10 OVMax= 4.51D-06

 Cycle  14  Pass 1  IDiag  1:
 RMSU=  1.29D-08    CP:  6.23D-01  1.79D+00  7.42D-01  7.93D-01  1.14D+00
                    CP:  1.25D+00  1.18D+00  1.57D+00  1.45D+00  1.51D+00
                    CP:  1.50D+00  1.40D+00  1.35D+00
 E= -1162.66346722365     Delta-E=       -0.000000000044 Rises=F Damp=F
 DIIS: error= 5.30D-08 at cycle  14 NSaved=  14.
 NSaved=14 IEnMin=14 EnMin= -1162.66346722365     IErMin=14 ErrMin= 5.30D-08
 ErrMax= 5.30D-08  0.00D+00 EMaxC= 1.00D-01 BMatC= 2.91D-12 BMatP= 2.44D-11
 IDIUse=1 WtCom= 1.00D+00 WtEn= 0.00D+00
 Coeff-Com: -0.154D-05 0.378D-05 0.338D-05 0.840D-06-0.177D-03-0.262D-03
 Coeff-Com:  0.349D-03 0.314D-02 0.191D-02-0.125D-01-0.465D-01 0.179D-01
 Coeff-Com:  0.326D+00 0.710D+00
 Coeff:     -0.154D-05 0.378D-05 0.338D-05 0.840D-06-0.177D-03-0.262D-03
 Coeff:      0.349D-03 0.314D-02 0.191D-02-0.125D-01-0.465D-01 0.179D-01
 Coeff:      0.326D+00 0.710D+00
 Gap=     0.265 Goal=   None    Shift=    0.000
 RMSDP=1.07D-08 MaxDP=6.02D-07 DE=-4.41D-11 OVMax= 8.90D-07

 Cycle  15  Pass 1  IDiag  1:
 RMSU=  3.26D-09    CP:  6.23D-01  1.79D+00  7.42D-01  7.93D-01  1.14D+00
                    CP:  1.25D+00  1.18D+00  1.57D+00  1.45D+00  1.51D+00
                    CP:  1.50D+00  1.44D+00  1.48D+00  1.13D+00
 E= -1162.66346722368     Delta-E=       -0.000000000031 Rises=F Damp=F
 DIIS: error= 1.81D-08 at cycle  15 NSaved=  15.
 NSaved=15 IEnMin=15 EnMin= -1162.66346722368     IErMin=15 ErrMin= 1.81D-08
 ErrMax= 1.81D-08  0.00D+00 EMaxC= 1.00D-01 BMatC= 2.18D-13 BMatP= 2.91D-12
 IDIUse=1 WtCom= 1.00D+00 WtEn= 0.00D+00
 Coeff-Com: -0.942D-06 0.214D-05 0.282D-05 0.291D-05-0.397D-04-0.117D-03
 Coeff-Com: -0.462D-04 0.610D-03 0.120D-02-0.138D-03-0.897D-02-0.216D-01
 Coeff-Com:  0.251D-01 0.213D+00 0.791D+00
 Coeff:     -0.942D-06 0.214D-05 0.282D-05 0.291D-05-0.397D-04-0.117D-03
 Coeff:     -0.462D-04 0.610D-03 0.120D-02-0.138D-03-0.897D-02-0.216D-01
 Coeff:      0.251D-01 0.213D+00 0.791D+00
 Gap=     0.265 Goal=   None    Shift=    0.000
 RMSDP=4.09D-09 MaxDP=2.08D-07 DE=-3.09D-11 OVMax= 3.13D-07

 Error on total polarization charges =  0.05714
 SCF Done:  E(RCAM-B3LYP) =  -1162.66346722     A.U. after   15 cycles
            NFock= 15  Conv=0.41D-08     -V/T= 2.0041
 KE= 1.157944125502D+03 PE=-5.856394542952D+03 EE= 1.969180964935D+03
 SMD-CDS (non-electrostatic) energy       (kcal/mol) =      -3.66
 (included in total energy above)
 Leave Link  502 at Thu Feb 25 19:12:53 2021, MaxMem=  5242880000 cpu:      9721.4
 (Enter /opt/nce/packages/global/g09/l601.exe)
 Copying SCF densities to generalized density rwf, IOpCl= 0 IROHF=0.

 **********************************************************************

            Population analysis using the SCF density.

 **********************************************************************

 Alpha  occ. eigenvalues --  -88.94456 -14.42903 -14.38226 -10.33108 -10.30112
 Alpha  occ. eigenvalues --  -10.30033 -10.28970 -10.28859 -10.28257 -10.26403
 Alpha  occ. eigenvalues --  -10.25972 -10.25747 -10.25712 -10.25491 -10.25435
 Alpha  occ. eigenvalues --  -10.25314 -10.25254 -10.25215 -10.25164 -10.24563
 Alpha  occ. eigenvalues --   -8.02205  -5.98634  -5.98276  -5.97711  -1.07715
 Alpha  occ. eigenvalues --   -1.01772  -0.95078  -0.94485  -0.88975  -0.88337
 Alpha  occ. eigenvalues --   -0.84703  -0.84260  -0.83464  -0.80862  -0.76786
 Alpha  occ. eigenvalues --   -0.72384  -0.71955  -0.69035  -0.67918  -0.67804
 Alpha  occ. eigenvalues --   -0.64128  -0.61576  -0.61235  -0.56941  -0.56092
 Alpha  occ. eigenvalues --   -0.55090  -0.54086  -0.53528  -0.52960  -0.51366
 Alpha  occ. eigenvalues --   -0.50938  -0.50085  -0.49041  -0.48714  -0.47463
 Alpha  occ. eigenvalues --   -0.46432  -0.45394  -0.44724  -0.44248  -0.43082
 Alpha  occ. eigenvalues --   -0.42377  -0.41047  -0.40521  -0.38732  -0.36618
 Alpha  occ. eigenvalues --   -0.34682  -0.33503  -0.32654  -0.31765  -0.30944
 Alpha  occ. eigenvalues --   -0.28114  -0.25507
 Alpha virt. eigenvalues --    0.01042   0.01211   0.01832   0.02477   0.03357
 Alpha virt. eigenvalues --    0.04789   0.06860   0.09215   0.10217   0.11270
 Alpha virt. eigenvalues --    0.11591   0.11676   0.12671   0.13536   0.14092
 Alpha virt. eigenvalues --    0.14561   0.15097   0.16016   0.16409   0.16577
 Alpha virt. eigenvalues --    0.16958   0.17586   0.17797   0.19060   0.19726
 Alpha virt. eigenvalues --    0.20135   0.21072   0.21492   0.22407   0.22939
 Alpha virt. eigenvalues --    0.23860   0.23985   0.24745   0.25254   0.25541
 Alpha virt. eigenvalues --    0.25715   0.26405   0.26700   0.27309   0.27734
 Alpha virt. eigenvalues --    0.27931   0.28663   0.28868   0.29517   0.29970
 Alpha virt. eigenvalues --    0.30309   0.30762   0.31519   0.32022   0.32554
 Alpha virt. eigenvalues --    0.33015   0.33920   0.34690   0.34980   0.35231
 Alpha virt. eigenvalues --    0.35813   0.36301   0.36682   0.37003   0.37372
 Alpha virt. eigenvalues --    0.37896   0.38114   0.38532   0.39454   0.40231
 Alpha virt. eigenvalues --    0.41173   0.41344   0.42084   0.42807   0.42973
 Alpha virt. eigenvalues --    0.43087   0.43397   0.43982   0.44356   0.44564
 Alpha virt. eigenvalues --    0.45358   0.46003   0.46456   0.46715   0.47239
 Alpha virt. eigenvalues --    0.47667   0.47959   0.48411   0.48797   0.49572
 Alpha virt. eigenvalues --    0.49841   0.50257   0.50397   0.50867   0.52285
 Alpha virt. eigenvalues --    0.52501   0.52927   0.53690   0.53929   0.54143
 Alpha virt. eigenvalues --    0.54758   0.54939   0.55193   0.56852   0.57162
 Alpha virt. eigenvalues --    0.58043   0.58412   0.58860   0.60217   0.60705
 Alpha virt. eigenvalues --    0.61385   0.62444   0.62731   0.63540   0.64049
 Alpha virt. eigenvalues --    0.65927   0.66026   0.66523   0.67154   0.68619
 Alpha virt. eigenvalues --    0.69400   0.70076   0.70467   0.70940   0.71791
 Alpha virt. eigenvalues --    0.72365   0.73161   0.73410   0.73794   0.74519
 Alpha virt. eigenvalues --    0.75155   0.75223   0.75866   0.76161   0.76842
 Alpha virt. eigenvalues --    0.78028   0.78338   0.80033   0.80225   0.80838
 Alpha virt. eigenvalues --    0.81519   0.81711   0.82688   0.83188   0.84238
 Alpha virt. eigenvalues --    0.85472   0.86048   0.86919   0.87587   0.88026
 Alpha virt. eigenvalues --    0.89161   0.89485   0.90195   0.91193   0.91824
 Alpha virt. eigenvalues --    0.92672   0.93377   0.93890   0.94779   0.95460
 Alpha virt. eigenvalues --    0.95899   0.96535   0.96958   0.98515   0.99520
 Alpha virt. eigenvalues --    0.99834   1.00008   1.01168   1.03024   1.03650
 Alpha virt. eigenvalues --    1.05344   1.05615   1.06255   1.08059   1.08646
 Alpha virt. eigenvalues --    1.09536   1.09874   1.11383   1.12025   1.12313
 Alpha virt. eigenvalues --    1.14264   1.15686   1.15892   1.17146   1.18287
 Alpha virt. eigenvalues --    1.18549   1.19350   1.19987   1.21309   1.22149
 Alpha virt. eigenvalues --    1.23579   1.23792   1.25210   1.25832   1.26715
 Alpha virt. eigenvalues --    1.27776   1.29037   1.29346   1.29808   1.30417
 Alpha virt. eigenvalues --    1.31306   1.32126   1.33626   1.33755   1.35412
 Alpha virt. eigenvalues --    1.35548   1.35997   1.37552   1.37754   1.38746
 Alpha virt. eigenvalues --    1.39226   1.39875   1.40693   1.41657   1.43082
 Alpha virt. eigenvalues --    1.43534   1.44824   1.45838   1.46168   1.47838
 Alpha virt. eigenvalues --    1.49188   1.49478   1.49999   1.50547   1.51372
 Alpha virt. eigenvalues --    1.51915   1.52496   1.53294   1.54199   1.55313
 Alpha virt. eigenvalues --    1.55700   1.56234   1.57287   1.58312   1.58469
 Alpha virt. eigenvalues --    1.59067   1.61549   1.62606   1.63265   1.63522
 Alpha virt. eigenvalues --    1.64204   1.64890   1.65910   1.66103   1.67291
 Alpha virt. eigenvalues --    1.68119   1.68300   1.68839   1.69343   1.69940
 Alpha virt. eigenvalues --    1.70358   1.71643   1.72050   1.72353   1.73417
 Alpha virt. eigenvalues --    1.74428   1.75054   1.75788   1.76186   1.77790
 Alpha virt. eigenvalues --    1.78616   1.78775   1.79935   1.80006   1.80493
 Alpha virt. eigenvalues --    1.81338   1.82565   1.82800   1.83953   1.85133
 Alpha virt. eigenvalues --    1.86294   1.87277   1.88314   1.89021   1.90219
 Alpha virt. eigenvalues --    1.91151   1.92718   1.93091   1.94556   1.95420
 Alpha virt. eigenvalues --    1.96453   1.97178   1.97294   1.98980   2.01799
 Alpha virt. eigenvalues --    2.02365   2.02612   2.03456   2.04054   2.06638
 Alpha virt. eigenvalues --    2.06699   2.08268   2.09148   2.10315   2.11149
 Alpha virt. eigenvalues --    2.12256   2.13307   2.13824   2.14626   2.15729
 Alpha virt. eigenvalues --    2.16371   2.17069   2.18002   2.18701   2.21154
 Alpha virt. eigenvalues --    2.21674   2.22095   2.23223   2.24296   2.25706
 Alpha virt. eigenvalues --    2.26001   2.26563   2.27082   2.28497   2.29245
 Alpha virt. eigenvalues --    2.30681   2.31451   2.32201   2.32597   2.34614
 Alpha virt. eigenvalues --    2.35271   2.37127   2.38672   2.40405   2.41520
 Alpha virt. eigenvalues --    2.44962   2.47508   2.48068   2.50032   2.50596
 Alpha virt. eigenvalues --    2.51609   2.52325   2.54212   2.54635   2.57174
 Alpha virt. eigenvalues --    2.57841   2.58161   2.59059   2.59193   2.59670
 Alpha virt. eigenvalues --    2.63426   2.64541   2.65149   2.66058   2.66287
 Alpha virt. eigenvalues --    2.67338   2.67703   2.68914   2.70142   2.70446
 Alpha virt. eigenvalues --    2.70736   2.71200   2.71511   2.72229   2.73592
 Alpha virt. eigenvalues --    2.74237   2.74307   2.75594   2.75941   2.76283
 Alpha virt. eigenvalues --    2.76795   2.77347   2.78327   2.79269   2.79446
 Alpha virt. eigenvalues --    2.79943   2.80217   2.81335   2.82433   2.83058
 Alpha virt. eigenvalues --    2.83891   2.85476   2.86143   2.86451   2.87875
 Alpha virt. eigenvalues --    2.88288   2.88509   2.89158   2.89517   2.90383
 Alpha virt. eigenvalues --    2.91285   2.92220   2.92865   2.93433   2.93964
 Alpha virt. eigenvalues --    2.93970   2.95427   2.95591   2.96880   2.97392
 Alpha virt. eigenvalues --    2.98017   2.98757   2.99261   3.00157   3.00529
 Alpha virt. eigenvalues --    3.01174   3.01705   3.03732   3.05018   3.05142
 Alpha virt. eigenvalues --    3.06679   3.08250   3.09606   3.10181   3.10635
 Alpha virt. eigenvalues --    3.11803   3.12790   3.13526   3.15006   3.15700
 Alpha virt. eigenvalues --    3.16284   3.16766   3.17831   3.19073   3.19570
 Alpha virt. eigenvalues --    3.19826   3.20603   3.21230   3.21823   3.22460
 Alpha virt. eigenvalues --    3.22812   3.23173   3.23467   3.24418   3.25017
 Alpha virt. eigenvalues --    3.25574   3.26087   3.27173   3.27305   3.27904
 Alpha virt. eigenvalues --    3.28418   3.29674   3.30816   3.31204   3.33234
 Alpha virt. eigenvalues --    3.33934   3.34695   3.35621   3.36589   3.37311
 Alpha virt. eigenvalues --    3.38099   3.38768   3.39151   3.39726   3.40508
 Alpha virt. eigenvalues --    3.40811   3.41308   3.41997   3.42856   3.43545
 Alpha virt. eigenvalues --    3.44355   3.45067   3.45520   3.46193   3.46504
 Alpha virt. eigenvalues --    3.47182   3.47625   3.49091   3.50046   3.50138
 Alpha virt. eigenvalues --    3.51279   3.51969   3.52441   3.53373   3.54079
 Alpha virt. eigenvalues --    3.54364   3.55469   3.56693   3.56935   3.58861
 Alpha virt. eigenvalues --    3.59179   3.59443   3.60899   3.61668   3.61902
 Alpha virt. eigenvalues --    3.62270   3.62903   3.63924   3.64909   3.65493
 Alpha virt. eigenvalues --    3.66765   3.67311   3.68531   3.69289   3.72511
 Alpha virt. eigenvalues --    3.73883   3.75947   3.78085   3.78601   3.79651
 Alpha virt. eigenvalues --    3.80326   3.81040   3.82907   3.83509   3.85017
 Alpha virt. eigenvalues --    3.86280   3.88671   3.91554   3.93629   3.95797
 Alpha virt. eigenvalues --    3.96839   3.97298   3.98540   3.98674   4.00179
 Alpha virt. eigenvalues --    4.01472   4.03273   4.03982   4.06800   4.09604
 Alpha virt. eigenvalues --    4.10184   4.11117   4.11628   4.13407   4.15204
 Alpha virt. eigenvalues --    4.15775   4.16019   4.17195   4.17798   4.19914
 Alpha virt. eigenvalues --    4.20329   4.22032   4.23539   4.25371   4.25699
 Alpha virt. eigenvalues --    4.26262   4.27342   4.28018   4.28876   4.29386
 Alpha virt. eigenvalues --    4.29858   4.30633   4.31160   4.32663   4.33050
 Alpha virt. eigenvalues --    4.35702   4.36399   4.36788   4.38279   4.40076
 Alpha virt. eigenvalues --    4.41365   4.42314   4.43746   4.45407   4.45936
 Alpha virt. eigenvalues --    4.47866   4.49244   4.51628   4.54911   4.57697
 Alpha virt. eigenvalues --    4.59249   4.64740   4.67032   4.69286   4.71623
 Alpha virt. eigenvalues --    4.74556   4.77492   4.78352   4.79836   4.80604
 Alpha virt. eigenvalues --    4.80855   4.82116   4.82807   4.85567   4.87717
 Alpha virt. eigenvalues --    4.89497   4.92542   4.94617   4.98088   5.00555
 Alpha virt. eigenvalues --    5.02080   5.03406   5.04045   5.06979   5.08622
 Alpha virt. eigenvalues --    5.09662   5.14599   5.16182   5.19957   5.21643
 Alpha virt. eigenvalues --    5.22542   5.26558   5.29349   5.30029   5.30539
 Alpha virt. eigenvalues --    5.33318   5.34496   5.36827   5.39889   5.44781
 Alpha virt. eigenvalues --    5.46615   5.49841   5.50326   5.52105   5.54564
 Alpha virt. eigenvalues --    5.60430   5.62722   5.68416   5.74428   5.77789
 Alpha virt. eigenvalues --    5.80166   5.81769   5.89836   5.99795   6.02701
 Alpha virt. eigenvalues --    6.07815   6.16084   6.41911   9.03766   9.47053
 Alpha virt. eigenvalues --    9.63989  20.32554  22.11635  22.25906  22.38399
 Alpha virt. eigenvalues --   22.60576  22.62521  22.63081  22.67726  22.68200
 Alpha virt. eigenvalues --   22.70237  22.82989  22.83705  22.87039  22.91346
 Alpha virt. eigenvalues --   22.94332  23.22894  23.28590  23.31553  32.65159
 Alpha virt. eigenvalues --   33.23648
          Condensed to atoms (all electrons):
               1          2          3          4          5          6
     1  C    5.094239   0.343614   0.094294  -0.153758   0.078193   0.376239
     2  C    0.343614   5.338874   0.161161   0.100239  -0.187843   0.039821
     3  C    0.094294   0.161161   5.363868   0.215249   0.152685  -0.129165
     4  C   -0.153758   0.100239   0.215249   5.406712   0.202124   0.068131
     5  C    0.078193  -0.187843   0.152685   0.202124   5.428924   0.285537
     6  C    0.376239   0.039821  -0.129165   0.068131   0.285537   5.123550
     7  C   -0.000807   0.006041   0.004591  -0.128768  -0.008496   0.000959
     8  C   -0.000946   0.003001  -0.061036  -0.000400  -0.000428   0.000285
     9  C   -0.000349   0.003813   0.005755  -0.002168  -0.001878   0.000202
    10  H   -0.000013   0.000224   0.000421  -0.000039  -0.000041   0.000007
    11  C    0.000024  -0.000344  -0.001687   0.001818   0.000294  -0.000013
    12  C   -0.000008   0.000196   0.001153  -0.003348  -0.000440   0.000029
    13  C    0.000346  -0.002391  -0.003636   0.021095   0.009041  -0.000601
    14  H   -0.050984   0.456430  -0.080027   0.019777  -0.007229   0.012062
    15  H    0.009294  -0.004010   0.010711  -0.051209   0.440168  -0.042935
    16  H   -0.049315   0.010281  -0.004225   0.014067  -0.052769   0.442538
    17  H    0.000000  -0.000002   0.000006   0.000009   0.000001  -0.000000
    18  H   -0.000000   0.000001   0.000000  -0.000026  -0.000003   0.000000
    19  C   -0.002035   0.005114  -0.019012  -0.112554  -0.018770   0.004166
    20  C    0.000119  -0.000697   0.001911   0.017793   0.002279  -0.000098
    21  C    0.000007  -0.000015  -0.000053   0.000310  -0.000038  -0.000050
    22  C    0.000093  -0.000107  -0.000658  -0.001339   0.002322  -0.000358
    23  C    0.000008  -0.000012   0.000060   0.000509   0.000136  -0.000039
    24  H    0.000000  -0.000000  -0.000003   0.000048   0.000007  -0.000000
    25  H   -0.000024   0.000019  -0.000058   0.000268  -0.000186   0.000169
    26  H   -0.000006   0.000033   0.000118  -0.002934  -0.000260   0.000023
    27  H   -0.000000   0.000000  -0.000000  -0.000034  -0.000001   0.000002
    28  H    0.443603  -0.052854   0.012380  -0.004538   0.011687  -0.050576
    29  N   -0.004916   0.022199  -0.092514   0.306647  -0.086054   0.012390
    30  H   -0.000003   0.000004  -0.000110   0.001109  -0.000047   0.000023
    31  S    0.010944  -0.071722   0.399329  -0.080323   0.022417  -0.004299
    32  N    0.002286  -0.002745   0.008722  -0.016950   0.015282  -0.012661
               7          8          9         10         11         12
     1  C   -0.000807  -0.000946  -0.000349  -0.000013   0.000024  -0.000008
     2  C    0.006041   0.003001   0.003813   0.000224  -0.000344   0.000196
     3  C    0.004591  -0.061036   0.005755   0.000421  -0.001687   0.001153
     4  C   -0.128768  -0.000400  -0.002168  -0.000039   0.001818  -0.003348
     5  C   -0.008496  -0.000428  -0.001878  -0.000041   0.000294  -0.000440
     6  C    0.000959   0.000285   0.000202   0.000007  -0.000013   0.000029
     7  C    5.511193   0.253958   0.056251   0.019681  -0.122045  -0.018954
     8  C    0.253958   5.300368   0.219617  -0.075763   0.064690  -0.083003
     9  C    0.056251   0.219617   5.272679   0.450949   0.375398   0.000069
    10  H    0.019681  -0.075763   0.450949   0.481751  -0.050901   0.011347
    11  C   -0.122045   0.064690   0.375398  -0.050901   5.077715   0.405863
    12  C   -0.018954  -0.083003   0.000069   0.011347   0.405863   5.072687
    13  C    0.277965   0.076936  -0.113734  -0.005984   0.021159   0.384286
    14  H    0.000277   0.000174   0.000171   0.000044  -0.000013   0.000007
    15  H   -0.000925  -0.000150   0.000004   0.000000  -0.000002   0.000014
    16  H    0.000021  -0.000002   0.000001   0.000000  -0.000000   0.000000
    17  H   -0.003407   0.010753  -0.050365  -0.005623   0.441844  -0.048839
    18  H    0.012015  -0.003451   0.009446  -0.000087  -0.047935   0.439365
    19  C   -0.099215  -0.033356   0.007185   0.000088  -0.001748  -0.001802
    20  C   -0.016867   0.011834  -0.002638  -0.000039   0.001301  -0.002205
    21  C   -0.006605  -0.000368  -0.000085  -0.000001   0.000127  -0.000276
    22  C   -0.003077  -0.000095   0.000015   0.000000  -0.000001   0.000002
    23  C    0.000667   0.000113  -0.000012  -0.000000  -0.000000   0.000033
    24  H    0.000018  -0.000015   0.000003   0.000000  -0.000001   0.000006
    25  H    0.000064  -0.000001   0.000000   0.000000  -0.000000   0.000000
    26  H    0.001549   0.000703   0.000457   0.000007  -0.000305   0.001027
    27  H    0.000018   0.000000  -0.000000   0.000000  -0.000000  -0.000000
    28  H   -0.000005   0.000012  -0.000002  -0.000000   0.000000  -0.000000
    29  N    0.287163  -0.079484   0.012650  -0.000129  -0.000392   0.005499
    30  H   -0.044245   0.008883  -0.001899   0.000019   0.006834  -0.036031
    31  S   -0.111312   0.420410  -0.072367   0.004678   0.010205  -0.003355
    32  N   -0.000817  -0.000388   0.000044  -0.000000   0.000000  -0.000173
              13         14         15         16         17         18
     1  C    0.000346  -0.050984   0.009294  -0.049315   0.000000  -0.000000
     2  C   -0.002391   0.456430  -0.004010   0.010281  -0.000002   0.000001
     3  C   -0.003636  -0.080027   0.010711  -0.004225   0.000006   0.000000
     4  C    0.021095   0.019777  -0.051209   0.014067   0.000009  -0.000026
     5  C    0.009041  -0.007229   0.440168  -0.052769   0.000001  -0.000003
     6  C   -0.000601   0.012062  -0.042935   0.442538  -0.000000   0.000000
     7  C    0.277965   0.000277  -0.000925   0.000021  -0.003407   0.012015
     8  C    0.076936   0.000174  -0.000150  -0.000002   0.010753  -0.003451
     9  C   -0.113734   0.000171   0.000004   0.000001  -0.050365   0.009446
    10  H   -0.005984   0.000044   0.000000   0.000000  -0.005623  -0.000087
    11  C    0.021159  -0.000013  -0.000002  -0.000000   0.441844  -0.047935
    12  C    0.384286   0.000007   0.000014   0.000000  -0.048839   0.439365
    13  C    5.251416  -0.000039   0.000226  -0.000005   0.010046  -0.048584
    14  H   -0.000039   0.482622  -0.000001  -0.000093  -0.000000   0.000000
    15  H    0.000226  -0.000001   0.465161  -0.005750  -0.000000  -0.000000
    16  H   -0.000005  -0.000093  -0.005750   0.481006   0.000000  -0.000000
    17  H    0.010046  -0.000000  -0.000000   0.000000   0.478993  -0.004912
    18  H   -0.048584   0.000000  -0.000000  -0.000000  -0.004912   0.476904
    19  C   -0.006279   0.000077  -0.003183   0.000038   0.000005   0.000114
    20  C    0.001106  -0.000006  -0.000067  -0.000005   0.000006  -0.000113
    21  C    0.003841  -0.000000   0.000220  -0.000000   0.000000  -0.000010
    22  C    0.000016  -0.000000   0.001210  -0.000010   0.000000   0.000001
    23  C    0.000063  -0.000000   0.000133  -0.000001   0.000000  -0.000001
    24  H   -0.000022   0.000000   0.000003  -0.000000  -0.000000   0.000000
    25  H   -0.000011   0.000000  -0.000657   0.000009   0.000000   0.000000
    26  H   -0.011034   0.000000  -0.000071   0.000000  -0.000002   0.000045
    27  H    0.000002   0.000000  -0.000019   0.000000   0.000000   0.000000
    28  H    0.000001  -0.005708  -0.000034  -0.005086   0.000000   0.000000
    29  N   -0.040954  -0.000008  -0.006768   0.000007   0.000022  -0.000182
    30  H    0.432093   0.000000   0.000013  -0.000000  -0.000081  -0.005093
    31  S    0.020581   0.004107  -0.000157   0.000013  -0.000270   0.000011
    32  N   -0.001433  -0.000007   0.029026  -0.000341   0.000000   0.000001
              19         20         21         22         23         24
     1  C   -0.002035   0.000119   0.000007   0.000093   0.000008   0.000000
     2  C    0.005114  -0.000697  -0.000015  -0.000107  -0.000012  -0.000000
     3  C   -0.019012   0.001911  -0.000053  -0.000658   0.000060  -0.000003
     4  C   -0.112554   0.017793   0.000310  -0.001339   0.000509   0.000048
     5  C   -0.018770   0.002279  -0.000038   0.002322   0.000136   0.000007
     6  C    0.004166  -0.000098  -0.000050  -0.000358  -0.000039  -0.000000
     7  C   -0.099215  -0.016867  -0.006605  -0.003077   0.000667   0.000018
     8  C   -0.033356   0.011834  -0.000368  -0.000095   0.000113  -0.000015
     9  C    0.007185  -0.002638  -0.000085   0.000015  -0.000012   0.000003
    10  H    0.000088  -0.000039  -0.000001   0.000000  -0.000000   0.000000
    11  C   -0.001748   0.001301   0.000127  -0.000001  -0.000000  -0.000001
    12  C   -0.001802  -0.002205  -0.000276   0.000002   0.000033   0.000006
    13  C   -0.006279   0.001106   0.003841   0.000016   0.000063  -0.000022
    14  H    0.000077  -0.000006  -0.000000  -0.000000  -0.000000   0.000000
    15  H   -0.003183  -0.000067   0.000220   0.001210   0.000133   0.000003
    16  H    0.000038  -0.000005  -0.000000  -0.000010  -0.000001  -0.000000
    17  H    0.000005   0.000006   0.000000   0.000000   0.000000  -0.000000
    18  H    0.000114  -0.000113  -0.000010   0.000001  -0.000001   0.000000
    19  C    4.886833   0.446776  -0.044537  -0.110158  -0.032867   0.006711
    20  C    0.446776   5.123177   0.471885  -0.026403  -0.050643  -0.039778
    21  C   -0.044537   0.471885   4.987310  -0.035186   0.444310   0.430740
    22  C   -0.110158  -0.026403  -0.035186   4.825467   0.498753   0.004586
    23  C   -0.032867  -0.050643   0.444310   0.498753   5.080785  -0.039164
    24  H    0.006711  -0.039778   0.430740   0.004586  -0.039164   0.469264
    25  H    0.005833  -0.001005   0.003644   0.430128  -0.061478  -0.000192
    26  H   -0.037991   0.430942  -0.040631  -0.002149   0.008125  -0.005191
    27  H   -0.001863   0.008251  -0.049069  -0.029864   0.421116  -0.004656
    28  H    0.000003   0.000000   0.000000   0.000000   0.000000   0.000000
    29  N    0.448207  -0.064593  -0.000266  -0.000520   0.001487  -0.000119
    30  H   -0.001318  -0.001154   0.000359   0.000082   0.000032   0.000008
    31  S    0.000701   0.003026   0.000013   0.000037   0.000047  -0.000003
    32  N    0.429946  -0.050633  -0.030902   0.542666  -0.073380  -0.001086
              25         26         27         28         29         30
     1  C   -0.000024  -0.000006  -0.000000   0.443603  -0.004916  -0.000003
     2  C    0.000019   0.000033   0.000000  -0.052854   0.022199   0.000004
     3  C   -0.000058   0.000118  -0.000000   0.012380  -0.092514  -0.000110
     4  C    0.000268  -0.002934  -0.000034  -0.004538   0.306647   0.001109
     5  C   -0.000186  -0.000260  -0.000001   0.011687  -0.086054  -0.000047
     6  C    0.000169   0.000023   0.000002  -0.050576   0.012390   0.000023
     7  C    0.000064   0.001549   0.000018  -0.000005   0.287163  -0.044245
     8  C   -0.000001   0.000703   0.000000   0.000012  -0.079484   0.008883
     9  C    0.000000   0.000457  -0.000000  -0.000002   0.012650  -0.001899
    10  H    0.000000   0.000007   0.000000  -0.000000  -0.000129   0.000019
    11  C   -0.000000  -0.000305  -0.000000   0.000000  -0.000392   0.006834
    12  C    0.000000   0.001027  -0.000000  -0.000000   0.005499  -0.036031
    13  C   -0.000011  -0.011034   0.000002   0.000001  -0.040954   0.432093
    14  H    0.000000   0.000000   0.000000  -0.005708  -0.000008   0.000000
    15  H   -0.000657  -0.000071  -0.000019  -0.000034  -0.006768   0.000013
    16  H    0.000009   0.000000   0.000000  -0.005086   0.000007  -0.000000
    17  H    0.000000  -0.000002   0.000000   0.000000   0.000022  -0.000081
    18  H    0.000000   0.000045   0.000000   0.000000  -0.000182  -0.005093
    19  C    0.005833  -0.037991  -0.001863   0.000003   0.448207  -0.001318
    20  C   -0.001005   0.430942   0.008251   0.000000  -0.064593  -0.001154
    21  C    0.003644  -0.040631  -0.049069   0.000000  -0.000266   0.000359
    22  C    0.430128  -0.002149  -0.029864   0.000000  -0.000520   0.000082
    23  C   -0.061478   0.008125   0.421116   0.000000   0.001487   0.000032
    24  H   -0.000192  -0.005191  -0.004656   0.000000  -0.000119   0.000008
    25  H    0.492962   0.000087  -0.000402  -0.000000   0.000121  -0.000002
    26  H    0.000087   0.464398   0.000089  -0.000000  -0.003809  -0.000970
    27  H   -0.000402   0.000089   0.478994  -0.000000   0.000054  -0.000001
    28  H   -0.000000  -0.000000  -0.000000   0.481279   0.000004  -0.000000
    29  N    0.000121  -0.003809   0.000054   0.000004   6.432675   0.002231
    30  H   -0.000002  -0.000970  -0.000001  -0.000000   0.002231   0.458580
    31  S    0.000000   0.000118   0.000000  -0.000277  -0.002812  -0.000219
    32  N   -0.034267   0.004173   0.006360   0.000007  -0.123348  -0.000201
              31         32
     1  C    0.010944   0.002286
     2  C   -0.071722  -0.002745
     3  C    0.399329   0.008722
[...]
 Alpha virt. eigenvalues --    5.35638   5.36851   5.39540   5.41691   5.45533
 Alpha virt. eigenvalues --    5.47365   5.51998   5.54418   5.56146   5.57565
 Alpha virt. eigenvalues --    5.61873   5.65242   5.69539   5.77800   5.81515
 Alpha virt. eigenvalues --    5.83417   5.84503   5.94434   6.02450   6.04702
 Alpha virt. eigenvalues --    6.12593   6.19282   6.45403   9.04812   9.48988
 Alpha virt. eigenvalues --    9.65515  20.44263  22.12394  22.30965  22.42118
 Alpha virt. eigenvalues --   22.66580  22.69381  22.70334  22.74458  22.74957
 Alpha virt. eigenvalues --   22.77700  22.90270  22.90952  22.95216  22.99543
 Alpha virt. eigenvalues --   23.02821  23.32302  23.36838  23.40640  32.66433
 Alpha virt. eigenvalues --   33.27127
          Condensed to atoms (all electrons):
               1          2          3          4          5          6
     1  C    5.098620   0.332462   0.107992  -0.160917   0.069915   0.382606
     2  C    0.332462   5.379632   0.116962   0.112800  -0.192033   0.035331
     3  C    0.107992   0.116962   5.398593   0.214098   0.161551  -0.125940
     4  C   -0.160917   0.112800   0.214098   5.443159   0.182059   0.041613
     5  C    0.069915  -0.192033   0.161551   0.182059   5.405422   0.328438
     6  C    0.382606   0.035331  -0.125940   0.041613   0.328438   5.086917
     7  C    0.000457   0.000656  -0.002339  -0.103136   0.005145  -0.000772
     8  C   -0.001540   0.005720  -0.067977  -0.011200  -0.002873   0.000790
     9  C   -0.000594   0.006086   0.005666  -0.002416  -0.003218   0.000336
    10  H   -0.000016   0.000239   0.000358   0.000082  -0.000044   0.000008
    11  C    0.000046  -0.000547  -0.001471   0.001416   0.000468  -0.000024
    12  C   -0.000023   0.000333   0.000751  -0.003052  -0.000506   0.000032
    13  C    0.000524  -0.003531  -0.001351   0.022450   0.011720  -0.000617
    14  H   -0.052710   0.459950  -0.081453   0.020943  -0.007246   0.012239
    15  H    0.008963  -0.003798   0.010865  -0.054763   0.445322  -0.040227
    16  H   -0.050953   0.010879  -0.004552   0.015159  -0.053661   0.445360
    17  H    0.000000  -0.000002   0.000006   0.000009   0.000001  -0.000000
    18  H   -0.000000   0.000001  -0.000000  -0.000040  -0.000006   0.000000
    19  C   -0.002400   0.006727  -0.022675  -0.110096  -0.023096   0.003930
    20  C    0.000110  -0.000625  -0.001391   0.017940   0.002277  -0.000210
    21  C    0.000004  -0.000016   0.000118   0.000052  -0.000131  -0.000029
    22  C    0.000078  -0.000114  -0.000250  -0.003222   0.003160  -0.000235
    23  C    0.000004  -0.000002  -0.000134   0.000465   0.000355  -0.000013
    24  H    0.000000  -0.000000  -0.000002   0.000044   0.000006  -0.000000
    25  H   -0.000020   0.000020  -0.000035   0.000224  -0.000518   0.000125
    26  H   -0.000002   0.000016   0.000018  -0.002530  -0.000157   0.000010
    27  H   -0.000000   0.000000  -0.000001  -0.000030  -0.000010   0.000001
    28  H    0.445672  -0.053229   0.012556  -0.004257   0.010999  -0.049963
    29  N   -0.004678   0.027231  -0.097190   0.270438  -0.081352   0.010163
    30  H    0.000005  -0.000030  -0.000050   0.001311   0.000217   0.000027
    31  S    0.011938  -0.072134   0.410934  -0.098575   0.024286  -0.004891
    32  N    0.001720  -0.003171   0.014569  -0.020150   0.031038  -0.008889
               7          8          9         10         11         12
     1  C    0.000457  -0.001540  -0.000594  -0.000016   0.000046  -0.000023
     2  C    0.000656   0.005720   0.006086   0.000239  -0.000547   0.000333
     3  C   -0.002339  -0.067977   0.005666   0.000358  -0.001471   0.000751
     4  C   -0.103136  -0.011200  -0.002416   0.000082   0.001416  -0.003052
     5  C    0.005145  -0.002873  -0.003218  -0.000044   0.000468  -0.000506
     6  C   -0.000772   0.000790   0.000336   0.000008  -0.000024   0.000032
     7  C    5.555400   0.239997   0.089425   0.021208  -0.153577   0.005300
     8  C    0.239997   5.351869   0.156967  -0.079162   0.098066  -0.113679
     9  C    0.089425   0.156967   5.338971   0.456969   0.340580   0.027686
    10  H    0.021208  -0.079162   0.456969   0.482427  -0.053083   0.012223
    11  C   -0.153577   0.098066   0.340580  -0.053083   5.102612   0.380588
    12  C    0.005300  -0.113679   0.027686   0.012223   0.380588   5.087901
    13  C    0.195282   0.120551  -0.157656  -0.006788   0.053434   0.353500
    14  H    0.000226   0.000262   0.000240   0.000049  -0.000019   0.000010
    15  H    0.000275  -0.000153  -0.000017   0.000000   0.000002   0.000013
    16  H   -0.000005   0.000002   0.000001   0.000000  -0.000000   0.000000
    17  H   -0.004090   0.012079  -0.052574  -0.006067   0.445953  -0.050037
    18  H    0.014781  -0.004365   0.010783  -0.000087  -0.051464   0.444832
    19  C   -0.091500  -0.028758   0.007667   0.000120  -0.002699   0.002873
    20  C   -0.023103   0.006239  -0.001364  -0.000038   0.000542  -0.000761
    21  C   -0.004977  -0.000265  -0.000219  -0.000002   0.000170  -0.000275
    22  C   -0.001819  -0.000219  -0.000002   0.000000   0.000001  -0.000001
    23  C   -0.000063   0.000070   0.000012  -0.000000  -0.000003   0.000014
    24  H    0.000076  -0.000010   0.000000   0.000000  -0.000000   0.000005
    25  H    0.000051   0.000003   0.000000   0.000000  -0.000000   0.000000
    26  H    0.005020   0.000243   0.001034   0.000010  -0.000904   0.002352
    27  H    0.000008   0.000001   0.000000   0.000000  -0.000000   0.000000
    28  H    0.000002   0.000008  -0.000003  -0.000000   0.000000  -0.000000
    29  N    0.250694  -0.081448   0.019484  -0.000152  -0.001556   0.006196
    30  H   -0.055038   0.011737  -0.003546   0.000017   0.009237  -0.039711
    31  S   -0.116595   0.425287  -0.071394   0.004858   0.011143  -0.004636
    32  N    0.006132  -0.000726  -0.000025  -0.000000   0.000004  -0.000100
              13         14         15         16         17         18
     1  C    0.000524  -0.052710   0.008963  -0.050953   0.000000  -0.000000
     2  C   -0.003531   0.459950  -0.003798   0.010879  -0.000002   0.000001
     3  C   -0.001351  -0.081453   0.010865  -0.004552   0.000006  -0.000000
     4  C    0.022450   0.020943  -0.054763   0.015159   0.000009  -0.000040
     5  C    0.011720  -0.007246   0.445322  -0.053661   0.000001  -0.000006
     6  C   -0.000617   0.012239  -0.040227   0.445360  -0.000000   0.000000
     7  C    0.195282   0.000226   0.000275  -0.000005  -0.004090   0.014781
     8  C    0.120551   0.000262  -0.000153   0.000002   0.012079  -0.004365
     9  C   -0.157656   0.000240  -0.000017   0.000001  -0.052574   0.010783
    10  H   -0.006788   0.000049   0.000000   0.000000  -0.006067  -0.000087
    11  C    0.053434  -0.000019   0.000002  -0.000000   0.445953  -0.051464
    12  C    0.353500   0.000010   0.000013   0.000000  -0.050037   0.444832
    13  C    5.352346  -0.000051   0.000230  -0.000008   0.010797  -0.052227
    14  H   -0.000051   0.483659   0.000012  -0.000098  -0.000000   0.000000
    15  H    0.000230   0.000012   0.469165  -0.005988  -0.000000  -0.000000
    16  H   -0.000008  -0.000098  -0.005988   0.481777   0.000000   0.000000
    17  H    0.010797  -0.000000  -0.000000   0.000000   0.479925  -0.005284
    18  H   -0.052227   0.000000  -0.000000   0.000000  -0.005284   0.479413
    19  C   -0.011549   0.000095  -0.001478   0.000063  -0.000002   0.000110
    20  C   -0.002088  -0.000007  -0.000376  -0.000001   0.000006  -0.000015
    21  C    0.005990  -0.000000   0.000106  -0.000000   0.000000  -0.000010
    22  C    0.000152  -0.000000   0.001129  -0.000013   0.000000   0.000000
    23  C   -0.000406  -0.000000  -0.000005  -0.000000  -0.000000  -0.000000
    24  H    0.000061   0.000000   0.000001  -0.000000   0.000000   0.000000
    25  H   -0.000009   0.000000  -0.000183   0.000004   0.000000   0.000000
    26  H   -0.019235   0.000000  -0.000041   0.000000  -0.000011   0.000098
    27  H   -0.000001   0.000000  -0.000008   0.000000  -0.000000   0.000000
    28  H    0.000001  -0.006050  -0.000074  -0.005269   0.000000   0.000000
    29  N   -0.039081  -0.000033  -0.001805  -0.000080   0.000025  -0.000209
    30  H    0.445423   0.000000   0.000068  -0.000001  -0.000069  -0.005910
    31  S    0.024478   0.004230  -0.000185   0.000012  -0.000288   0.000009
    32  N   -0.001406  -0.000010   0.013059  -0.000179   0.000000   0.000001
              19         20         21         22         23         24
     1  C   -0.002400   0.000110   0.000004   0.000078   0.000004   0.000000
     2  C    0.006727  -0.000625  -0.000016  -0.000114  -0.000002  -0.000000
     3  C   -0.022675  -0.001391   0.000118  -0.000250  -0.000134  -0.000002
     4  C   -0.110096   0.017940   0.000052  -0.003222   0.000465   0.000044
     5  C   -0.023096   0.002277  -0.000131   0.003160   0.000355   0.000006
     6  C    0.003930  -0.000210  -0.000029  -0.000235  -0.000013  -0.000000
     7  C   -0.091500  -0.023103  -0.004977  -0.001819  -0.000063   0.000076
     8  C   -0.028758   0.006239  -0.000265  -0.000219   0.000070  -0.000010
     9  C    0.007667  -0.001364  -0.000219  -0.000002   0.000012   0.000000
    10  H    0.000120  -0.000038  -0.000002   0.000000  -0.000000   0.000000
    11  C   -0.002699   0.000542   0.000170   0.000001  -0.000003  -0.000000
    12  C    0.002873  -0.000761  -0.000275  -0.000001   0.000014   0.000005
    13  C   -0.011549  -0.002088   0.005990   0.000152  -0.000406   0.000061
    14  H    0.000095  -0.000007  -0.000000  -0.000000  -0.000000   0.000000
    15  H   -0.001478  -0.000376   0.000106   0.001129  -0.000005   0.000001
    16  H    0.000063  -0.000001  -0.000000  -0.000013  -0.000000  -0.000000
    17  H   -0.000002   0.000006   0.000000   0.000000  -0.000000   0.000000
    18  H    0.000110  -0.000015  -0.000010   0.000000  -0.000000   0.000000
    19  C    4.836745   0.464318  -0.049410  -0.112311  -0.034429   0.007419
    20  C    0.464318   5.123516   0.483593  -0.021809  -0.053704  -0.040870
    21  C   -0.049410   0.483593   4.977643  -0.045686   0.450086   0.433723
    22  C   -0.112311  -0.021809  -0.045686   4.822095   0.499475   0.004485
    23  C   -0.034429  -0.053704   0.450086   0.499475   5.094536  -0.040018
    24  H    0.007419  -0.040870   0.433723   0.004485  -0.040018   0.471267
    25  H    0.005414  -0.000839   0.003339   0.434908  -0.065174  -0.000199
    26  H   -0.035658   0.430279  -0.040344  -0.002012   0.008511  -0.005499
    27  H   -0.002327   0.008558  -0.050475  -0.028098   0.422266  -0.004876
    28  H    0.000006   0.000001  -0.000000   0.000000   0.000000  -0.000000
    29  N    0.461747  -0.071830   0.000613   0.000510   0.000888  -0.000112
    30  H   -0.001738  -0.003146   0.000452   0.000036   0.000007   0.000016
    31  S    0.000860   0.004376   0.000173   0.000173   0.000010  -0.000003
    32  N    0.439007  -0.044535  -0.035770   0.546692  -0.078896  -0.001162
              25         26         27         28         29         30
     1  C   -0.000020  -0.000002  -0.000000   0.445672  -0.004678   0.000005
     2  C    0.000020   0.000016   0.000000  -0.053229   0.027231  -0.000030
     3  C   -0.000035   0.000018  -0.000001   0.012556  -0.097190  -0.000050
     4  C    0.000224  -0.002530  -0.000030  -0.004257   0.270438   0.001311
     5  C   -0.000518  -0.000157  -0.000010   0.010999  -0.081352   0.000217
     6  C    0.000125   0.000010   0.000001  -0.049963   0.010163   0.000027
     7  C    0.000051   0.005020   0.000008   0.000002   0.250694  -0.055038
     8  C    0.000003   0.000243   0.000001   0.000008  -0.081448   0.011737
     9  C    0.000000   0.001034   0.000000  -0.000003   0.019484  -0.003546
    10  H    0.000000   0.000010   0.000000  -0.000000  -0.000152   0.000017
    11  C   -0.000000  -0.000904  -0.000000   0.000000  -0.001556   0.009237
    12  C    0.000000   0.002352   0.000000  -0.000000   0.006196  -0.039711
    13  C   -0.000009  -0.019235  -0.000001   0.000001  -0.039081   0.445423
    14  H    0.000000   0.000000   0.000000  -0.006050  -0.000033   0.000000
    15  H   -0.000183  -0.000041  -0.000008  -0.000074  -0.001805   0.000068
    16  H    0.000004   0.000000   0.000000  -0.005269  -0.000080  -0.000001
    17  H    0.000000  -0.000011  -0.000000   0.000000   0.000025  -0.000069
    18  H    0.000000   0.000098   0.000000   0.000000  -0.000209  -0.005910
    19  C    0.005414  -0.035658  -0.002327   0.000006   0.461747  -0.001738
    20  C   -0.000839   0.430279   0.008558   0.000001  -0.071830  -0.003146
    21  C    0.003339  -0.040344  -0.050475  -0.000000   0.000613   0.000452
    22  C    0.434908  -0.002012  -0.028098   0.000000   0.000510   0.000036
    23  C   -0.065174   0.008511   0.422266   0.000000   0.000888   0.000007
    24  H   -0.000199  -0.005499  -0.004876  -0.000000  -0.000112   0.000016
    25  H    0.494263   0.000102  -0.000571  -0.000000   0.000180  -0.000001
    26  H    0.000102   0.467636   0.000109   0.000000  -0.004949  -0.002242
    27  H   -0.000571   0.000109   0.481105  -0.000000   0.000059  -0.000001
    28  H   -0.000000   0.000000  -0.000000   0.481747   0.000010  -0.000000
    29  N    0.000180  -0.004949   0.000059   0.000010   6.489428   0.004104
    30  H   -0.000001  -0.002242  -0.000001  -0.000000   0.004104   0.460612
    31  S    0.000003  -0.000015  -0.000000  -0.000287  -0.000848  -0.000162
    32  N   -0.033283   0.004943   0.006898   0.000002  -0.121476  -0.000306
              31         32
     1  C    0.011938   0.001720
     2  C   -0.072134  -0.003171
     3  C    0.410934   0.014569
     4  C   -0.098575  -0.020150
     5  C    0.024286   0.031038
     6  C   -0.004891  -0.008889
     7  C   -0.116595   0.006132
     8  C    0.425287  -0.000726
     9  C   -0.071394  -0.000025
    10  H    0.004858  -0.000000
    11  C    0.011143   0.000004
    12  C   -0.004636  -0.000100
    13  C    0.024478  -0.001406
    14  H    0.004230  -0.000010
    15  H   -0.000185   0.013059
    16  H    0.000012  -0.000179
    17  H   -0.000288   0.000000
    18  H    0.000009   0.000001
    19  C    0.000860   0.439007
    20  C    0.004376  -0.044535
    21  C    0.000173  -0.035770
    22  C    0.000173   0.546692
    23  C    0.000010  -0.078896
    24  H   -0.000003  -0.001162
    25  H    0.000003  -0.033283
    26  H   -0.000015   0.004943
    27  H   -0.000000   0.006898
    28  H   -0.000287   0.000002
    29  N   -0.000848  -0.121476
    30  H   -0.000162  -0.000306
    31  S   15.479481  -0.001280
    32  N   -0.001280   6.618473
 Mulliken charges:
               1
     1  C   -0.187263
     2  C   -0.165817
     3  C   -0.048228
     4  C    0.230124
     5  C   -0.317529
     6  C   -0.116117
     7  C    0.166879
     8  C   -0.037515
     9  C   -0.168881
    10  H    0.166872
    11  C   -0.178915
    12  C   -0.111829
    13  C   -0.300937
    14  H    0.165762
    15  H    0.159892
    16  H    0.167551
    17  H    0.169624
    18  H    0.169590
    19  C    0.293024
    20  C   -0.275039
    21  C   -0.128452
    22  C   -0.097102
    23  C   -0.203855
    24  H    0.175648
    25  H    0.162198
    26  H    0.193217
    27  H    0.167394
    28  H    0.168128
    29  N   -0.034970
    30  H    0.178681
    31  S   -0.030961
    32  N   -0.331172
 Sum of Mulliken charges =  -0.00000
 Mulliken charges with hydrogens summed into heavy atoms:
               1
     1  C   -0.019136
     2  C   -0.000055
     3  C   -0.048228
     4  C    0.230124
     5  C   -0.157638
     6  C    0.051434
     7  C    0.166879
     8  C   -0.037515
     9  C   -0.002009
    11  C   -0.009292
    12  C    0.057760
    13  C   -0.122255
    19  C    0.293024
    20  C   -0.081822
    21  C    0.047196
    22  C    0.065095
    23  C   -0.036461
    29  N   -0.034970
    31  S   -0.030961
    32  N   -0.331172
 Electronic spatial extent (au):  <R**2>=           5172.4283
 Charge=              0.0000 electrons
 Dipole moment (field-independent basis, Debye):
    X=             -0.3907    Y=             -2.6234    Z=              1.3725  Tot=              2.9864
 Quadrupole moment (field-independent basis, Debye-Ang):
   XX=           -109.5077   YY=           -103.3907   ZZ=           -122.9602
   XY=              3.0581   XZ=             -1.2350   YZ=             -0.0461
 Traceless Quadrupole moment (field-independent basis, Debye-Ang):
   XX=              2.4452   YY=              8.5621   ZZ=            -11.0073
   XY=              3.0581   XZ=             -1.2350   YZ=             -0.0461
 Octapole moment (field-independent basis, Debye-Ang**2):
  XXX=            -53.1767  YYY=             -6.1574  ZZZ=             12.0587  XYY=             29.7831
  XXY=            -14.4024  XXZ=            -28.1268  XZZ=             -2.0605  YZZ=             -1.2893
  YYZ=             22.3640  XYZ=             -5.8738
 Hexadecapole moment (field-independent basis, Debye-Ang**3):
 XXXX=          -3060.6265 YYYY=          -2808.4934 ZZZZ=           -730.0973 XXXY=            -10.8556
 XXXZ=             43.9993 YYYX=             18.9645 YYYZ=             -1.4721 ZZZX=            -32.1097
 ZZZY=             -5.5661 XXYY=           -928.7988 XXZZ=           -716.2403 YYZZ=           -596.6315
 XXYZ=             11.5234 YYXZ=             -4.1249 ZZXY=             -4.8982
 N-N= 1.581055660242D+03 E-N=-5.886044774513D+03  KE= 1.158764625637D+03
 Leave Link  601 at Fri Feb 26 01:26:22 2021, MaxMem=  5242880000 cpu:         3.2
 (Enter /opt/nce/packages/global/g09/l9999.exe)
 1\1\GINC-CN013\SP\RCAM-B3LYP TD-FC\Gen\C17H12N2S1\PNG4RJV\26-Feb-2021\
 0\\#p cam-b3lyp chkbasis geom=allcheck Guess=Read int=ultrafine scrf=(
 SMD,solvent=n,n-DiMethylAcetamide) td=(NStates=30) EmpiricalDispersion
 =GD3BJ\\Title\\0,1\C,0,-1.9250727075,3.5271646129,-0.3638451258\C,0,-2
 .2422159643,2.4826264147,0.4844990904\C,0,-1.4755547822,1.3257499133,0
 .4677418618\C,0,-0.3984918965,1.2087008816,-0.4036281086\C,0,-0.115966
 1613,2.2422428826,-1.2836209164\C,0,-0.8680743415,3.4022000296,-1.2539
 163682\C,0,-0.4037937601,-1.1946605491,-0.4349820184\C,0,-1.4758695662
 ,-1.343362573,0.4378536756\C,0,-2.2328885978,-2.5058997217,0.423428811
 7\H,0,-3.0731685367,-2.6094057592,1.0975264913\C,0,-1.9119839525,-3.52
 3094515,-0.4572028365\C,0,-0.8621260951,-3.3649353386,-1.3497830241\C,
 0,-0.1208464417,-2.1972264687,-1.3499101232\H,0,-3.0865489065,2.558759
 6949,1.1572236991\H,0,0.7046973937,2.1354719001,-1.9776448147\H,0,-0.6
 32341022,4.210282435,-1.9336180355\H,0,-2.4975317458,-4.432826316,-0.4
 610223728\H,0,-0.6256632479,-4.1499545681,-2.0555557413\C,0,1.69645648
 63,-0.0017988243,-0.004076096\C,0,2.364540842,-1.1952492999,0.30647732
 53\C,0,3.6853913263,-1.1279158871,0.6816114991\C,0,3.5820798964,1.2191
 650185,0.4396437227\C,0,4.3264069643,0.102848579,0.7485164292\H,0,4.21
 59560208,-2.0384290053,0.9294569887\H,0,4.0257548596,2.2077904537,0.48
 70031775\H,0,1.8583420547,-2.1459251447,0.2682233086\H,0,5.3638839231,
 0.1904115375,1.0376081758\H,0,-2.517508305,4.4323197301,-0.3449665034\
 N,0,0.3573401395,0.0037583794,-0.3891527387\H,0,0.694317051,-2.0613994
 514,-2.0479373528\S,0,-1.8620447956,-0.0221499868,1.5430315569\N,0,2.3
 030858685,1.1751289462,0.0729553627\\Version=ES64L-G09RevE.01\State=1-
 A\HF=-1162.6680642\RMSD=4.414e-09\PG=C01 [X(C17H12N2S1)]\\@


 PENOTUS DIED A HUNDRED YEARS OLD WANTING BUT TWO...
 AND HE USED TO SAY BEFORE HE DIED, HAVING SPENT HIS
 WHOLE LIFE IN VAINLY SEARCHING AFTER THE PHILOSOPHER'S
 STONE, THAT IF HE HAD A MORTAL ENEMY HE DID NOT DARE
 TO ENCOUNTER OPENLY, HE WOULD ADVISE HIM ABOVE ALL
 THINGS TO GIVE HIMSELF UP TO THE STUDY AND PRACTICE
 OF ALCHEMY.  --  NICOLAS LEMERY, M.D.
 "A COURSE OF CHYMISTRY", WALTER KETTILBY, LONDON, 1686
 Job cpu time:       0 days 19 hours 41 minutes 40.5 seconds.
 File lengths (MBytes):  RWF=   2416 Int=      0 D2E=      0 Chk=    437 Scr=      1
 Normal termination of Gaussian 09 at Fri Feb 26 01:26:22 2021.
