
                                 *****************
                                 * O   R   C   A *
                                 *****************

                                            #,                                       
                                            ###                                      
                                            ####                                     
                                            #####                                    
                                            ######                                   
                                           ########,                                 
                                     ,,################,,,,,                         
                               ,,#################################,,                 
                          ,,##########################################,,             
                       ,#########################################, ''#####,          
                    ,#############################################,,   '####,        
                  ,##################################################,,,,####,       
                ,###########''''           ''''###############################       
              ,#####''   ,,,,##########,,,,          '''####'''          '####       
            ,##' ,,,,###########################,,,                        '##       
           ' ,,###''''                  '''############,,,                           
         ,,##''                                '''############,,,,        ,,,,,,###''
      ,#''                                            '''#######################'''  
     '                                                          ''''####''''         
             ,#######,   #######,   ,#######,      ##                                
            ,#'     '#,  ##    ##  ,#'     '#,    #''#        ######   ,####,        
            ##       ##  ##   ,#'  ##            #'  '#       #        #'  '#        
            ##       ##  #######   ##           ,######,      #####,   #    #        
            '#,     ,#'  ##    ##  '#,     ,#' ,#      #,         ##   #,  ,#        
             '#######'   ##     ##  '#######'  #'      '#     #####' # '####'        



                  #######################################################
                  #                        -***-                        #
                  #          Department of theory and spectroscopy      #
                  #    Directorship and core code : Frank Neese         #
                  #        Max Planck Institute fuer Kohlenforschung    #
                  #                Kaiser Wilhelm Platz 1               #
                  #                 D-45470 Muelheim/Ruhr               #
                  #                      Germany                        #
                  #                                                     #
                  #                  All rights reserved                #
                  #                        -***-                        #
                  #######################################################


                         Program Version 5.0.2 -  RELEASE  -


 With contributions from (in alphabetic order):
   Daniel Aravena         : Magnetic Suceptibility
   Michael Atanasov       : Ab Initio Ligand Field Theory (pilot matlab implementation)
   Alexander A. Auer      : GIAO ZORA, VPT2 properties, NMR spectrum
   Ute Becker             : Parallelization
   Giovanni Bistoni       : ED, misc. LED, open-shell LED, HFLD
   Martin Brehm           : Molecular dynamics
   Dmytro Bykov           : SCF Hessian
   Vijay G. Chilkuri      : MRCI spin determinant printing, contributions to CSF-ICE
   Dipayan Datta          : RHF DLPNO-CCSD density
   Achintya Kumar Dutta   : EOM-CC, STEOM-CC
   Dmitry Ganyushin       : Spin-Orbit,Spin-Spin,Magnetic field MRCI
   Miquel Garcia          : C-PCM and meta-GGA Hessian, CC/C-PCM, Gaussian charge scheme
   Yang Guo               : DLPNO-NEVPT2, F12-NEVPT2, CIM, IAO-localization
   Andreas Hansen         : Spin unrestricted coupled pair/coupled cluster methods
   Benjamin Helmich-Paris : MC-RPA, TRAH-SCF, COSX integrals
   Lee Huntington         : MR-EOM, pCC
   Robert Izsak           : Overlap fitted RIJCOSX, COSX-SCS-MP3, EOM
   Marcus Kettner         : VPT2
   Christian Kollmar      : KDIIS, OOCD, Brueckner-CCSD(T), CCSD density, CASPT2, CASPT2-K
   Simone Kossmann        : Meta GGA functionals, TD-DFT gradient, OOMP2, MP2 Hessian
   Martin Krupicka        : Initial AUTO-CI
   Lucas Lang             : DCDCAS
   Marvin Lechner         : AUTO-CI (C++ implementation), FIC-MRCC
   Dagmar Lenk            : GEPOL surface, SMD
   Dimitrios Liakos       : Extrapolation schemes; Compound Job, initial MDCI parallelization
   Dimitrios Manganas     : Further ROCIS development; embedding schemes
   Dimitrios Pantazis     : SARC Basis sets
   Anastasios Papadopoulos: AUTO-CI, single reference methods and gradients
   Taras Petrenko         : DFT Hessian,TD-DFT gradient, ASA, ECA, R-Raman, ABS, FL, XAS/XES, NRVS
   Peter Pinski           : DLPNO-MP2, DLPNO-MP2 Gradient
   Christoph Reimann      : Effective Core Potentials
   Marius Retegan         : Local ZFS, SOC
   Christoph Riplinger    : Optimizer, TS searches, QM/MM, DLPNO-CCSD(T), (RO)-DLPNO pert. Triples
   Tobias Risthaus        : Range-separated hybrids, TD-DFT gradient, RPA, STAB
   Michael Roemelt        : Original ROCIS implementation
   Masaaki Saitow         : Open-shell DLPNO-CCSD energy and density
   Barbara Sandhoefer     : DKH picture change effects
   Avijit Sen             : IP-ROCIS
   Kantharuban Sivalingam : CASSCF convergence, NEVPT2, FIC-MRCI
   Bernardo de Souza      : ESD, SOC TD-DFT
   Georgi Stoychev        : AutoAux, RI-MP2 NMR, DLPNO-MP2 response
   Willem Van den Heuvel  : Paramagnetic NMR
   Boris Wezisla          : Elementary symmetry handling
   Frank Wennmohs         : Technical directorship


 We gratefully acknowledge several colleagues who have allowed us to
 interface, adapt or use parts of their codes:
   Stefan Grimme, W. Hujo, H. Kruse, P. Pracht,  : VdW corrections, initial TS optimization,
                  C. Bannwarth, S. Ehlert          DFT functionals, gCP, sTDA/sTD-DF
   Ed Valeev, F. Pavosevic, A. Kumar             : LibInt (2-el integral package), F12 methods
   Garnet Chan, S. Sharma, J. Yang, R. Olivares  : DMRG
   Ulf Ekstrom                                   : XCFun DFT Library
   Mihaly Kallay                                 : mrcc  (arbitrary order and MRCC methods)
   Jiri Pittner, Ondrej Demel                    : Mk-CCSD
   Frank Weinhold                                : gennbo (NPA and NBO analysis)
   Christopher J. Cramer and Donald G. Truhlar   : smd solvation model
   Lars Goerigk                                  : TD-DFT with DH, B97 family of functionals
   V. Asgeirsson, H. Jonsson                     : NEB implementation
   FAccTs GmbH                                   : IRC, NEB, NEB-TS, DLPNO-Multilevel, CI-OPT
                                                   MM, QMMM, 2- and 3-layer-ONIOM, Crystal-QMMM,
                                                   LR-CPCM, SF, NACMEs, symmetry and pop. for TD-DFT,
                                                   nearIR, NL-DFT gradient (VV10), updates on ESD,
                                                   ML-optimized integration grids
   S Lehtola, MJT Oliveira, MAL Marques          : LibXC Library
   Liviu Ungur et al                             : ANISO software


 Your calculation uses the libint2 library for the computation of 2-el integrals
 For citations please refer to: http://libint.valeyev.net

 Your ORCA version has been built with support for libXC version: 5.1.0
 For citations please refer to: https://tddft.org/programs/libxc/

 This ORCA versions uses:
   CBLAS   interface :  Fast vector & matrix operations
   LAPACKE interface :  Fast linear algebra routines
   SCALAPACK package :  Parallel linear algebra routines
   Shared memory     :  Shared parallel matrices
   BLAS/LAPACK       :  OpenBLAS 0.3.15  USE64BITINT DYNAMIC_ARCH NO_AFFINITY Prescott SINGLE_THREADED
        Core in use  :  Prescott
   Copyright (c) 2011-2014, The OpenBLAS Project


Your calculation utilizes the SMD solvation module
Please cite in your paper:
A.V. Marenich, C.J. Cramer, D.G. Truhlar J. Phys. Chem. B, 113, (2009), 6378 

================================================================================

----- Orbital basis set information -----
Your calculation utilizes the basis: def2-TZVP
   F. Weigend and R. Ahlrichs, Phys. Chem. Chem. Phys. 7, 3297 (2005).

----- AuxJ basis set information -----
Your calculation utilizes the auxiliary basis: def2/J
   F. Weigend, Phys. Chem. Chem. Phys. 8, 1057 (2006).

----- AuxC basis set information -----
Your calculation utilizes the auxiliary basis: def2-TZVP/C
  H-La, Hf-Rn : A. Hellweg, C. Hattig, S. Hofener and W. Klopper, Theor. Chem. Acc. 117, 587 (2007).
        Ce-Lu : J. Chmela and M. E. Harding, Mol. Phys. (2018).

================================================================================
                                        WARNINGS
                       Please study these warnings very carefully!
================================================================================

INFO   : Checking CIS options ...
  ===> : (D) CORRECTION FOUND - SETTING MODE=3
  ===> : JK MODE FOUND - ACTIVATING RI-MP2 CODE
  ===> : MP2 AND CIS FOUND - CHECKING
WARNING: CIS(D) and MP2 runs must have the same orbital window
  ===> : adjusting orbital windows

WARNING: No MP2 level density has been requested!
         To caclulate MP2 level properties use
         %mp2 Density relaxed end
         or
         %mp2 Density unrelaxed end
         Otherwise for double-hybrid DFT only the energy is correct!

WARNING: The frozen-core approximation is turned on by default for 
         the MP2 part of double-hybrid DFT.

WARNING: CIS/ROCIS methods need fully converged wavefunctions
  ===> : Setting SCFConvForced true
         You can overwrite this default with %scf ConvForced false 


INFO   : the flag for use of the SHARK integral package has been found!

================================================================================
                                       INPUT FILE
================================================================================
NAME = PTZ_2_M06L_def2TZVP_coords.inp
|  1> %maxcore 20000
|  2> %pal
|  3>  nprocs= 4
|  4> end
|  5> ! RI-B2GP-PLYP   def2-TZVP def2/J def2-TZVP/C RIJCOSX CPCM TightSCF
|  6> %TDDFT  
|  7>    NROOTS   30
|  8>    dcorr 4
|  9>    TDA      FALSE
| 10> END
| 11> 
| 12> %CPCM
| 13>    SMD          TRUE
| 14>    SMDsolvent   "N,N-DIMETHYLACETAMIDE"
| 15> END
| 16>    
| 17> 
| 18> * xyz 0 1
| 19> C                   1.78498200    3.61579300    0.39144600
| 20> C                   2.20379200    2.58769900   -0.43540600
| 21> C                   1.49430000    1.39147600   -0.46602100
| 22> C                   0.36462500    1.22004400    0.33615900
| 23> C                  -0.01286700    2.23891100    1.20492000
| 24> C                   0.68545000    3.43460500    1.22025500
| 25> C                   0.47514600   -1.18095600    0.35687300
| 26> C                   1.61588100   -1.27453500   -0.44220300
| 27> C                   2.42213300   -2.40628000   -0.38184000
| 28> H                   3.30685200   -2.46562000   -1.00308000
| 29> C                   2.08895600   -3.44627900    0.46949100
| 30> C                   0.97556700   -3.34084000    1.29286400
| 31> C                   0.18271400   -2.20659000    1.24985200
| 32> H                   3.08047900    2.70476600   -1.05984800
| 33> H                  -0.86497500    2.09113700    1.85230400
| 34> H                   0.37188900    4.22641400    1.88825000
| 35> H                   2.71247900   -4.33016600    0.50451700
| 36> H                   0.72800800   -4.14022300    1.97905800
| 37> C                  -1.69837000   -0.08293300   -0.00669100
| 38> C                  -2.33090100   -1.30352800   -0.29588900
| 39> C                  -3.67921100   -1.29392100   -0.57597000
| 40> C                  -3.66556300    1.05431100   -0.30206400
| 41> C                  -4.38179300   -0.09428900   -0.57245700
| 42> H                  -4.18073800   -2.22571500   -0.80700600
| 43> H                  -4.15711300    2.02321600   -0.30678800
| 44> H                  -1.77748200   -2.22993500   -0.32312100
| 45> H                  -5.44118200   -0.05318700   -0.78305900
| 46> H                   2.33172600    4.54980800    0.40452600
| 47> N                  -0.33140600   -0.01730600    0.26705500
| 48> H                  -0.68181400   -2.11432500    1.89480800
| 49> S                   2.01748800    0.06866300   -1.51189200
| 50> N                  -2.36244900    1.07289200   -0.02565600
| 51> *
| 52> 
| 53> 
| 54>                          ****END OF INPUT****
================================================================================

                       ****************************
                       * Single Point Calculation *
                       ****************************

---------------------------------
CARTESIAN COORDINATES (ANGSTROEM)
---------------------------------
  C      1.784982    3.615793    0.391446
  C      2.203792    2.587699   -0.435406
  C      1.494300    1.391476   -0.466021
  C      0.364625    1.220044    0.336159
  C     -0.012867    2.238911    1.204920
  C      0.685450    3.434605    1.220255
  C      0.475146   -1.180956    0.356873
  C      1.615881   -1.274535   -0.442203
  C      2.422133   -2.406280   -0.381840
  H      3.306852   -2.465620   -1.003080
  C      2.088956   -3.446279    0.469491
  C      0.975567   -3.340840    1.292864
  C      0.182714   -2.206590    1.249852
  H      3.080479    2.704766   -1.059848
  H     -0.864975    2.091137    1.852304
  H      0.371889    4.226414    1.888250
  H      2.712479   -4.330166    0.504517
  H      0.728008   -4.140223    1.979058
  C     -1.698370   -0.082933   -0.006691
  C     -2.330901   -1.303528   -0.295889
  C     -3.679211   -1.293921   -0.575970
  C     -3.665563    1.054311   -0.302064
  C     -4.381793   -0.094289   -0.572457
  H     -4.180738   -2.225715   -0.807006
  H     -4.157113    2.023216   -0.306788
  H     -1.777482   -2.229935   -0.323121
  H     -5.441182   -0.053187   -0.783059
  H      2.331726    4.549808    0.404526
  N     -0.331406   -0.017306    0.267055
  H     -0.681814   -2.114325    1.894808
  S      2.017488    0.068663   -1.511892
  N     -2.362449    1.072892   -0.025656

----------------------------
CARTESIAN COORDINATES (A.U.)
----------------------------
  NO LB      ZA    FRAG     MASS         X           Y           Z
   0 C     6.0000    0    12.011    3.373127    6.832859    0.739726
   1 C     6.0000    0    12.011    4.164563    4.890042   -0.822798
   2 C     6.0000    0    12.011    2.823818    2.629509   -0.880652
   3 C     6.0000    0    12.011    0.689041    2.305549    0.635248
   4 C     6.0000    0    12.011   -0.024315    4.230929    2.276969
   5 C     6.0000    0    12.011    1.295313    6.490463    2.305948
   6 C     6.0000    0    12.011    0.897896   -2.231683    0.674392
   7 C     6.0000    0    12.011    3.053573   -2.408522   -0.835643
   8 C     6.0000    0    12.011    4.577168   -4.547210   -0.721573
   9 H     1.0000    0     1.008    6.249045   -4.659347   -1.895546
  10 C     6.0000    0    12.011    3.947555   -6.512523    0.887209
  11 C     6.0000    0    12.011    1.843554   -6.313273    2.443159
  12 C     6.0000    0    12.011    0.345279   -4.169851    2.361878
  13 H     1.0000    0     1.008    5.821262    5.111267   -2.002822
  14 H     1.0000    0     1.008   -1.634566    3.951676    3.500347
  15 H     1.0000    0     1.008    0.702768    7.986765    3.568275
  16 H     1.0000    0     1.008    5.125842   -8.182828    0.953399
  17 H     1.0000    0     1.008    1.375736   -7.823888    3.739878
  18 C     6.0000    0    12.011   -3.209454   -0.156721   -0.012644
  19 C     6.0000    0    12.011   -4.404765   -2.463311   -0.559149
  20 C     6.0000    0    12.011   -6.952701   -2.445156   -1.088426
  21 C     6.0000    0    12.011   -6.926910    1.992359   -0.570818
  22 C     6.0000    0    12.011   -8.280389   -0.178180   -1.081787
  23 H     1.0000    0     1.008   -7.900450   -4.205992   -1.525020
  24 H     1.0000    0     1.008   -7.855805    3.823324   -0.579745
  25 H     1.0000    0     1.008   -3.358954   -4.213966   -0.610610
  26 H     1.0000    0     1.008  -10.282344   -0.100509   -1.479767
  27 H     1.0000    0     1.008    4.406324    8.597891    0.764443
  28 N     7.0000    0    14.007   -0.626267   -0.032704    0.504661
  29 H     1.0000    0     1.008   -1.288442   -3.995495    3.580668
  30 S    16.0000    0    32.060    3.812500    0.129754   -2.857062
  31 N     7.0000    0    14.007   -4.464382    2.027472   -0.048483

--------------------------------
INTERNAL COORDINATES (ANGSTROEM)
--------------------------------
 C      0   0   0     0.000000000000     0.00000000     0.00000000
 C      1   0   0     1.384219389707     0.00000000     0.00000000
 C      2   1   0     1.391138254099   119.83457569     0.00000000
 C      3   2   1     1.396082837316   120.37322119   359.77281949
 C      4   3   2     1.391163487472   119.23949934   357.49233319
 C      5   4   3     1.384762050444   120.16330955     3.33423614
 C      4   3   2     2.403631619287    95.18695033   203.22411379
 C      7   4   3     1.395906810372    95.71654589     0.00000000
 C      8   7   4     1.390874805401   120.22607952   156.70897534
 H      9   8   7     1.082676351529   119.56296101   180.27616487
 C      9   8   7     1.384691050340   119.89054606     0.28377548
 C     11   9   8     1.388774836023   120.02580862   357.92999426
 C     12  11   9     1.384553709414   120.18998652     1.07708456
 H      2   1   3     1.082687669562   120.61073697   180.03815065
 H      5   4   3     1.080292202229   119.21474593   182.29395129
 H      6   5   4     1.082358218533   119.49961951   178.94142551
 H     11   9   8     1.082249500334   119.64859184   179.26033476
 H     12  11   9     1.082201850306   120.21459265   181.69466367
 C      7   4   3     2.462113947989    60.83390516   224.63996710
 C     19   7   4     1.404842732547    92.31501455   172.53626305
 C     20  19   7     1.377126543608   118.46587107   178.83487536
 C     19   7   4     2.291378935033   176.62177189   345.69826435
 C     22  19  20     1.380354935279    93.30944959     1.14821128
 H     21  20  19     1.083119117854   119.38865889   179.62430252
 H     22  19  20     1.086471636860   146.26208607   181.35874911
 H     20  19   7     1.079464728944   121.33313020   357.42423753
 H     23  22  19     1.080901304527   121.00227530   179.51798463
 H      1   2   3     1.082351194466   119.69060991   180.73843387
 N     19   7   4     1.395648362927    29.23388727   356.19869564
 H     13  12  11     1.082538560489   120.57275230   180.51452352
 S      8   7   4     1.763435172150   118.83491425   337.21818621
 N     22  19  29     1.332235989989    30.73106549   358.43814405

---------------------------
INTERNAL COORDINATES (A.U.)
---------------------------
 C      0   0   0     0.000000000000     0.00000000     0.00000000
 C      1   0   0     2.615795555809     0.00000000     0.00000000
 C      2   1   0     2.628870314669   119.83457569     0.00000000
 C      3   2   1     2.638214222795   120.37322119   359.77281949
 C      4   3   2     2.628917998832   119.23949934   357.49233319
 C      5   4   3     2.616821035986   120.16330955     3.33423614
 C      4   3   2     4.542205487286    95.18695033   203.22411379
 C      7   4   3     2.637881580078    95.71654589     0.00000000
 C      8   7   4     2.628372468778   120.22607952   156.70897534
 H      9   8   7     2.045961796064   119.56296101   180.27616487
 C      9   8   7     2.616686865234   119.89054606     0.28377548
 C     11   9   8     2.624404101765   120.02580862   357.92999426
 C     12  11   9     2.616427328498   120.18998652     1.07708456
 H      2   1   3     2.045983184046   120.61073697   180.03815065
 H      5   4   3     2.041456406823   119.21474593   182.29395129
 H      6   5   4     2.045360611827   119.49961951   178.94142551
 H     11   9   8     2.045155164205   119.64859184   179.26033476
 H     12  11   9     2.045065118701   120.21459265   181.69466367
 C      7   4   3     4.652721072206    60.83390516   224.63996710
 C     19   7   4     2.654768025743    92.31501455   172.53626305
 C     20  19   7     2.602392019173   118.46587107   178.83487536
 C     19   7   4     4.330078656249   176.62177189   345.69826435
 C     22  19  20     2.608492795284    93.30944959     1.14821128
 H     21  20  19     2.046798503159   119.38865889   179.62430252
 H     22  19  20     2.053133845938   146.26208607   181.35874911
 H     20  19   7     2.039892708932   121.33313020   357.42423753
 H     23  22  19     2.042607443355   121.00227530   179.51798463
 H      1   2   3     2.045347338262   119.69060991   180.73843387
 N     19   7   4     2.637393185188    29.23388727   356.19869564
 H     13  12  11     2.045701408733   120.57275230   180.51452352
 S      8   7   4     3.332409530287   118.83491425   337.21818621
 N     22  19  29     2.517561166832    30.73106549   358.43814405

---------------------
BASIS SET INFORMATION
---------------------
There are 4 groups of distinct atoms

 Group   1 Type C   : 11s6p2d1f contracted to 5s3p2d1f pattern {62111/411/11/1}
 Group   2 Type H   : 5s1p contracted to 3s1p pattern {311/1}
 Group   3 Type N   : 11s6p2d1f contracted to 5s3p2d1f pattern {62111/411/11/1}
 Group   4 Type S   : 14s9p3d1f contracted to 5s5p2d1f pattern {73211/51111/21/1}

Atom   0C    basis set group =>   1
Atom   1C    basis set group =>   1
Atom   2C    basis set group =>   1
Atom   3C    basis set group =>   1
Atom   4C    basis set group =>   1
Atom   5C    basis set group =>   1
Atom   6C    basis set group =>   1
Atom   7C    basis set group =>   1
Atom   8C    basis set group =>   1
Atom   9H    basis set group =>   2
Atom  10C    basis set group =>   1
Atom  11C    basis set group =>   1
Atom  12C    basis set group =>   1
Atom  13H    basis set group =>   2
Atom  14H    basis set group =>   2
Atom  15H    basis set group =>   2
Atom  16H    basis set group =>   2
Atom  17H    basis set group =>   2
Atom  18C    basis set group =>   1
Atom  19C    basis set group =>   1
Atom  20C    basis set group =>   1
Atom  21C    basis set group =>   1
Atom  22C    basis set group =>   1
Atom  23H    basis set group =>   2
Atom  24H    basis set group =>   2
Atom  25H    basis set group =>   2
Atom  26H    basis set group =>   2
Atom  27H    basis set group =>   2
Atom  28N    basis set group =>   3
Atom  29H    basis set group =>   2
Atom  30S    basis set group =>   4
Atom  31N    basis set group =>   3
---------------------------------
AUXILIARY/J BASIS SET INFORMATION
---------------------------------
There are 4 groups of distinct atoms

 Group   1 Type C   : 12s5p4d2f1g contracted to 6s4p3d1f1g pattern {711111/2111/211/2/1}
 Group   2 Type H   : 5s2p1d contracted to 3s1p1d pattern {311/2/1}
 Group   3 Type N   : 12s5p4d2f1g contracted to 6s4p3d1f1g pattern {711111/2111/211/2/1}
 Group   4 Type S   : 14s5p5d2f1g contracted to 8s4p3d1f1g pattern {71111111/2111/311/2/1}

Atom   0C    basis set group =>   1
Atom   1C    basis set group =>   1
Atom   2C    basis set group =>   1
Atom   3C    basis set group =>   1
Atom   4C    basis set group =>   1
Atom   5C    basis set group =>   1
Atom   6C    basis set group =>   1
Atom   7C    basis set group =>   1
Atom   8C    basis set group =>   1
Atom   9H    basis set group =>   2
Atom  10C    basis set group =>   1
Atom  11C    basis set group =>   1
Atom  12C    basis set group =>   1
Atom  13H    basis set group =>   2
Atom  14H    basis set group =>   2
Atom  15H    basis set group =>   2
Atom  16H    basis set group =>   2
Atom  17H    basis set group =>   2
Atom  18C    basis set group =>   1
Atom  19C    basis set group =>   1
Atom  20C    basis set group =>   1
Atom  21C    basis set group =>   1
Atom  22C    basis set group =>   1
Atom  23H    basis set group =>   2
Atom  24H    basis set group =>   2
Atom  25H    basis set group =>   2
Atom  26H    basis set group =>   2
Atom  27H    basis set group =>   2
Atom  28N    basis set group =>   3
Atom  29H    basis set group =>   2
Atom  30S    basis set group =>   4
Atom  31N    basis set group =>   3
---------------------------------
AUXILIARY/C BASIS SET INFORMATION
---------------------------------
There are 4 groups of distinct atoms

 Group   1 Type C   : 8s6p5d3f1g contracted to 8s6p4d3f1g pattern {11111111/111111/2111/111/1}
 Group   2 Type H   : 4s3p2d contracted to 4s2p1d pattern {1111/21/2}
 Group   3 Type N   : 8s6p5d3f1g contracted to 8s6p4d3f1g pattern {11111111/111111/2111/111/1}
 Group   4 Type S   : 10s7p7d5f2g contracted to 9s7p6d5f2g pattern {211111111/1111111/211111/11111/11}

Atom   0C    basis set group =>   1
Atom   1C    basis set group =>   1
Atom   2C    basis set group =>   1
Atom   3C    basis set group =>   1
Atom   4C    basis set group =>   1
Atom   5C    basis set group =>   1
Atom   6C    basis set group =>   1
Atom   7C    basis set group =>   1
Atom   8C    basis set group =>   1
Atom   9H    basis set group =>   2
Atom  10C    basis set group =>   1
Atom  11C    basis set group =>   1
Atom  12C    basis set group =>   1
Atom  13H    basis set group =>   2
Atom  14H    basis set group =>   2
Atom  15H    basis set group =>   2
Atom  16H    basis set group =>   2
Atom  17H    basis set group =>   2
Atom  18C    basis set group =>   1
Atom  19C    basis set group =>   1
Atom  20C    basis set group =>   1
Atom  21C    basis set group =>   1
Atom  22C    basis set group =>   1
Atom  23H    basis set group =>   2
Atom  24H    basis set group =>   2
Atom  25H    basis set group =>   2
Atom  26H    basis set group =>   2
Atom  27H    basis set group =>   2
Atom  28N    basis set group =>   3
Atom  29H    basis set group =>   2
Atom  30S    basis set group =>   4
Atom  31N    basis set group =>   3


           ************************************************************
           *        Program running with 4 parallel MPI-processes     *
           *              working on a common directory               *
           ************************************************************
------------------------------------------------------------------------------
                           ORCA GTO INTEGRAL CALCULATION
                           -- RI-GTO INTEGRALS CHOSEN --
------------------------------------------------------------------------------
------------------------------------------------------------------------------
                   ___                                                        
                  /   \      - P O W E R E D   B Y -                         
                 /     \                                                     
                 |  |  |   _    _      __       _____    __    __             
                 |  |  |  | |  | |    /  \     |  _  \  |  |  /  |          
                  \  \/   | |  | |   /    \    | | | |  |  | /  /          
                 / \  \   | |__| |  /  /\  \   | |_| |  |  |/  /          
                |  |  |   |  __  | /  /__\  \  |    /   |      \           
                |  |  |   | |  | | |   __   |  |    \   |  |\   \          
                \     /   | |  | | |  |  |  |  | |\  \  |  | \   \       
                 \___/    |_|  |_| |__|  |__|  |_| \__\ |__|  \__/        
                                                                              
                      - O R C A' S   B I G   F R I E N D -                    
                                      &                                       
                       - I N T E G R A L  F E E D E R -                       
                                                                              
 v1 FN, 2020, v2 2021                                                         
------------------------------------------------------------------------------


Reading SHARK input file PTZ_2_M06L_def2TZVP_coords.SHARKINP.tmp ... ok
----------------------
SHARK INTEGRAL PACKAGE
----------------------

Number of atoms                             ...     32
Number of basis functions                   ...    698
Number of shells                            ...    270
Maximum angular momentum                    ...      3
Integral batch strategy                     ... SHARK/LIBINT Hybrid
RI-J (if used) integral strategy            ... SPLIT-RIJ (Revised 2003 algorithm where possible)
Printlevel                                  ...      1
Contraction scheme used                     ... SEGMENTED contraction
Coulomb Range Separation                    ... NOT USED
Exchange Range Separation                   ... NOT USED
Finite Nucleus Model                        ... NOT USED
Auxiliary Coulomb fitting basis             ... AVAILABLE
   # of basis functions in Aux-J            ...   1114
   # of shells in Aux-J                     ...    362
   Maximum angular momentum in Aux-J        ...      4
Auxiliary J/K fitting basis                 ... NOT available
Auxiliary Correlation fitting basis         ... AVAILABLE
   # of basis functions in Aux-C            ...   1737
   # of shells in Aux-C                     ...    531
   Maximum angular momentum in Aux-C        ...      4
Auxiliary 'external' fitting basis          ... NOT available
Integral threshold                          ...     2.500000e-11
Primitive cut-off                           ...     2.500000e-12
Primitive pair pre-selection threshold      ...     2.500000e-12

Calculating pre-screening integrals         ... done (  0.1 sec) Dimension = 270
Organizing shell pair data                  ... done (  0.4 sec)
Shell pair information
Total number of shell pairs                 ...     36585
Shell pairs after pre-screening             ...     28046
Total number of primitive shell pairs       ...    115450
Primitive shell pairs kept                  ...     59357
          la=0 lb=0:   6716 shell pairs
          la=1 lb=0:   7925 shell pairs
          la=1 lb=1:   2338 shell pairs
          la=2 lb=0:   4116 shell pairs
          la=2 lb=1:   2443 shell pairs
          la=2 lb=2:    670 shell pairs
          la=3 lb=0:   1906 shell pairs
          la=3 lb=1:   1159 shell pairs
          la=3 lb=2:    616 shell pairs
          la=3 lb=3:    157 shell pairs

Calculating one electron integrals          ... done (  0.1 sec)
Calculating RI/J V-Matrix + Cholesky decomp.... done (  0.1 sec)
Calculating RI/C V-Matrix + Cholesky decomp.... done (  0.2 sec)
Calculating Nuclear repulsion               ... done (  0.0 sec) ENN=   1576.305104266499 Eh

SHARK setup successfully completed in   1.1 seconds

Maximum memory used throughout the entire GTOINT-calculation: 54.4 MB


           ************************************************************
           *        Program running with 4 parallel MPI-processes     *
           *              working on a common directory               *
           ************************************************************
-------------------------------------------------------------------------------
                                 ORCA SCF
-------------------------------------------------------------------------------

------------
SCF SETTINGS
------------
Hamiltonian:
 Density Functional     Method          .... DFT(GTOs)
 Exchange Functional    Exchange        .... B88
   X-Alpha parameter    XAlpha          ....  0.666667
   Becke's b parameter  XBeta           ....  0.004200
 Correlation Functional Correlation     .... LYP
 LDA part of GGA corr.  LDAOpt          .... VWN-3
 Gradients option       PostSCFGGA      .... off
 Hybrid DFT is turned on
   Fraction HF Exchange ScalHFX         ....  0.650000
   Scaling of DF-GGA-X  ScalDFX         ....  0.350000
   Scaling of DF-GGA-C  ScalDFC         ....  0.640000
   Scaling of DF-LDA-C  ScalLDAC        ....  0.640000
   Perturbative correction              ....  0.360000
   Density functional embedding theory  .... OFF
 RI-approximation to the Coulomb term is turned on
   Number of AuxJ basis functions       .... 1114
   RIJ-COSX (HFX calculated with COS-X)).... on


General Settings:
 Integral files         IntName         .... PTZ_2_M06L_def2TZVP_coords
 Hartree-Fock type      HFTyp           .... RHF
 Total Charge           Charge          ....    0
 Multiplicity           Mult            ....    1
 Number of Electrons    NEL             ....  144
 Basis Dimension        Dim             ....  698
 Nuclear Repulsion      ENuc            ....   1576.3051042665 Eh

Convergence Acceleration:
 DIIS                   CNVDIIS         .... on
   Start iteration      DIISMaxIt       ....    12
   Startup error        DIISStart       ....  0.200000
   # of expansion vecs  DIISMaxEq       ....     5
   Bias factor          DIISBfac        ....   1.050
   Max. coefficient     DIISMaxC        ....  10.000
 Trust-Rad. Augm. Hess. CNVTRAH         .... auto
   Auto Start mean grad. ratio tolernc. ....  1.125000
   Auto Start start iteration           ....    20
   Auto Start num. interpolation iter.  ....    10
   Max. Number of Micro iterations      ....    16
   Max. Number of Macro iterations      .... Maxiter - #DIIS iter
   Number of Davidson start vectors     ....     2
   Converg. threshold I  (grad. norm)   ....   1.000e-05
   Converg. threshold II (energy diff.) ....   1.000e-08
   Grad. Scal. Fac. for Micro threshold ....   0.100
   Minimum threshold for Micro iter.    ....   0.010
   NR start threshold (gradient norm)   ....   0.001
   Initial trust radius                 ....   0.400
   Minimum AH scaling param. (alpha)    ....   1.000
   Maximum AH scaling param. (alpha)    .... 1000.000
   Orbital update algorithm             .... Taylor
   White noise on init. David. guess    .... on
   Maximum white noise                  ....   0.010
   Quad. conv. algorithm                .... NR
 SOSCF                  CNVSOSCF        .... on
   Start iteration      SOSCFMaxIt      ....   150
   Startup grad/error   SOSCFStart      ....  0.003300
 Level Shifting         CNVShift        .... on
   Level shift para.    LevelShift      ....    0.2500
   Turn off err/grad.   ShiftErr        ....    0.0010
 Zerner damping         CNVZerner       .... off
 Static damping         CNVDamp         .... on
   Fraction old density DampFac         ....    0.7000
   Max. Damping (<1)    DampMax         ....    0.9800
   Min. Damping (>=0)   DampMin         ....    0.0000
   Turn off err/grad.   DampErr         ....    0.1000
 Fernandez-Rico         CNVRico         .... off

SCF Procedure:
 Maximum # iterations   MaxIter         ....   125
 SCF integral mode      SCFMode         .... Direct
   Integral package                     .... SHARK and LIBINT hybrid scheme
 Reset frequency        DirectResetFreq ....    20
 Integral Threshold     Thresh          ....  2.500e-11 Eh
 Primitive CutOff       TCut            ....  2.500e-12 Eh

Convergence Tolerance:
 Convergence Check Mode ConvCheckMode   .... Total+1el-Energy
 Convergence forced     ConvForced      .... 1
 Energy Change          TolE            ....  1.000e-08 Eh
 1-El. energy change                    ....  1.000e-05 Eh
 Orbital Gradient       TolG            ....  1.000e-05
 Orbital Rotation angle TolX            ....  1.000e-05
 DIIS Error             TolErr          ....  5.000e-07


Diagonalization of the overlap matrix:
Smallest eigenvalue                        ... 5.560e-06
Time for diagonalization                   ...    0.164 sec
Threshold for overlap eigenvalues          ... 1.000e-08
Number of eigenvalues below threshold      ... 0
Time for construction of square roots      ...    0.138 sec
Total time needed                          ...    0.304 sec

Time for model grid setup =    0.293 sec

------------------------------
INITIAL GUESS: MODEL POTENTIAL
------------------------------
Loading Hartree-Fock densities                     ... done
Calculating cut-offs                               ... done
Initializing the effective Hamiltonian             ... done
Setting up the integral package (SHARK)            ... done
Starting the Coulomb interaction                   ... done (   0.6 sec)
Reading the grid                                   ... done
Mapping shells                                     ... done
Starting the XC term evaluation                    ... done (   0.5 sec)
  promolecular density results
     # of electrons  =    144.012811942
     EX              =   -129.259016223
     EC              =     -0.594695954
     EX+EC           =   -129.853712177
Transforming the Hamiltonian                       ... done (   0.1 sec)
Diagonalizing the Hamiltonian                      ... done (   0.2 sec)
Back transforming the eigenvectors                 ... done (   0.1 sec)
Now organizing SCF variables                       ... done
                      ------------------
                      INITIAL GUESS DONE (   1.7 sec)
                      ------------------
-------------------
DFT GRID GENERATION
-------------------

General Integration Accuracy     IntAcc      ... 4.388
Radial Grid Type                 RadialGrid  ... OptM3 with GC (2021)
Angular Grid (max. ang.)         AngularGrid ... 4 (Lebedev-302)
Angular grid pruning method      GridPruning ... 4 (adaptive)
Weight generation scheme         WeightScheme... Becke
Basis function cutoff            BFCut       ... 1.0000e-11
Integration weight cutoff        WCut        ... 1.0000e-14
Angular grids for H and He will be reduced by one unit
Partially contracted basis set               ... off
Rotationally invariant grid construction     ... off

Total number of grid points                  ...   159085
Total number of batches                      ...     2501
Average number of points per batch           ...       63
Average number of grid points per atom       ...     4971
Time for grid setup =    1.534 sec

--------------------
COSX GRID GENERATION
--------------------

GRIDX 1
-------
General Integration Accuracy     IntAcc      ... 3.816
Radial Grid Type                 RadialGrid  ... OptM3 with GC (2021)
Angular Grid (max. ang.)         AngularGrid ... 1 (Lebedev-50)
Angular grid pruning method      GridPruning ... 4 (adaptive)
Weight generation scheme         WeightScheme... Becke
Basis function cutoff            BFCut       ... 1.0000e-11
Integration weight cutoff        WCut        ... 1.0000e-14
Angular grids for H and He will be reduced by one unit
Partially contracted basis set               ... on
Rotationally invariant grid construction     ... off

Total number of grid points                  ...    20160
Total number of batches                      ...      326
Average number of points per batch           ...       61
Average number of grid points per atom       ...      630
UseSFitting                                  ... on

GRIDX 2
-------
General Integration Accuracy     IntAcc      ... 4.020
Radial Grid Type                 RadialGrid  ... OptM3 with GC (2021)
Angular Grid (max. ang.)         AngularGrid ... 2 (Lebedev-110)
Angular grid pruning method      GridPruning ... 4 (adaptive)
Weight generation scheme         WeightScheme... Becke
Basis function cutoff            BFCut       ... 1.0000e-11
Integration weight cutoff        WCut        ... 1.0000e-14
Angular grids for H and He will be reduced by one unit
Partially contracted basis set               ... on
Rotationally invariant grid construction     ... off

Total number of grid points                  ...    44272
Total number of batches                      ...      709
Average number of points per batch           ...       62
Average number of grid points per atom       ...     1384
UseSFitting                                  ... on

GRIDX 3
-------
General Integration Accuracy     IntAcc      ... 4.338
Radial Grid Type                 RadialGrid  ... OptM3 with GC (2021)
Angular Grid (max. ang.)         AngularGrid ... 3 (Lebedev-194)
Angular grid pruning method      GridPruning ... 4 (adaptive)
Weight generation scheme         WeightScheme... Becke
Basis function cutoff            BFCut       ... 1.0000e-11
Integration weight cutoff        WCut        ... 1.0000e-14
Angular grids for H and He will be reduced by one unit
Partially contracted basis set               ... on
Rotationally invariant grid construction     ... off

Total number of grid points                  ...    97575
Total number of batches                      ...     1542
Average number of points per batch           ...       63
Average number of grid points per atom       ...     3049
UseSFitting                                  ... on

Time for X-Grid setup             =    2.760 sec


--------------------
CPCM SOLVATION MODEL
--------------------
CPCM parameters:
  Epsilon                                         ...      37.7810
  Refrac                                          ...       1.4380
  Rsolv                                           ...       1.3000
  Surface type                                    ... GAUSSIAN VDW
  Epsilon function type                           ...         CPCM
Solvent:                                     ... N,N-DIMETHYLACETAMIDE
SMD-CDS solvent descriptors:
  Soln                                       ...    1.4380
  Soln25                                     ...    1.4358
  Sola                                       ...    0.0000
  Solb                                       ...    0.7800
  Solg                                       ...   47.6200
  Solc                                       ...    0.0000
  Solh                                       ...    0.0000
Radii:
 Radius for C  used is    3.4960 Bohr (=   1.8500 Ang.)
 Radius for H  used is    2.2677 Bohr (=   1.2000 Ang.)
 Radius for N  used is    3.5716 Bohr (=   1.8900 Ang.)
 Radius for S  used is    4.7054 Bohr (=   2.4900 Ang.)
Calculating surface                               ...        done! (  0.0s)
GEPOL surface points                              ...         1734
GEPOL Volume                                      ...    1928.5134
GEPOL Surface-area                                ...    1011.6220
Calculating surface distance matrix               ...        done! (  0.0s)
Performing Cholesky decomposition & store         ...        done! (  0.1s)
Overall time for CPCM initialization              ...                 0.2s
--------------
SCF ITERATIONS
--------------
ITER       Energy         Delta-E        Max-DP      RMS-DP      [F,P]     Damp
               ***  Starting incremental Fock matrix formation  ***
  0  -1160.1645534498   0.000000000000 0.03451269  0.00061557  0.2253241 0.7000
  1  -1160.3724133783  -0.207859928553 0.02430257  0.00051481  0.1338670 0.7000
                               ***Turning on DIIS***
  2  -1160.4887320494  -0.116318671030 0.07692281  0.00116143  0.0710190 0.0000
  3  -1160.6935906141  -0.204858564759 0.02819872  0.00033646  0.0418650 0.0000
  4  -1160.7159407900  -0.022350175839 0.01318337  0.00018620  0.0081018 0.0000
  5  -1160.7167679696  -0.000827179639 0.00554909  0.00009187  0.0034711 0.0000
                      *** Initiating the SOSCF procedure ***
                           *** Shutting down DIIS ***
                      *** Re-Reading the Fockian *** 
                      *** Removing any level shift *** 
ITER      Energy       Delta-E        Grad      Rot      Max-DP    RMS-DP
  6  -1160.71694795  -0.0001799806  0.000857  0.000857  0.003350  0.000051
               *** Restarting incremental Fock matrix formation ***
  7  -1160.71685694   0.0000910143  0.000500  0.001510  0.002610  0.000058
  8  -1160.71687422  -0.0000172875  0.000159  0.001028  0.002006  0.000033
  9  -1160.71687704  -0.0000028194  0.000102  0.000166  0.000540  0.000010
 10  -1160.71687778  -0.0000007326  0.000030  0.000070  0.000188  0.000003
 11  -1160.71687786  -0.0000000864  0.000013  0.000025  0.000080  0.000001
 12  -1160.71687788  -0.0000000203  0.000006  0.000022  0.000072  0.000001
 13  -1160.71687788   0.0000000034  0.000003  0.000006  0.000072  0.000001
                  ***Gradient check signals convergence***
              ***Rediagonalizing the Fockian in SOSCF/NRSCF***

               *****************************************************
               *                     SUCCESS                       *
               *           SCF CONVERGED AFTER  14 CYCLES          *
               *****************************************************

Old exchange energy                            =    -85.132982676 Eh
New exchange energy                            =    -85.133070593 Eh
Exchange energy change after final integration =     -0.000087917 Eh
Total energy after final integration           =  -1160.716965803 Eh
Final COS-X integration done in                =    43.286 sec

SMD CDS free energy correction energy :                -3.92586     Kcal/mol
Total Energy after SMD CDS correction =             -1160.723222052 Eh

----------------
TOTAL SCF ENERGY
----------------

Total Energy       :        -1160.72322205 Eh          -31584.88462 eV

Components:
Nuclear Repulsion  :         1576.30510427 Eh           42893.44255 eV
Electronic Energy  :        -2737.02832632 Eh          -74478.32716 eV
One Electron Energy:        -4716.45358290 Eh         -128341.22673 eV
Two Electron Energy:         1979.42525658 Eh           53862.89957 eV
Max COSX asymmetry :            0.00001232 Eh               0.00034 eV
CPCM Dielectric    :           -0.01957626 Eh              -0.53270 eV
SMD CDS (Gcds)     :           -0.00625625 Eh              -0.17024 eV

Virial components:
Potential Energy   :        -2318.70385846 Eh          -63095.13968 eV
Kinetic Energy     :         1157.98063641 Eh           31510.25507 eV
Virial Ratio       :            2.00236842


DFT components:
N(Alpha)           :       71.999992076549 electrons
N(Beta)            :       71.999992076549 electrons
N(Total)           :      143.999984153097 electrons
E(X)               :      -45.897815322708 Eh       
E(C)               :       -3.223305173449 Eh       
E(XC)              :      -49.121120496157 Eh       
DFET-embed. en.    :        0.000000000000 Eh       
CPCM Solvation Model Properties:
Surface-charge          :           -0.05474730
Charge-correction       :            0.00007825 Eh               0.00213 eV
Free-energy (cav+disp)  :           -0.00625625 Eh              -0.17024 eV

---------------
SCF CONVERGENCE
---------------

  Last Energy change         ...   -7.6000e-09  Tolerance :   1.0000e-08
  Last MAX-Density change    ...    2.2204e-15  Tolerance :   1.0000e-07
  Last RMS-Density change    ...    1.3900e-17  Tolerance :   5.0000e-09
  Last Orbital Gradient      ...    1.0144e-06  Tolerance :   1.0000e-05
  Last Orbital Rotation      ...    1.3784e-06  Tolerance :   1.0000e-05

             **** THE GBW FILE WAS UPDATED (PTZ_2_M06L_def2TZVP_coords.gbw) ****
             **** DENSITY PTZ_2_M06L_def2TZVP_coords.scfp WAS UPDATED ****
             **** ENERGY FILE WAS UPDATED (PTZ_2_M06L_def2TZVP_coords.en.tmp) ****
             **** THE GBW FILE WAS UPDATED (PTZ_2_M06L_def2TZVP_coords.gbw) ****
             **** DENSITY PTZ_2_M06L_def2TZVP_coords.scfp WAS UPDATED ****
----------------
ORBITAL ENERGIES
----------------

  NO   OCC          E(Eh)            E(eV) 
   0   2.0000     -90.630369     -2466.1777 
   1   2.0000     -15.063101      -409.8878 
   2   2.0000     -15.017912      -408.6582 
   3   2.0000     -10.864187      -295.6296 
   4   2.0000     -10.829352      -294.6817 
   5   2.0000     -10.827565      -294.6330 
   6   2.0000     -10.816318      -294.3270 
   7   2.0000     -10.814908      -294.2886 
   8   2.0000     -10.811767      -294.2031 
   9   2.0000     -10.791737      -293.6581 
  10   2.0000     -10.785855      -293.4980 
  11   2.0000     -10.783653      -293.4381 
  12   2.0000     -10.782801      -293.4149 
  13   2.0000     -10.780643      -293.3562 
  14   2.0000     -10.779825      -293.3339 
  15   2.0000     -10.779606      -293.3280 
  16   2.0000     -10.778363      -293.2942 
  17   2.0000     -10.777288      -293.2649 
  18   2.0000     -10.774854      -293.1987 
  19   2.0000     -10.768126      -293.0156 
  20   2.0000      -8.528856      -232.0820 
  21   2.0000      -6.333731      -172.3496 
  22   2.0000      -6.331590      -172.2913 
  23   2.0000      -6.329200      -172.2263 
  24   2.0000      -1.181287       -32.1445 
  25   2.0000      -1.114599       -30.3298 
  26   2.0000      -1.041735       -28.3470 
  27   2.0000      -1.033278       -28.1169 
  28   2.0000      -0.968388       -26.3512 
  29   2.0000      -0.967164       -26.3179 
  30   2.0000      -0.923489       -25.1294 
  31   2.0000      -0.919252       -25.0141 
  32   2.0000      -0.911252       -24.7964 
  33   2.0000      -0.881955       -23.9992 
  34   2.0000      -0.830917       -22.6104 
  35   2.0000      -0.780471       -21.2377 
  36   2.0000      -0.776650       -21.1337 
  37   2.0000      -0.744470       -20.2580 
  38   2.0000      -0.733609       -19.9625 
  39   2.0000      -0.730321       -19.8730 
  40   2.0000      -0.690435       -18.7877 
  41   2.0000      -0.656032       -17.8515 
  42   2.0000      -0.650991       -17.7144 
  43   2.0000      -0.607451       -16.5296 
  44   2.0000      -0.596749       -16.2384 
  45   2.0000      -0.587507       -15.9869 
  46   2.0000      -0.575142       -15.6504 
  47   2.0000      -0.570032       -15.5114 
  48   2.0000      -0.564212       -15.3530 
  49   2.0000      -0.545222       -14.8362 
  50   2.0000      -0.542200       -14.7540 
  51   2.0000      -0.531615       -14.4660 
  52   2.0000      -0.518415       -14.1068 
  53   2.0000      -0.512035       -13.9332 
  54   2.0000      -0.497797       -13.5458 
  55   2.0000      -0.492035       -13.3889 
  56   2.0000      -0.478540       -13.0217 
  57   2.0000      -0.470715       -12.8088 
  58   2.0000      -0.460805       -12.5391 
  59   2.0000      -0.454839       -12.3768 
  60   2.0000      -0.448104       -12.1935 
  61   2.0000      -0.432989       -11.7822 
  62   2.0000      -0.418821       -11.3967 
  63   2.0000      -0.402664       -10.9570 
  64   2.0000      -0.374226       -10.1832 
  65   2.0000      -0.359882        -9.7929 
  66   2.0000      -0.348166        -9.4741 
  67   2.0000      -0.322914        -8.7869 
  68   2.0000      -0.315764        -8.5924 
  69   2.0000      -0.306951        -8.3526 
  70   2.0000      -0.278493        -7.5782 
  71   2.0000      -0.254524        -6.9259 
  72   0.0000       0.040867         1.1120 
  73   0.0000       0.042342         1.1522 
  74   0.0000       0.049069         1.3352 
  75   0.0000       0.052591         1.4311 
  76   0.0000       0.066810         1.8180 
  77   0.0000       0.082532         2.2458 
  78   0.0000       0.099620         2.7108 
  79   0.0000       0.111160         3.0248 
  80   0.0000       0.124466         3.3869 
  81   0.0000       0.132737         3.6120 
  82   0.0000       0.134474         3.6592 
  83   0.0000       0.136597         3.7170 
  84   0.0000       0.144597         3.9347 
  85   0.0000       0.155513         4.2317 
  86   0.0000       0.160249         4.3606 
  87   0.0000       0.167052         4.5457 
  88   0.0000       0.169847         4.6218 
  89   0.0000       0.179567         4.8863 
  90   0.0000       0.185275         5.0416 
  91   0.0000       0.189905         5.1676 
  92   0.0000       0.190636         5.1875 
  93   0.0000       0.192647         5.2422 
  94   0.0000       0.213158         5.8003 
  95   0.0000       0.221804         6.0356 
  96   0.0000       0.231309         6.2942 
  97   0.0000       0.234270         6.3748 
  98   0.0000       0.237021         6.4497 
  99   0.0000       0.243840         6.6352 
 100   0.0000       0.248419         6.7598 
 101   0.0000       0.252229         6.8635 
 102   0.0000       0.262120         7.1327 
 103   0.0000       0.266127         7.2417 
 104   0.0000       0.273174         7.4334 
 105   0.0000       0.278819         7.5870 
 106   0.0000       0.281731         7.6663 
 107   0.0000       0.285220         7.7612 
 108   0.0000       0.290766         7.9121 
 109   0.0000       0.296059         8.0562 
 110   0.0000       0.298451         8.1213 
 111   0.0000       0.301231         8.1969 
 112   0.0000       0.307756         8.3745 
 113   0.0000       0.313985         8.5440 
 114   0.0000       0.317980         8.6527 
 115   0.0000       0.326476         8.8839 
 116   0.0000       0.334823         9.1110 
 117   0.0000       0.337371         9.1803 
 118   0.0000       0.338274         9.2049 
 119   0.0000       0.348674         9.4879 
 120   0.0000       0.351518         9.5653 
 121   0.0000       0.359904         9.7935 
 122   0.0000       0.365637         9.9495 
 123   0.0000       0.371657        10.1133 
 124   0.0000       0.379776        10.3342 
 125   0.0000       0.383126        10.4254 
 126   0.0000       0.386516        10.5176 
 127   0.0000       0.391788        10.6611 
 128   0.0000       0.397320        10.8116 
 129   0.0000       0.405206        11.0262 
 130   0.0000       0.411304        11.1921 
 131   0.0000       0.415801        11.3145 
 132   0.0000       0.418266        11.3816 
 133   0.0000       0.420197        11.4341 
 134   0.0000       0.424887        11.5618 
 135   0.0000       0.429450        11.6859 
 136   0.0000       0.439589        11.9618 
 137   0.0000       0.448088        12.1931 
 138   0.0000       0.451541        12.2871 
 139   0.0000       0.457416        12.4469 
 140   0.0000       0.461805        12.5664 
 141   0.0000       0.466430        12.6922 
 142   0.0000       0.472152        12.8479 
 143   0.0000       0.475717        12.9449 
 144   0.0000       0.481055        13.0902 
 145   0.0000       0.483707        13.1623 
 146   0.0000       0.487753        13.2724 
 147   0.0000       0.493437        13.4271 
 148   0.0000       0.497075        13.5261 
 149   0.0000       0.500634        13.6229 
 150   0.0000       0.507351        13.8057 
 151   0.0000       0.509150        13.8547 
 152   0.0000       0.515851        14.0370 
 153   0.0000       0.522818        14.2266 
 154   0.0000       0.525187        14.2911 
 155   0.0000       0.530700        14.4411 
 156   0.0000       0.536816        14.6075 
 157   0.0000       0.538606        14.6562 
 158   0.0000       0.544048        14.8043 
 159   0.0000       0.546477        14.8704 
 160   0.0000       0.549357        14.9488 
 161   0.0000       0.553715        15.0674 
 162   0.0000       0.566502        15.4153 
 163   0.0000       0.572642        15.5824 
 164   0.0000       0.577804        15.7228 
 165   0.0000       0.579778        15.7766 
 166   0.0000       0.584241        15.8980 
 167   0.0000       0.589514        16.0415 
 168   0.0000       0.591574        16.0976 
 169   0.0000       0.605976        16.4894 
 170   0.0000       0.609183        16.5767 
 171   0.0000       0.623656        16.9705 
 172   0.0000       0.627894        17.0859 
 173   0.0000       0.635992        17.3062 
 174   0.0000       0.641669        17.4607 
 175   0.0000       0.656511        17.8646 
 176   0.0000       0.658455        17.9175 
 177   0.0000       0.662881        18.0379 
 178   0.0000       0.663981        18.0678 
 179   0.0000       0.675402        18.3786 
 180   0.0000       0.683455        18.5978 
 181   0.0000       0.689631        18.7658 
 182   0.0000       0.693037        18.8585 
 183   0.0000       0.708279        19.2733 
 184   0.0000       0.714929        19.4542 
 185   0.0000       0.718164        19.5422 
 186   0.0000       0.736608        20.0441 
 187   0.0000       0.745846        20.2955 
 188   0.0000       0.751591        20.4518 
 189   0.0000       0.762613        20.7517 
 190   0.0000       0.765437        20.8286 
 191   0.0000       0.771149        20.9840 
 192   0.0000       0.775434        21.1006 
 193   0.0000       0.780962        21.2510 
 194   0.0000       0.791826        21.5467 
 195   0.0000       0.797120        21.6907 
 196   0.0000       0.804957        21.9040 
 197   0.0000       0.807683        21.9782 
 198   0.0000       0.810669        22.0594 
 199   0.0000       0.817820        22.2540 
 200   0.0000       0.823962        22.4211 
 201   0.0000       0.830468        22.5982 
 202   0.0000       0.831215        22.6185 
 203   0.0000       0.846583        23.0367 
 204   0.0000       0.852214        23.1899 
 205   0.0000       0.855852        23.2889 
 206   0.0000       0.865045        23.5391 
 207   0.0000       0.869167        23.6512 
 208   0.0000       0.874347        23.7922 
 209   0.0000       0.881473        23.9861 
 210   0.0000       0.891538        24.2600 
 211   0.0000       0.895486        24.3674 
 212   0.0000       0.904044        24.6003 
 213   0.0000       0.913671        24.8622 
 214   0.0000       0.923423        25.1276 
 215   0.0000       0.935359        25.4524 
 216   0.0000       0.946130        25.7455 
 217   0.0000       0.952442        25.9173 
 218   0.0000       0.961057        26.1517 
 219   0.0000       0.967677        26.3318 
 220   0.0000       0.970548        26.4100 
 221   0.0000       0.976839        26.5811 
 222   0.0000       0.982942        26.7472 
 223   0.0000       0.984568        26.7914 
 224   0.0000       0.992941        27.0193 
 225   0.0000       0.995775        27.0964 
 226   0.0000       0.998362        27.1668 
 227   0.0000       1.015650        27.6372 
 228   0.0000       1.020325        27.7645 
 229   0.0000       1.022959        27.8361 
 230   0.0000       1.037438        28.2301 
 231   0.0000       1.047254        28.4972 
 232   0.0000       1.056688        28.7539 
 233   0.0000       1.059375        28.8271 
 234   0.0000       1.064687        28.9716 
 235   0.0000       1.085311        29.5328 
 236   0.0000       1.092892        29.7391 
 237   0.0000       1.107197        30.1284 
 238   0.0000       1.115622        30.3576 
 239   0.0000       1.117354        30.4047 
 240   0.0000       1.131259        30.7831 
 241   0.0000       1.146016        31.1847 
 242   0.0000       1.153846        31.3978 
 243   0.0000       1.161826        31.6149 
 244   0.0000       1.175549        31.9883 
 245   0.0000       1.181688        32.1554 
 246   0.0000       1.186733        32.2927 
 247   0.0000       1.205183        32.7947 
 248   0.0000       1.227010        33.3886 
 249   0.0000       1.232350        33.5340 
 250   0.0000       1.236497        33.6468 
 251   0.0000       1.248457        33.9722 
 252   0.0000       1.254459        34.1356 
 253   0.0000       1.264993        34.4222 
 254   0.0000       1.269762        34.5520 
 255   0.0000       1.276818        34.7440 
 256   0.0000       1.288446        35.0604 
 257   0.0000       1.299552        35.3626 
 258   0.0000       1.304810        35.5057 
 259   0.0000       1.326192        36.0875 
 260   0.0000       1.330376        36.2014 
 261   0.0000       1.334222        36.3060 
 262   0.0000       1.343809        36.5669 
 263   0.0000       1.354666        36.8623 
 264   0.0000       1.359216        36.9862 
 265   0.0000       1.367150        37.2020 
 266   0.0000       1.376547        37.4578 
 267   0.0000       1.384762        37.6813 
 268   0.0000       1.389470        37.8094 
 269   0.0000       1.404725        38.2245 
 270   0.0000       1.414092        38.4794 
 271   0.0000       1.425107        38.7791 
 272   0.0000       1.433818        39.0162 
 273   0.0000       1.435957        39.0744 
 274   0.0000       1.448241        39.4086 
 275   0.0000       1.458785        39.6956 
 276   0.0000       1.461669        39.7740 
 277   0.0000       1.471613        40.0446 
 278   0.0000       1.479556        40.2608 
 279   0.0000       1.487532        40.4778 
 280   0.0000       1.499258        40.7969 
 281   0.0000       1.513883        41.1948 
 282   0.0000       1.517620        41.2965 
 283   0.0000       1.525769        41.5183 
 284   0.0000       1.549905        42.1751 
 285   0.0000       1.552318        42.2407 
 286   0.0000       1.563031        42.5322 
 287   0.0000       1.572921        42.8014 
 288   0.0000       1.575402        42.8689 
 289   0.0000       1.586051        43.1587 
 290   0.0000       1.595859        43.4255 
 291   0.0000       1.599310        43.5194 
 292   0.0000       1.609377        43.7934 
 293   0.0000       1.618398        44.0388 
 294   0.0000       1.623949        44.1899 
 295   0.0000       1.629806        44.3493 
 296   0.0000       1.633796        44.4579 
 297   0.0000       1.644643        44.7530 
 298   0.0000       1.649117        44.8748 
 299   0.0000       1.662426        45.2369 
 300   0.0000       1.674536        45.5664 
 301   0.0000       1.678488        45.6740 
 302   0.0000       1.681909        45.7671 
 303   0.0000       1.706177        46.4274 
 304   0.0000       1.720079        46.8057 
 305   0.0000       1.722761        46.8787 
 306   0.0000       1.728220        47.0272 
 307   0.0000       1.733015        47.1577 
 308   0.0000       1.741448        47.3872 
 309   0.0000       1.744414        47.4679 
 310   0.0000       1.753964        47.7278 
 311   0.0000       1.764735        48.0209 
 312   0.0000       1.768459        48.1222 
 313   0.0000       1.776022        48.3280 
 314   0.0000       1.778422        48.3933 
 315   0.0000       1.783524        48.5322 
 316   0.0000       1.788754        48.6745 
 317   0.0000       1.800170        48.9851 
 318   0.0000       1.806531        49.1582 
 319   0.0000       1.813880        49.3582 
 320   0.0000       1.825207        49.6664 
 321   0.0000       1.835263        49.9400 
 322   0.0000       1.845194        50.2103 
 323   0.0000       1.851676        50.3867 
 324   0.0000       1.856032        50.5052 
 325   0.0000       1.864152        50.7262 
 326   0.0000       1.880802        51.1792 
 327   0.0000       1.882096        51.2144 
 328   0.0000       1.889787        51.4237 
 329   0.0000       1.896585        51.6087 
 330   0.0000       1.901692        51.7477 
 331   0.0000       1.905938        51.8632 
 332   0.0000       1.907957        51.9181 
 333   0.0000       1.915292        52.1178 
 334   0.0000       1.924905        52.3793 
 335   0.0000       1.944643        52.9164 
 336   0.0000       1.958118        53.2831 
 337   0.0000       1.962682        53.4073 
 338   0.0000       1.969420        53.5906 
 339   0.0000       1.980881        53.9025 
 340   0.0000       1.986868        54.0654 
 341   0.0000       1.998464        54.3810 
 342   0.0000       2.002291        54.4851 
 343   0.0000       2.027458        55.1699 
 344   0.0000       2.031024        55.2670 
 345   0.0000       2.047710        55.7210 
 346   0.0000       2.058930        56.0263 
 347   0.0000       2.059811        56.0503 
 348   0.0000       2.068221        56.2791 
 349   0.0000       2.071918        56.3798 
 350   0.0000       2.087557        56.8053 
 351   0.0000       2.115376        57.5623 
 352   0.0000       2.123418        57.7811 
 353   0.0000       2.131873        58.0112 
 354   0.0000       2.134947        58.0949 
 355   0.0000       2.143214        58.3198 
 356   0.0000       2.160837        58.7994 
 357   0.0000       2.172815        59.1253 
 358   0.0000       2.173736        59.1504 
 359   0.0000       2.193735        59.6946 
 360   0.0000       2.194922        59.7269 
 361   0.0000       2.202718        59.9390 
 362   0.0000       2.221418        60.4479 
 363   0.0000       2.235593        60.8336 
 364   0.0000       2.245500        61.1032 
 365   0.0000       2.252721        61.2997 
 366   0.0000       2.262103        61.5549 
 367   0.0000       2.268537        61.7300 
 368   0.0000       2.275758        61.9265 
 369   0.0000       2.282659        62.1143 
 370   0.0000       2.304107        62.6979 
 371   0.0000       2.322683        63.2034 
 372   0.0000       2.335088        63.5410 
 373   0.0000       2.341224        63.7079 
 374   0.0000       2.353372        64.0385 
 375   0.0000       2.359257        64.1987 
 376   0.0000       2.366939        64.4077 
 377   0.0000       2.377528        64.6958 
 378   0.0000       2.386249        64.9331 
 379   0.0000       2.391243        65.0690 
 380   0.0000       2.403607        65.4055 
 381   0.0000       2.408850        65.5481 
 382   0.0000       2.413385        65.6715 
 383   0.0000       2.424621        65.9773 
 384   0.0000       2.430553        66.1387 
 385   0.0000       2.441947        66.4488 
 386   0.0000       2.456072        66.8331 
 387   0.0000       2.463920        67.0467 
 388   0.0000       2.485626        67.6373 
 389   0.0000       2.515530        68.4510 
 390   0.0000       2.524468        68.6943 
 391   0.0000       2.535354        68.9905 
 392   0.0000       2.559700        69.6530 
 393   0.0000       2.582427        70.2714 
 394   0.0000       2.590855        70.5008 
 395   0.0000       2.609664        71.0126 
 396   0.0000       2.618702        71.2585 
 397   0.0000       2.627597        71.5005 
 398   0.0000       2.639463        71.8234 
 399   0.0000       2.656004        72.2735 
 400   0.0000       2.669640        72.6446 
 401   0.0000       2.682084        72.9832 
 402   0.0000       2.686258        73.0968 
 403   0.0000       2.691240        73.2324 
 404   0.0000       2.699818        73.4658 
 405   0.0000       2.705558        73.6220 
 406   0.0000       2.712142        73.8011 
 407   0.0000       2.750868        74.8549 
 408   0.0000       2.756311        75.0030 
 409   0.0000       2.765774        75.2605 
 410   0.0000       2.771687        75.4214 
 411   0.0000       2.782135        75.7057 
 412   0.0000       2.789680        75.9111 
 413   0.0000       2.793044        76.0026 
 414   0.0000       2.805326        76.3368 
 415   0.0000       2.815160        76.6044 
 416   0.0000       2.818698        76.7007 
 417   0.0000       2.822563        76.8059 
 418   0.0000       2.828731        76.9737 
 419   0.0000       2.835463        77.1569 
 420   0.0000       2.837236        77.2051 
 421   0.0000       2.850898        77.5769 
 422   0.0000       2.853034        77.6350 
 423   0.0000       2.862454        77.8913 
 424   0.0000       2.867319        78.0237 
 425   0.0000       2.875112        78.2358 
 426   0.0000       2.876150        78.2640 
 427   0.0000       2.878714        78.3338 
 428   0.0000       2.890016        78.6413 
 429   0.0000       2.900493        78.9264 
 430   0.0000       2.906818        79.0985 
 431   0.0000       2.912438        79.2515 
 432   0.0000       2.915508        79.3350 
 433   0.0000       2.923117        79.5420 
 434   0.0000       2.933110        79.8140 
 435   0.0000       2.941051        80.0301 
 436   0.0000       2.944758        80.1309 
 437   0.0000       2.957187        80.4691 
 438   0.0000       2.960253        80.5526 
 439   0.0000       2.966300        80.7171 
 440   0.0000       2.985447        81.2382 
 441   0.0000       2.993145        81.4476 
 442   0.0000       2.998971        81.6061 
 443   0.0000       3.001303        81.6696 
 444   0.0000       3.006708        81.8167 
 445   0.0000       3.014289        82.0230 
 446   0.0000       3.019101        82.1539 
 447   0.0000       3.027441        82.3809 
 448   0.0000       3.034355        82.5690 
 449   0.0000       3.046947        82.9116 
 450   0.0000       3.047971        82.9395 
 451   0.0000       3.054893        83.1279 
 452   0.0000       3.057795        83.2068 
 453   0.0000       3.069335        83.5208 
 454   0.0000       3.075346        83.6844 
 455   0.0000       3.080144        83.8150 
 456   0.0000       3.089796        84.0776 
 457   0.0000       3.099402        84.3390 
 458   0.0000       3.104394        84.4749 
 459   0.0000       3.110284        84.6351 
 460   0.0000       3.112972        84.7083 
 461   0.0000       3.125692        85.0544 
 462   0.0000       3.133674        85.2716 
 463   0.0000       3.139432        85.4283 
 464   0.0000       3.160252        85.9948 
 465   0.0000       3.177047        86.4518 
 466   0.0000       3.181077        86.5615 
 467   0.0000       3.193310        86.8944 
 468   0.0000       3.202588        87.1468 
 469   0.0000       3.211819        87.3980 
 470   0.0000       3.214810        87.4794 
 471   0.0000       3.219281        87.6011 
 472   0.0000       3.231967        87.9463 
 473   0.0000       3.246073        88.3301 
 474   0.0000       3.248578        88.3983 
 475   0.0000       3.262012        88.7639 
 476   0.0000       3.267298        88.9077 
 477   0.0000       3.269129        88.9575 
 478   0.0000       3.279415        89.2374 
 479   0.0000       3.290354        89.5351 
 480   0.0000       3.303713        89.8986 
 481   0.0000       3.307835        90.0108 
 482   0.0000       3.311896        90.1213 
 483   0.0000       3.320363        90.3517 
 484   0.0000       3.325966        90.5041 
 485   0.0000       3.333772        90.7165 
 486   0.0000       3.338804        90.8535 
 487   0.0000       3.347354        91.0861 
 488   0.0000       3.350283        91.1658 
 489   0.0000       3.353915        91.2647 
 490   0.0000       3.359634        91.4203 
 491   0.0000       3.376531        91.8801 
 492   0.0000       3.380206        91.9801 
 493   0.0000       3.385617        92.1273 
 494   0.0000       3.389924        92.2445 
 495   0.0000       3.393585        92.3441 
 496   0.0000       3.400215        92.5246 
 497   0.0000       3.409147        92.7676 
 498   0.0000       3.416133        92.9577 
 499   0.0000       3.427990        93.2804 
 500   0.0000       3.434199        93.4493 
 501   0.0000       3.449743        93.8723 
 502   0.0000       3.455670        94.0336 
 503   0.0000       3.472830        94.5005 
 504   0.0000       3.479067        94.6702 
 505   0.0000       3.492224        95.0282 
 506   0.0000       3.497262        95.1653 
 507   0.0000       3.500131        95.2434 
 508   0.0000       3.513514        95.6076 
 509   0.0000       3.518935        95.7551 
 510   0.0000       3.526333        95.9564 
 511   0.0000       3.526939        95.9729 
 512   0.0000       3.536679        96.2379 
 513   0.0000       3.541151        96.3596 
 514   0.0000       3.546040        96.4927 
 515   0.0000       3.555476        96.7494 
 516   0.0000       3.562734        96.9469 
 517   0.0000       3.574730        97.2733 
 518   0.0000       3.582626        97.4882 
 519   0.0000       3.587064        97.6090 
 520   0.0000       3.593478        97.7835 
 521   0.0000       3.595535        97.8395 
 522   0.0000       3.598692        97.9254 
 523   0.0000       3.604611        98.0864 
 524   0.0000       3.618083        98.4530 
 525   0.0000       3.626758        98.6891 
 526   0.0000       3.636001        98.9406 
 527   0.0000       3.646105        99.2156 
 528   0.0000       3.651415        99.3600 
 529   0.0000       3.658257        99.5462 
 530   0.0000       3.665629        99.7468 
 531   0.0000       3.668885        99.8354 
 532   0.0000       3.677373       100.0664 
 533   0.0000       3.679915       100.1356 
 534   0.0000       3.702441       100.7485 
 535   0.0000       3.708000       100.8998 
 536   0.0000       3.715655       101.1081 
 537   0.0000       3.723924       101.3331 
 538   0.0000       3.728379       101.4543 
 539   0.0000       3.741919       101.8228 
 540   0.0000       3.747594       101.9772 
 541   0.0000       3.748594       102.0044 
 542   0.0000       3.754432       102.1633 
 543   0.0000       3.756997       102.2331 
 544   0.0000       3.764368       102.4337 
 545   0.0000       3.771567       102.6296 
 546   0.0000       3.779667       102.8500 
 547   0.0000       3.800493       103.4167 
 548   0.0000       3.807765       103.6146 
 549   0.0000       3.813730       103.7769 
 550   0.0000       3.828074       104.1672 
 551   0.0000       3.866123       105.2026 
 552   0.0000       3.873881       105.4137 
 553   0.0000       3.890592       105.8684 
 554   0.0000       3.908148       106.3461 
 555   0.0000       3.919936       106.6669 
 556   0.0000       3.930596       106.9570 
 557   0.0000       3.937089       107.1336 
 558   0.0000       3.948048       107.4318 
 559   0.0000       3.962410       107.8226 
 560   0.0000       3.973666       108.1290 
 561   0.0000       3.979129       108.2776 
 562   0.0000       3.996927       108.7619 
 563   0.0000       4.018019       109.3358 
 564   0.0000       4.053872       110.3115 
 565   0.0000       4.084695       111.1502 
 566   0.0000       4.098250       111.5191 
 567   0.0000       4.105288       111.7106 
 568   0.0000       4.111018       111.8665 
 569   0.0000       4.130240       112.3895 
 570   0.0000       4.136762       112.5670 
 571   0.0000       4.148849       112.8959 
 572   0.0000       4.161965       113.2528 
 573   0.0000       4.177933       113.6873 
 574   0.0000       4.189977       114.0151 
 575   0.0000       4.207417       114.4896 
 576   0.0000       4.242029       115.4315 
 577   0.0000       4.259555       115.9084 
 578   0.0000       4.264137       116.0331 
 579   0.0000       4.274682       116.3200 
 580   0.0000       4.291933       116.7894 
 581   0.0000       4.303691       117.1094 
 582   0.0000       4.314048       117.3912 
 583   0.0000       4.323843       117.6578 
 584   0.0000       4.328579       117.7866 
 585   0.0000       4.331204       117.8580 
 586   0.0000       4.350674       118.3878 
 587   0.0000       4.362025       118.6967 
 588   0.0000       4.368757       118.8799 
 589   0.0000       4.382592       119.2564 
 590   0.0000       4.398050       119.6770 
 591   0.0000       4.407463       119.9332 
 592   0.0000       4.411571       120.0449 
 593   0.0000       4.420876       120.2981 
 594   0.0000       4.428617       120.5088 
 595   0.0000       4.443135       120.9038 
 596   0.0000       4.448724       121.0559 
 597   0.0000       4.453621       121.1892 
 598   0.0000       4.459578       121.3513 
 599   0.0000       4.472139       121.6931 
 600   0.0000       4.481885       121.9583 
 601   0.0000       4.500898       122.4757 
 602   0.0000       4.518591       122.9571 
 603   0.0000       4.523644       123.0946 
 604   0.0000       4.529404       123.2514 
 605   0.0000       4.544524       123.6628 
 606   0.0000       4.569746       124.3491 
 607   0.0000       4.580572       124.6437 
 608   0.0000       4.585220       124.7702 
 609   0.0000       4.594758       125.0297 
 610   0.0000       4.620298       125.7247 
 611   0.0000       4.624015       125.8259 
 612   0.0000       4.637964       126.2054 
 613   0.0000       4.664457       126.9263 
 614   0.0000       4.687475       127.5527 
 615   0.0000       4.703268       127.9824 
 616   0.0000       4.744123       129.0941 
 617   0.0000       4.757554       129.4596 
 618   0.0000       4.802900       130.6935 
 619   0.0000       4.830557       131.4461 
 620   0.0000       4.841337       131.7395 
 621   0.0000       4.876071       132.6846 
 622   0.0000       4.899966       133.3349 
 623   0.0000       4.931640       134.1967 
 624   0.0000       4.944806       134.5550 
 625   0.0000       4.953352       134.7876 
 626   0.0000       4.958310       134.9225 
 627   0.0000       4.964963       135.1035 
 628   0.0000       4.983974       135.6208 
 629   0.0000       4.998208       136.0082 
 630   0.0000       5.012492       136.3968 
 631   0.0000       5.049391       137.4009 
 632   0.0000       5.053877       137.5230 
 633   0.0000       5.079429       138.2183 
 634   0.0000       5.113740       139.1519 
 635   0.0000       5.139074       139.8413 
 636   0.0000       5.162578       140.4809 
 637   0.0000       5.178944       140.9262 
 638   0.0000       5.213065       141.8547 
 639   0.0000       5.213651       141.8706 
 640   0.0000       5.231835       142.3655 
 641   0.0000       5.256512       143.0370 
 642   0.0000       5.288913       143.9186 
 643   0.0000       5.313061       144.5757 
 644   0.0000       5.326163       144.9323 
 645   0.0000       5.384396       146.5169 
 646   0.0000       5.402511       147.0098 
 647   0.0000       5.410582       147.2294 
 648   0.0000       5.440608       148.0465 
 649   0.0000       5.455932       148.4635 
 650   0.0000       5.478179       149.0688 
 651   0.0000       5.482974       149.1993 
 652   0.0000       5.498473       149.6211 
 653   0.0000       5.506391       149.8365 
 654   0.0000       5.541912       150.8031 
 655   0.0000       5.572349       151.6313 
 656   0.0000       5.620370       152.9381 
 657   0.0000       5.629059       153.1745 
 658   0.0000       5.650838       153.7671 
 659   0.0000       5.675316       154.4332 
 660   0.0000       5.698787       155.0719 
 661   0.0000       5.704277       155.2213 
 662   0.0000       5.763301       156.8274 
 663   0.0000       5.798571       157.7871 
 664   0.0000       5.864197       159.5729 
 665   0.0000       5.922599       161.1621 
 666   0.0000       5.956198       162.0764 
 667   0.0000       5.985175       162.8649 
 668   0.0000       6.011746       163.5879 
 669   0.0000       6.106152       166.1568 
 670   0.0000       6.185832       168.3251 
 671   0.0000       6.204712       168.8388 
 672   0.0000       6.279205       170.8658 
 673   0.0000       6.376411       173.5110 
 674   0.0000       6.626878       180.3265 
 675   0.0000       9.375708       255.1260 
 676   0.0000       9.820703       267.2349 
 677   0.0000       9.988211       271.7930 
 678   0.0000      20.800212       566.0025 
 679   0.0000      22.682382       617.2190 
 680   0.0000      22.832275       621.2978 
 681   0.0000      22.967875       624.9877 
 682   0.0000      23.214751       631.7055 
 683   0.0000      23.242400       632.4579 
 684   0.0000      23.250957       632.6907 
 685   0.0000      23.294231       633.8683 
 686   0.0000      23.297008       633.9438 
 687   0.0000      23.323002       634.6512 
 688   0.0000      23.447720       638.0449 
 689   0.0000      23.449324       638.0885 
 690   0.0000      23.494987       639.3311 
 691   0.0000      23.543856       640.6609 
 692   0.0000      23.571865       641.4231 
 693   0.0000      23.852818       649.0682 
 694   0.0000      23.913231       650.7121 
 695   0.0000      23.951538       651.7545 
 696   0.0000      33.346639       907.4082 
 697   0.0000      33.972168       924.4297 

                    ********************************
                    * MULLIKEN POPULATION ANALYSIS *
                    ********************************

-----------------------
MULLIKEN ATOMIC CHARGES
-----------------------
   0 C :   -0.193286
   1 C :   -0.141156
   2 C :   -0.115189
   3 C :    0.306438
   4 C :   -0.358254
   5 C :   -0.087220
   6 C :    0.265035
   7 C :   -0.112537
   8 C :   -0.142676
   9 H :    0.166503
  10 C :   -0.187990
  11 C :   -0.093152
  12 C :   -0.364022
  13 H :    0.165566
  14 H :    0.151410
  15 H :    0.164137
  16 H :    0.165752
  17 H :    0.165753
  18 C :    0.374362
  19 C :   -0.317950
  20 C :   -0.121616
  21 C :   -0.044209
  22 C :   -0.190105
  23 H :    0.173130
[...]
    68a ->  72a  :     0.014242 
    68a ->  74a  :     0.013717 
    68a ->  75a  :     0.060406 
    69a ->  72a  :     0.034139 
    69a ->  75a  :     0.096766 
    69a ->  76a  :     0.059458 
    69a ->  77a  :     0.028203 
    70a ->  73a  :     0.013261 
    70a ->  75a  :     0.192349 
    71a ->  73a  :     0.020778 
    71a ->  76a  :     0.055430 
    71a ->  77a  :     0.033371 
    71a ->  79a  :     0.012032 

STATE 19:  E=   0.240024 au      6.531 eV    52679.2 cm**-1 <S**2> =   0.000000
    66a ->  72a  :     0.248219 
    66a ->  73a  :     0.122346 
    66a ->  74a  :     0.017831 
    66a ->  75a  :     0.044951 
    66a ->  76a  :     0.044495 
    67a ->  73a  :     0.028559 
    67a ->  74a  :     0.010743 
    67a ->  77a  :     0.025714 
    68a ->  72a  :     0.017993 
    68a ->  73a  :     0.024891 
    68a ->  74a  :     0.022931 
    68a ->  75a  :     0.016801 
    69a ->  74a  :     0.033418 
    69a ->  75a  :     0.061424 
    70a ->  73a  :     0.014381 
    70a ->  77a  :     0.026056 
    71a ->  77a  :     0.109770 

STATE 20:  E=   0.237326 au      6.458 eV    52087.1 cm**-1 <S**2> =   0.000000
    64a ->  74a  :     0.027118 
    64a ->  75a  :     0.020803 
    65a ->  72a  :     0.014904 
    65a ->  74a  :     0.012706 
    65a ->  77a  :     0.015745 
    66a ->  72a  :     0.010070 
    67a ->  72a  :     0.015942 
    67a ->  74a  :     0.053765 
    68a ->  72a  :     0.093163 
    68a ->  73a  :     0.013625 
    68a ->  74a  :     0.042535 
    68a ->  75a  :     0.199576 
    68a ->  77a  :     0.019220 
    69a ->  73a  :     0.040674 
    69a ->  77a  :     0.011962 
    70a ->  74a  :     0.032856 
    70a ->  75a  :     0.027589 
    70a ->  79a  :     0.010106 
    71a ->  78a  :     0.081880 
    71a ->  79a  :     0.098005 
    71a ->  80a  :     0.020150 
    71a ->  82a  :     0.015445 

STATE 21:  E=   0.242701 au      6.604 eV    53266.8 cm**-1 <S**2> =   0.000000
    68a ->  74a  :     0.012475 
    68a ->  75a  :     0.053171 
    69a ->  72a  :     0.011070 
    70a ->  74a  :     0.014469 
    70a ->  79a  :     0.046388 
    71a ->  79a  :     0.500672 
    71a ->  80a  :     0.061456 
    71a ->  82a  :     0.070063 
    71a ->  83a  :     0.013256 

STATE 22:  E=   0.242194 au      6.590 eV    53155.4 cm**-1 <S**2> =   0.000000
    66a ->  72a  :     0.031569 
    66a ->  77a  :     0.013037 
    67a ->  72a  :     0.082958 
    67a ->  73a  :     0.113187 
    67a ->  76a  :     0.018326 
    68a ->  73a  :     0.045882 
    68a ->  74a  :     0.072024 
    68a ->  75a  :     0.015003 
    68a ->  78a  :     0.016927 
    69a ->  72a  :     0.026395 
    69a ->  74a  :     0.035740 
    69a ->  75a  :     0.010313 
    69a ->  76a  :     0.042378 
    69a ->  78a  :     0.012572 
    70a ->  72a  :     0.023167 
    70a ->  73a  :     0.032260 
    70a ->  80a  :     0.022045 
    70a ->  82a  :     0.010120 
    71a ->  79a  :     0.060495 
    71a ->  80a  :     0.071446 
    71a ->  81a  :     0.011083 
    71a ->  82a  :     0.018774 
    71a ->  83a  :     0.026273 

STATE 23:  E=   0.237453 au      6.461 eV    52114.8 cm**-1 <S**2> =   0.000000
    66a ->  72a  :     0.042463 
    66a ->  73a  :     0.011486 
    66a ->  77a  :     0.025183 
    67a ->  72a  :     0.103810 
    67a ->  76a  :     0.024689 
    68a ->  73a  :     0.139086 
    68a ->  74a  :     0.033135 
    68a ->  77a  :     0.010383 
    69a ->  74a  :     0.029358 
    69a ->  75a  :     0.021475 
    69a ->  76a  :     0.010113 
    70a ->  72a  :     0.041994 
    70a ->  73a  :     0.029563 
    70a ->  75a  :     0.036310 
    70a ->  76a  :     0.010827 
    70a ->  77a  :     0.014193 
    70a ->  80a  :     0.020038 
    70a ->  83a  :     0.012687 
    71a ->  79a  :     0.011116 
    71a ->  80a  :     0.086935 
    71a ->  81a  :     0.017460 
    71a ->  82a  :     0.029235 
    71a ->  83a  :     0.032126 

STATE 24:  E=   0.231279 au      6.293 eV    50759.8 cm**-1 <S**2> =   0.000000
    63a ->  76a  :     0.014060 
    66a ->  72a  :     0.017824 
    66a ->  73a  :     0.015679 
    66a ->  77a  :     0.037108 
    67a ->  72a  :     0.073026 
    67a ->  73a  :     0.049536 
    68a ->  72a  :     0.059252 
    68a ->  73a  :     0.132240 
    68a ->  74a  :     0.020311 
    70a ->  72a  :     0.038427 
    70a ->  75a  :     0.011326 
    70a ->  76a  :     0.389932 

STATE 25:  E=   0.245049 au      6.668 eV    53782.0 cm**-1 <S**2> =   0.000000
    66a ->  72a  :     0.017058 
    66a ->  73a  :     0.061041 
    66a ->  75a  :     0.016608 
    66a ->  76a  :     0.010263 
    66a ->  77a  :     0.014699 
    67a ->  72a  :     0.011157 
    67a ->  73a  :     0.091479 
    67a ->  74a  :     0.017570 
    68a ->  72a  :     0.015714 
    68a ->  74a  :     0.160261 
    68a ->  75a  :     0.018194 
    68a ->  76a  :     0.039151 
    69a ->  72a  :     0.017329 
    69a ->  75a  :     0.035686 
    69a ->  76a  :     0.027384 
    70a ->  72a  :     0.039640 
    70a ->  77a  :     0.036616 
    70a ->  80a  :     0.010257 
    70a ->  83a  :     0.011108 
    71a ->  79a  :     0.029499 
    71a ->  80a  :     0.086722 
    71a ->  81a  :     0.035516 
    71a ->  82a  :     0.011106 
    71a ->  83a  :     0.045986 

STATE 26:  E=   0.240631 au      6.548 eV    52812.5 cm**-1 <S**2> =   0.000000
    64a ->  73a  :     0.012651 
    64a ->  75a  :     0.012231 
    67a ->  73a  :     0.031940 
    68a ->  72a  :     0.050377 
    68a ->  74a  :     0.035797 
    68a ->  75a  :     0.146287 
    68a ->  76a  :     0.069533 
    68a ->  78a  :     0.010140 
    69a ->  72a  :     0.050087 
    69a ->  73a  :     0.058806 
    69a ->  74a  :     0.121063 
    69a ->  76a  :     0.021370 
    70a ->  73a  :     0.010827 
    70a ->  76a  :     0.022240 
    70a ->  77a  :     0.113665 
    70a ->  78a  :     0.013011 
    70a ->  79a  :     0.021128 
    71a ->  77a  :     0.038120 
    71a ->  78a  :     0.019521 
    71a ->  79a  :     0.017748 

STATE 27:  E=   0.236908 au      6.447 eV    51995.3 cm**-1 <S**2> =   0.000000
    67a ->  72a  :     0.011728 
    67a ->  74a  :     0.056885 
    67a ->  78a  :     0.033629 
    68a ->  72a  :     0.027535 
    68a ->  76a  :     0.016937 
    69a ->  79a  :     0.018488 
    70a ->  74a  :     0.012503 
    70a ->  78a  :     0.347388 
    71a ->  78a  :     0.310355 

STATE 28:  E=   0.247640 au      6.739 eV    54350.7 cm**-1 <S**2> =   0.000000
    66a ->  72a  :     0.135074 
    66a ->  77a  :     0.012505 
    67a ->  72a  :     0.038407 
    67a ->  74a  :     0.010200 
    67a ->  77a  :     0.016672 
    68a ->  72a  :     0.032664 
    68a ->  73a  :     0.030778 
    68a ->  74a  :     0.011141 
    68a ->  75a  :     0.023466 
    68a ->  76a  :     0.043762 
    69a ->  72a  :     0.041371 
    69a ->  74a  :     0.030457 
    70a ->  77a  :     0.358400 
    70a ->  78a  :     0.010984 
    71a ->  77a  :     0.011422 
    71a ->  81a  :     0.012895 
    71a ->  83a  :     0.019087 

STATE 29:  E=   0.252191 au      6.862 eV    55349.5 cm**-1 <S**2> =   0.000000
    65a ->  73a  :     0.010721 
    65a ->  75a  :     0.010731 
    66a ->  72a  :     0.116946 
    66a ->  73a  :     0.105781 
    66a ->  75a  :     0.018438 
    66a ->  77a  :     0.128264 
    67a ->  72a  :     0.092538 
    67a ->  73a  :     0.166846 
    67a ->  74a  :     0.022899 
    68a ->  73a  :     0.016143 
    69a ->  73a  :     0.049207 
    69a ->  75a  :     0.018192 
    69a ->  77a  :     0.011206 
    70a ->  77a  :     0.087673 

STATE 30:  E=   0.247921 au      6.746 eV    54412.4 cm**-1 <S**2> =   0.000000
    64a ->  72a  :     0.010476 
    65a ->  72a  :     0.063651 
    65a ->  73a  :     0.011323 
    67a ->  72a  :     0.043107 
    67a ->  73a  :     0.018384 
    67a ->  74a  :     0.108582 
    68a ->  72a  :     0.024007 
    68a ->  74a  :     0.040888 
    68a ->  75a  :     0.020588 
    68a ->  76a  :     0.047018 
    69a ->  72a  :     0.261446 
    69a ->  73a  :     0.058420 
    69a ->  74a  :     0.015762 
    69a ->  75a  :     0.044490 
    69a ->  76a  :     0.099023 
    70a ->  77a  :     0.025355 


-------------------------
TD-DFT-EXCITATION SPECTRA
-------------------------

Center of mass = (  0.0316,  0.0133, -0.0291)
Calculating the Dipole integrals                  ... done
Transforming integrals                            ... done
Calculating the Linear Momentum integrals         ... done
Transforming integrals                            ... done
Calculating angular momentum integrals            ... done
Transforming integrals                            ... done

-----------------------------------------------------------------------------
         ABSORPTION SPECTRUM VIA TRANSITION ELECTRIC DIPOLE MOMENTS
-----------------------------------------------------------------------------
State   Energy    Wavelength  fosc         T2        TX        TY        TZ  
        (cm-1)      (nm)                 (au**2)    (au)      (au)      (au) 
-----------------------------------------------------------------------------
   1   34754.2    287.7   0.253728837   2.40347  -1.50745   0.34473  -0.11058
   2   36530.0    273.7   0.094086195   0.84791  -0.81277  -0.41925  -0.10744
   3   35786.5    279.4   0.025084905   0.23076  -0.42340   0.05734  -0.21957
   4   37669.2    265.5   0.054031030   0.47221   0.66070   0.07698  -0.17250
   5   38416.8    260.3   0.009371460   0.08031   0.04339  -0.27921   0.02156
   6   42908.7    233.1   0.220868531   1.69459  -0.44667   1.12409  -0.48114
   7   43284.6    231.0   0.182763265   1.39005  -0.43519  -0.83400  -0.71071
   8   42558.9    235.0   0.029493077   0.22814   0.46990  -0.00416  -0.08556
   9   43193.7    231.5   0.247561567   1.88686   1.13791  -0.24643  -0.72890
  10   44961.4    222.4   0.570913379   4.18029  -0.30618  -2.01430   0.17066
  11   45503.9    219.8   0.173283558   1.25367  -0.07263   1.10605   0.15830
  12   46047.5    217.2   0.035252301   0.25203  -0.24957   0.42859   0.07782
  13   45524.1    219.7   0.009659434   0.06985   0.04802  -0.25940   0.01613
  14   47726.5    209.5   0.214322932   1.47838  -0.75924   0.94947   0.02112
  15   47646.1    209.9   0.221546587   1.53078   0.82197   0.89286  -0.24075
  16   48193.0    207.5   0.038632344   0.26390   0.47654   0.00342   0.19183
  17   48865.2    204.6   0.104804324   0.70608  -0.43172  -0.69708   0.18380
  18   47701.0    209.6   0.096883874   0.66865   0.46410  -0.60358  -0.29824
  19   52679.2    189.8   0.298554529   1.86578   1.06035   0.02556   0.86069
  20   52087.1    192.0   0.341278322   2.15702  -0.07235   1.46329   0.10277
  21   53266.8    187.7   0.110743188   0.68444  -0.39002  -0.72829  -0.04380
  22   53155.4    188.1   0.299594021   1.85550   0.95232   0.24178  -0.94347
  23   52114.8    191.9   0.013694646   0.08651   0.13023   0.03247   0.26172
  24   50759.8    197.0   0.062711047   0.40672  -0.23966   0.58590   0.07754
  25   53782.0    185.9   0.439074667   2.68768   1.40667   0.21326  -0.81453
  26   52812.5    189.3   0.141856617   0.88428   0.81002   0.45181   0.15498
  27   51995.3    192.3   0.036063781   0.22834   0.41162  -0.21353  -0.11540
  28   54350.7    184.0   0.097351312   0.58967  -0.20137   0.69338   0.26143
  29   55349.5    180.7   0.268396765   1.59639  -0.56034   1.12627   0.11796
  30   54412.4    183.8   0.005492740   0.03323   0.00206  -0.13963  -0.11718

-----------------------------------------------------------------------------
         ABSORPTION SPECTRUM VIA TRANSITION VELOCITY DIPOLE MOMENTS
-----------------------------------------------------------------------------
State   Energy    Wavelength   fosc        P2         PX        PY        PZ  
        (cm-1)      (nm)                 (au**2)     (au)      (au)      (au) 
-----------------------------------------------------------------------------
   1   34754.2    287.7   0.327034778   0.07768   0.27092  -0.06231   0.01994
   2   36530.0    273.7   0.114049349   0.02847   0.14969   0.07528   0.02000
   3   35786.5    279.4   0.035020835   0.00857   0.08183  -0.00938   0.04220
   4   37669.2    265.5   0.066386745   0.01709  -0.12515  -0.01526   0.03457
   5   38416.8    260.3   0.012266269   0.00322  -0.00811   0.05601  -0.00415
   6   42908.7    233.1   0.253112369   0.07423   0.09360  -0.23510   0.10096
   7   43284.6    231.0   0.210653829   0.06232   0.09292   0.17596   0.15073
   8   42558.9    235.0   0.037063787   0.01078  -0.10233   0.00116   0.01753
   9   43193.7    231.5   0.314478133   0.09284  -0.25333   0.05456   0.16027
  10   44961.4    222.4   0.682385895   0.20969   0.06907   0.45108  -0.03801
  11   45503.9    219.8   0.211854745   0.06589   0.01532  -0.25359  -0.03667
  12   46047.5    217.2   0.043410095   0.01366   0.06050  -0.09858  -0.01684
  13   45524.1    219.7   0.013293707   0.00414  -0.01244   0.06296  -0.00413
  14   47726.5    209.5   0.277634078   0.09056   0.18812  -0.23483  -0.00509
  15   47646.1    209.9   0.290960921   0.09475  -0.20490  -0.22198   0.05903
  16   48193.0    207.5   0.049807481   0.01641  -0.11874  -0.00036  -0.04803
  17   48865.2    204.6   0.134611059   0.04496   0.10992   0.17537  -0.04601
  18   47701.0    209.6   0.132550165   0.04321  -0.11922   0.15333   0.07407
  19   52679.2    189.8   0.336345936   0.12110  -0.26934  -0.00621  -0.22026
  20   52087.1    192.0   0.421048090   0.14989   0.02269  -0.38568  -0.02504
  21   53266.8    187.7   0.134160695   0.04884   0.10912   0.19151   0.01606
  22   53155.4    188.1   0.359950524   0.13077  -0.25235  -0.06379   0.25104
  23   52114.8    191.9   0.016917614   0.00603  -0.03354  -0.00898  -0.06943
  24   50759.8    197.0   0.084704723   0.02939   0.06637  -0.15674  -0.02032
  25   53782.0    185.9   0.525212953   0.19305  -0.37611  -0.05769   0.21970
  26   52812.5    189.3   0.184671729   0.06666  -0.22295  -0.12332  -0.04173
  27   51995.3    192.3   0.048165012   0.01712  -0.11245   0.05916   0.03117
  28   54350.7    184.0   0.123590247   0.04591   0.05140  -0.19388  -0.07535
  29   55349.5    180.7   0.333125116   0.12602   0.15939  -0.31550  -0.03276
  30   54412.4    183.8   0.007169801   0.00267  -0.00218   0.04002   0.03255

-------------------------------------------------------------------
                             CD SPECTRUM
-------------------------------------------------------------------
State  Energy     Wavelength     R         MX        MY        MZ   
       (cm-1)       (nm)     (1e40*cgs)   (au)      (au)      (au)  
-------------------------------------------------------------------
   1   34754.2    287.7    -125.87023   0.21662   0.01292  -0.49826
   2   36530.0    273.7    223.39258  -0.51574  -0.04080  -0.34955
   3   35786.5    279.4    -132.91320   0.24012   0.00351   0.82188
   4   37669.2    265.5     21.97256  -0.05720   0.03392  -0.47414
   5   38416.8    260.3      4.26603   0.03217  -0.01164   0.20424
   6   42908.7    233.1     64.94601  -0.00875   0.06174  -0.13396
   7   43284.6    231.0    -186.65456   0.03555   0.11448   0.40097
   8   42558.9    235.0     55.66118   0.21729   0.11970  -0.19235
   9   43193.7    231.5    -64.93992   0.01775   0.44645   0.06575
  10   44961.4    222.4    112.07748   0.07882  -0.13115  -0.01356
  11   45503.9    219.8     58.37723   0.72727  -0.01081   1.19143
  12   46047.5    217.2    -33.11008   0.31923  -0.03037   0.28858
  13   45524.1    219.7      5.49841   0.27723   0.03466   0.45511
  14   47726.5    209.5    -65.60051  -0.03470  -0.17422  -0.00340
  15   47646.1    209.9    182.55609   0.28535   0.27446   0.38373
  16   48193.0    207.5    -166.59762  -0.48481   0.02010  -0.63811
  17   48865.2    204.6     39.46020   0.37986  -0.16428   0.72459
  18   47701.0    209.6    -77.00350  -0.22608   0.17528  -0.15890
  19   52679.2    189.8      8.90692   0.10191  -0.16393  -0.09873
  20   52087.1    192.0    -31.21073   0.25534  -0.05649   0.33986
  21   53266.8    187.7     56.58927  -0.06489  -0.12369  -0.10591
  22   53155.4    188.1    150.89754   0.20014   0.46588  -0.01784
  23   52114.8    191.9     31.96418   0.34627  -0.03508   0.09111
  24   50759.8    197.0    -17.86908  -0.08366  -0.03633  -0.47291
  25   53782.0    185.9     14.00402  -0.15327   0.41414  -0.19272
  26   52812.5    189.3     68.30438   0.15182   0.10063  -0.15201
  27   51995.3    192.3    -40.73677  -0.14702  -0.00154   0.22721
  28   54350.7    184.0    -38.00448   0.09040   0.14356  -0.61948
  29   55349.5    180.7    -102.87299   0.18020  -0.01577  -0.84324
  30   54412.4    183.8    -16.03592   0.14424   0.11727   0.15306

Total run time:     6135.735 sec

           *** ORCA-CIS/TD-DFT FINISHED WITHOUT ERROR ***

Maximum memory used throughout the entire CIS-calculation: 2512.5 MB

-----------------------
CIS/TD-DFT TOTAL ENERGY
-----------------------

    E(SCF)  =  -1160.723222052 Eh
    DE(CIS) =      0.158351682 Eh (Root  1)
    ----------------------------- ---------
    E(tot)  =  -1160.564870369 Eh


-------------------------   --------------------
FINAL SINGLE POINT ENERGY     -1160.564870369495
-------------------------   --------------------


                            ***************************************
                            *     ORCA property calculations      *
                            ***************************************


  WARNING: The energy has been calculated at the MP2 level but the densities
           used in the property calculations are still SCF densities
           MP2 response densities have not been calculated 
           use %mp2 Density relaxed end
           or  %mp2 Density unrelaxed end

                                    ---------------------
                                    Active property flags
                                    ---------------------
   (+) Dipole Moment


------------------------------------------------------------------------------
                       ORCA ELECTRIC PROPERTIES CALCULATION
------------------------------------------------------------------------------

Dipole Moment Calculation                       ... on
Quadrupole Moment Calculation                   ... off
Polarizability Calculation                      ... off
GBWName                                         ... PTZ_2_M06L_def2TZVP_coords.gbw
Electron density                                ... PTZ_2_M06L_def2TZVP_coords.scfp
The origin for moment calculation is the CENTER OF MASS  = ( 0.031600,  0.013318 -0.029145)

-------------
DIPOLE MOMENT
-------------
                                X             Y             Z
Electronic contribution:      4.13317       0.86696      -3.57878
Nuclear contribution   :     -4.55042      -1.91781       4.19685
                        -----------------------------------------
Total Dipole Moment    :     -0.41725      -1.05085       0.61807
                        -----------------------------------------
Magnitude (a.u.)       :      1.28857
Magnitude (Debye)      :      3.27527



--------------------
Rotational spectrum 
--------------------
 
Rotational constants in cm-1:     0.012999     0.011538     0.007110 
Rotational constants in MHz :   389.700536   345.907776   213.155237 

 Dipole components along the rotational axes: 
x,y,z [a.u.] :    -0.404556     1.057380     0.615372 
x,y,z [Debye]:    -1.028299     2.687647     1.564151 

 

Timings for individual modules:

Sum of individual times         ...     6681.691 sec (= 111.362 min)
GTO integral calculation        ...        1.389 sec (=   0.023 min)   0.0 %
SCF iterations                  ...      329.039 sec (=   5.484 min)   4.9 %
MP2 module                      ...      215.151 sec (=   3.586 min)   3.2 %
CIS module                      ...     6136.112 sec (= 102.269 min)  91.8 %
                             ****ORCA TERMINATED NORMALLY****
TOTAL RUN TIME: 0 days 1 hours 51 minutes 23 seconds 17 msec
