 Entering Gaussian System, Link 0=g09
 Input=/home/png4rjv/fotokatalizis/benchmark/OPCs/NCE_3_B3LYP-D3_def2TZVP.gjf
 Output=/home/png4rjv/fotokatalizis/benchmark/OPCs/NCE_3_B3LYP-D3_def2TZVP.log
 Initial command:
 /opt/nce/packages/global/g09/l1.exe "/home/png4rjv/fotokatalizis/benchmark/OPCs/NCE_3_B3LYP-D3_def2TZVP/Gau-60339.inp" -scrdir="/home/png4rjv/fotokatalizis/benchmark/OPCs/NCE_3_B3LYP-D3_def2TZVP/"
 Default is to use a total of  12 processors:
                               12 via shared-memory
                                1 via Linda
 Entering Link 1 = /opt/nce/packages/global/g09/l1.exe PID=     60340.
  
 Copyright (c) 1988,1990,1992,1993,1995,1998,2003,2009,2015,
            Gaussian, Inc.  All Rights Reserved.
  
 This is part of the Gaussian(R) 09 program.  It is based on
 the Gaussian(R) 03 system (copyright 2003, Gaussian, Inc.),
 the Gaussian(R) 98 system (copyright 1998, Gaussian, Inc.),
 the Gaussian(R) 94 system (copyright 1995, Gaussian, Inc.),
 the Gaussian 92(TM) system (copyright 1992, Gaussian, Inc.),
 the Gaussian 90(TM) system (copyright 1990, Gaussian, Inc.),
 the Gaussian 88(TM) system (copyright 1988, Gaussian, Inc.),
 the Gaussian 86(TM) system (copyright 1986, Carnegie Mellon
 University), and the Gaussian 82(TM) system (copyright 1983,
 Carnegie Mellon University). Gaussian is a federally registered
 trademark of Gaussian, Inc.
  
 This software contains proprietary and confidential information,
 including trade secrets, belonging to Gaussian, Inc.
  
 This software is provided under written license and may be
 used, copied, transmitted, or stored only in accord with that
 written license.
  
 The following legend is applicable only to US Government
 contracts under FAR:
  
                    RESTRICTED RIGHTS LEGEND
  
 Use, reproduction and disclosure by the US Government is
 subject to restrictions as set forth in subparagraphs (a)
 and (c) of the Commercial Computer Software - Restricted
 Rights clause in FAR 52.227-19.
  
 Gaussian, Inc.
 340 Quinnipiac St., Bldg. 40, Wallingford CT 06492
  
  
 ---------------------------------------------------------------
 Warning -- This program may not be used in any manner that
 competes with the business of Gaussian, Inc. or will provide
 assistance to any competitor of Gaussian, Inc.  The licensee
 of this program is prohibited from giving any competitor of
 Gaussian, Inc. access to this program.  By using this program,
 the user acknowledges that Gaussian, Inc. is engaged in the
 business of creating and licensing software in the field of
 computational chemistry and represents and warrants to the
 licensee that it is not a competitor of Gaussian, Inc. and that
 it will not use this program in any manner prohibited above.
 ---------------------------------------------------------------
  

 Cite this work as:
 Gaussian 09, Revision E.01,
 M. J. Frisch, G. W. Trucks, H. B. Schlegel, G. E. Scuseria, 
 M. A. Robb, J. R. Cheeseman, G. Scalmani, V. Barone, B. Mennucci, 
 G. A. Petersson, H. Nakatsuji, M. Caricato, X. Li, H. P. Hratchian, 
 A. F. Izmaylov, J. Bloino, G. Zheng, J. L. Sonnenberg, M. Hada, 
 M. Ehara, K. Toyota, R. Fukuda, J. Hasegawa, M. Ishida, T. Nakajima, 
 Y. Honda, O. Kitao, H. Nakai, T. Vreven, J. A. Montgomery, Jr., 
 J. E. Peralta, F. Ogliaro, M. Bearpark, J. J. Heyd, E. Brothers, 
 K. N. Kudin, V. N. Staroverov, T. Keith, R. Kobayashi, J. Normand, 
 K. Raghavachari, A. Rendell, J. C. Burant, S. S. Iyengar, J. Tomasi, 
 M. Cossi, N. Rega, J. M. Millam, M. Klene, J. E. Knox, J. B. Cross, 
 V. Bakken, C. Adamo, J. Jaramillo, R. Gomperts, R. E. Stratmann, 
 O. Yazyev, A. J. Austin, R. Cammi, C. Pomelli, J. W. Ochterski, 
 R. L. Martin, K. Morokuma, V. G. Zakrzewski, G. A. Voth, 
 P. Salvador, J. J. Dannenberg, S. Dapprich, A. D. Daniels, 
 O. Farkas, J. B. Foresman, J. V. Ortiz, J. Cioslowski, 
 and D. J. Fox, Gaussian, Inc., Wallingford CT, 2013.
 
 ******************************************
 Gaussian 09:  ES64L-G09RevE.01 30-Nov-2015
                14-Feb-2021 
 ******************************************
 %chk=cp.chk
 Default route:  MaxDisk=500GB
 ----------------------------------------------------------------------
 #p b3lyp/def2TZVP opt freq=noraman nosymm int=ultrafine scrf=(SMD,solv
 ent=Acetonitrile) EmpiricalDispersion=GD3BJ
 ----------------------------------------------------------------------
 1/14=-1,18=20,19=15,26=4,38=1/1,3;
 2/9=110,12=2,15=1,17=6,18=5,40=1/2;
 3/5=44,7=101,11=2,16=1,25=1,30=1,70=32201,71=1,72=2,74=-5,75=-5,124=41/1,2,3;
 4//1;
 5/5=2,38=5,53=2/2;
 6/7=2,8=2,9=2,10=2,28=1/1;
 7/30=1/1,2,3,16;
 1/14=-1,18=20,19=15,26=4/3(2);
 2/9=110,15=1/2;
 99//99;
 2/9=110,15=1/2;
 3/5=44,7=101,11=2,16=1,25=1,30=1,70=32205,71=1,72=2,74=-5,75=-5,124=41/1,2,3;
 4/5=5,16=3,69=1/1;
 5/5=2,38=5,53=2/2;
 7/30=1/1,2,3,16;
 1/14=-1,18=20,19=15,26=4/3(-5);
 2/9=110,15=1/2;
 6/7=2,8=2,9=2,10=2,19=2,28=1/1;
 99/9=1/99;
 Leave Link    1 at Sun Feb 14 19:35:17 2021, MaxMem=           0 cpu:         1.0
 (Enter /opt/nce/packages/global/g09/l101.exe)
 -----
 Title
 -----
 Symbolic Z-matrix:
 Charge =  0 Multiplicity = 1
 C                     5.22431   3.78773  -0.00001 
 C                     3.85226   3.6795   -0.00001 
 C                     3.22243   2.40223   0.00001 
 C                     4.03518   1.22012   0.00003 
 C                     5.4529    1.37089   0.00002 
 C                     6.03129   2.62119   0.00001 
 C                     1.81753   2.27406   0.00001 
 C                     3.40575  -0.06442   0.00004 
 C                     2.00957  -0.15217   0.00006 
 C                     1.19775   1.03538   0.00004 
 C                    -0.25946   0.89257   0.00003 
 C                    -0.80578  -0.40192   0.00005 
 C                     1.35998  -1.49127   0.00012 
 H                     1.22237   3.18746  -0.00002 
 H                     5.69664   4.77289  -0.00002 
 H                     3.22348   4.5733   -0.00002 
 H                     6.07735   0.47797   0.00003 
 H                     7.11937   2.71699   0.00001 
 C                     4.29589  -1.2642    0. 
 C                     4.74633  -1.81064  -1.20858 
 C                     4.74644  -1.81071   1.20852 
 C                     5.62192  -2.89767  -1.2084 
 H                     4.39981  -1.38363  -2.15242 
 C                     5.62202  -2.89773   1.2082 
 H                     4.39999  -1.38374   2.15241 
 C                     6.06081  -3.44571  -0.00014 
 H                     5.9615   -3.32009  -2.15722 
 H                     5.9617   -3.32022   2.15695 
 H                     6.74455  -4.29788  -0.00017 
 O                     1.91882  -2.55371   0.00018 
 O                    -0.01586  -1.51219   0.00011 
 C                    -1.16781   1.97142  -0.00006 
 C                    -2.18149  -0.62772   0.00004 
 C                    -3.07111   0.45835  -0.00003 
 C                    -2.5383    1.77025  -0.00009 
 H                    -3.21995   2.62165  -0.00018 
 H                    -0.78924   2.99376  -0.00013 
 H                    -2.54507  -1.65505   0.0001 
 C                    -4.47871   0.24503  -0.00007 
 C                    -5.68485   0.06699  -0.00004 
 C                    -7.09459  -0.14606  -0.00002 
 C                    -7.98648   0.94766   0.00002 
 C                    -7.62184  -1.4552   -0.00005 
 C                    -9.3634    0.73372   0.00004 
 H                    -7.58297   1.96185   0.00004 
 C                    -9.00025  -1.65923  -0.00003 
 H                    -6.93558  -2.30395  -0.00009 
 C                    -9.87539  -0.56801   0.00001 
 H                    -10.04354   1.58878   0.00007 
 H                    -9.39597  -2.67759  -0.00006 
 H                    -10.95549  -0.73193   0.00002 
 
 NAtoms=     51 NQM=       51 NQMF=       0 NMMI=      0 NMMIF=      0
                NMic=       0 NMicF=      0.
                    Isotopes and Nuclear Properties:
 (Nuclear quadrupole moments (NQMom) in fm**2, nuclear magnetic moments (NMagM)
  in nuclear magnetons)

  Atom         1           2           3           4           5           6           7           8           9          10
 IAtWgt=          12          12          12          12          12          12          12          12          12          12
 AtmWgt=  12.0000000  12.0000000  12.0000000  12.0000000  12.0000000  12.0000000  12.0000000  12.0000000  12.0000000  12.0000000
 NucSpn=           0           0           0           0           0           0           0           0           0           0
 AtZEff=   0.0000000   0.0000000   0.0000000   0.0000000   0.0000000   0.0000000   0.0000000   0.0000000   0.0000000   0.0000000
 NQMom=    0.0000000   0.0000000   0.0000000   0.0000000   0.0000000   0.0000000   0.0000000   0.0000000   0.0000000   0.0000000
 NMagM=    0.0000000   0.0000000   0.0000000   0.0000000   0.0000000   0.0000000   0.0000000   0.0000000   0.0000000   0.0000000
 AtZNuc=   6.0000000   6.0000000   6.0000000   6.0000000   6.0000000   6.0000000   6.0000000   6.0000000   6.0000000   6.0000000

  Atom        11          12          13          14          15          16          17          18          19          20
 IAtWgt=          12          12          12           1           1           1           1           1          12          12
 AtmWgt=  12.0000000  12.0000000  12.0000000   1.0078250   1.0078250   1.0078250   1.0078250   1.0078250  12.0000000  12.0000000
 NucSpn=           0           0           0           1           1           1           1           1           0           0
 AtZEff=   0.0000000   0.0000000   0.0000000   0.0000000   0.0000000   0.0000000   0.0000000   0.0000000   0.0000000   0.0000000
 NQMom=    0.0000000   0.0000000   0.0000000   0.0000000   0.0000000   0.0000000   0.0000000   0.0000000   0.0000000   0.0000000
 NMagM=    0.0000000   0.0000000   0.0000000   2.7928460   2.7928460   2.7928460   2.7928460   2.7928460   0.0000000   0.0000000
 AtZNuc=   6.0000000   6.0000000   6.0000000   1.0000000   1.0000000   1.0000000   1.0000000   1.0000000   6.0000000   6.0000000

  Atom        21          22          23          24          25          26          27          28          29          30
 IAtWgt=          12          12           1          12           1          12           1           1           1          16
 AtmWgt=  12.0000000  12.0000000   1.0078250  12.0000000   1.0078250  12.0000000   1.0078250   1.0078250   1.0078250  15.9949146
 NucSpn=           0           0           1           0           1           0           1           1           1           0
 AtZEff=   0.0000000   0.0000000   0.0000000   0.0000000   0.0000000   0.0000000   0.0000000   0.0000000   0.0000000   0.0000000
 NQMom=    0.0000000   0.0000000   0.0000000   0.0000000   0.0000000   0.0000000   0.0000000   0.0000000   0.0000000   0.0000000
 NMagM=    0.0000000   0.0000000   2.7928460   0.0000000   2.7928460   0.0000000   2.7928460   2.7928460   2.7928460   0.0000000
 AtZNuc=   6.0000000   6.0000000   1.0000000   6.0000000   1.0000000   6.0000000   1.0000000   1.0000000   1.0000000   8.0000000

  Atom        31          32          33          34          35          36          37          38          39          40
 IAtWgt=          16          12          12          12          12           1           1           1          12          12
 AtmWgt=  15.9949146  12.0000000  12.0000000  12.0000000  12.0000000   1.0078250   1.0078250   1.0078250  12.0000000  12.0000000
 NucSpn=           0           0           0           0           0           1           1           1           0           0
 AtZEff=   0.0000000   0.0000000   0.0000000   0.0000000   0.0000000   0.0000000   0.0000000   0.0000000   0.0000000   0.0000000
 NQMom=    0.0000000   0.0000000   0.0000000   0.0000000   0.0000000   0.0000000   0.0000000   0.0000000   0.0000000   0.0000000
 NMagM=    0.0000000   0.0000000   0.0000000   0.0000000   0.0000000   2.7928460   2.7928460   2.7928460   0.0000000   0.0000000
 AtZNuc=   8.0000000   6.0000000   6.0000000   6.0000000   6.0000000   1.0000000   1.0000000   1.0000000   6.0000000   6.0000000

  Atom        41          42          43          44          45          46          47          48          49          50
 IAtWgt=          12          12          12          12           1          12           1          12           1           1
 AtmWgt=  12.0000000  12.0000000  12.0000000  12.0000000   1.0078250  12.0000000   1.0078250  12.0000000   1.0078250   1.0078250
 NucSpn=           0           0           0           0           1           0           1           0           1           1
 AtZEff=   0.0000000   0.0000000   0.0000000   0.0000000   0.0000000   0.0000000   0.0000000   0.0000000   0.0000000   0.0000000
 NQMom=    0.0000000   0.0000000   0.0000000   0.0000000   0.0000000   0.0000000   0.0000000   0.0000000   0.0000000   0.0000000
 NMagM=    0.0000000   0.0000000   0.0000000   0.0000000   2.7928460   0.0000000   2.7928460   0.0000000   2.7928460   2.7928460
 AtZNuc=   6.0000000   6.0000000   6.0000000   6.0000000   1.0000000   6.0000000   1.0000000   6.0000000   1.0000000   1.0000000

  Atom        51
 IAtWgt=           1
 AtmWgt=   1.0078250
 NucSpn=           1
 AtZEff=   0.0000000
 NQMom=    0.0000000
 NMagM=    2.7928460
 AtZNuc=   1.0000000
 Leave Link  101 at Sun Feb 14 19:35:17 2021, MaxMem=  5242880000 cpu:         4.3
 (Enter /opt/nce/packages/global/g09/l103.exe)

 GradGradGradGradGradGradGradGradGradGradGradGradGradGradGradGradGradGrad
 Berny optimization.
 Initialization pass.
                           ----------------------------
                           !    Initial Parameters    !
                           ! (Angstroms and Degrees)  !
 --------------------------                            --------------------------
 ! Name  Definition              Value          Derivative Info.                !
 --------------------------------------------------------------------------------
 ! R1    R(1,2)                  1.3763         estimate D2E/DX2                !
 ! R2    R(1,6)                  1.4185         estimate D2E/DX2                !
 ! R3    R(1,15)                 1.0925         estimate D2E/DX2                !
 ! R4    R(2,3)                  1.4241         estimate D2E/DX2                !
 ! R5    R(2,16)                 1.0928         estimate D2E/DX2                !
 ! R6    R(3,4)                  1.4346         estimate D2E/DX2                !
 ! R7    R(3,7)                  1.4107         estimate D2E/DX2                !
 ! R8    R(4,5)                  1.4257         estimate D2E/DX2                !
 ! R9    R(4,8)                  1.4305         estimate D2E/DX2                !
 ! R10   R(5,6)                  1.3776         estimate D2E/DX2                !
 ! R11   R(5,17)                 1.0896         estimate D2E/DX2                !
 ! R12   R(6,18)                 1.0923         estimate D2E/DX2                !
 ! R13   R(7,10)                 1.3851         estimate D2E/DX2                !
 ! R14   R(7,14)                 1.0902         estimate D2E/DX2                !
 ! R15   R(8,9)                  1.3989         estimate D2E/DX2                !
 ! R16   R(8,19)                 1.4939         estimate D2E/DX2                !
 ! R17   R(9,10)                 1.4385         estimate D2E/DX2                !
 ! R18   R(9,13)                 1.4883         estimate D2E/DX2                !
 ! R19   R(10,11)                1.4642         estimate D2E/DX2                !
 ! R20   R(11,12)                1.405          estimate D2E/DX2                !
 ! R21   R(11,32)                1.4103         estimate D2E/DX2                !
 ! R22   R(12,31)                1.3626         estimate D2E/DX2                !
 ! R23   R(12,33)                1.3941         estimate D2E/DX2                !
 ! R24   R(13,30)                1.2004         estimate D2E/DX2                !
 ! R25   R(13,31)                1.376          estimate D2E/DX2                !
 ! R26   R(19,20)                1.4008         estimate D2E/DX2                !
 ! R27   R(19,21)                1.4008         estimate D2E/DX2                !
 ! R28   R(20,22)                1.3958         estimate D2E/DX2                !
 ! R29   R(20,23)                1.0924         estimate D2E/DX2                !
 ! R30   R(21,24)                1.3958         estimate D2E/DX2                !
 ! R31   R(21,25)                1.0924         estimate D2E/DX2                !
 ! R32   R(22,26)                1.3974         estimate D2E/DX2                !
 ! R33   R(22,27)                1.0927         estimate D2E/DX2                !
 ! R34   R(24,26)                1.3975         estimate D2E/DX2                !
 ! R35   R(24,28)                1.0927         estimate D2E/DX2                !
 ! R36   R(26,29)                1.0926         estimate D2E/DX2                !
 ! R37   R(32,35)                1.3852         estimate D2E/DX2                !
 ! R38   R(32,37)                1.0902         estimate D2E/DX2                !
 ! R39   R(33,34)                1.4039         estimate D2E/DX2                !
 ! R40   R(33,38)                1.0898         estimate D2E/DX2                !
 ! R41   R(34,35)                1.416          estimate D2E/DX2                !
 ! R42   R(34,39)                1.4237         estimate D2E/DX2                !
 ! R43   R(35,36)                1.0907         estimate D2E/DX2                !
 ! R44   R(39,40)                1.2192         estimate D2E/DX2                !
 ! R45   R(40,41)                1.4257         estimate D2E/DX2                !
 ! R46   R(41,42)                1.4113         estimate D2E/DX2                !
 ! R47   R(41,43)                1.4113         estimate D2E/DX2                !
 ! R48   R(42,44)                1.3934         estimate D2E/DX2                !
 ! R49   R(42,45)                1.0915         estimate D2E/DX2                !
 ! R50   R(43,46)                1.3934         estimate D2E/DX2                !
 ! R51   R(43,47)                1.0915         estimate D2E/DX2                !
 ! R52   R(44,48)                1.3988         estimate D2E/DX2                !
 ! R53   R(44,49)                1.0926         estimate D2E/DX2                !
 ! R54   R(46,48)                1.3988         estimate D2E/DX2                !
 ! R55   R(46,50)                1.0925         estimate D2E/DX2                !
 ! R56   R(48,51)                1.0925         estimate D2E/DX2                !
 ! A1    A(2,1,6)              120.1643         estimate D2E/DX2                !
 ! A2    A(2,1,15)             120.1254         estimate D2E/DX2                !
 ! A3    A(6,1,15)             119.7103         estimate D2E/DX2                !
 ! A4    A(1,2,3)              120.7583         estimate D2E/DX2                !
 ! A5    A(1,2,16)             120.6157         estimate D2E/DX2                !
 ! A6    A(3,2,16)             118.626          estimate D2E/DX2                !
 ! A7    A(2,3,4)              119.2417         estimate D2E/DX2                !
 ! A8    A(2,3,7)              121.4608         estimate D2E/DX2                !
 ! A9    A(4,3,7)              119.2975         estimate D2E/DX2                !
 ! A10   A(3,4,5)              118.4398         estimate D2E/DX2                !
 ! A11   A(3,4,8)              119.3847         estimate D2E/DX2                !
 ! A12   A(5,4,8)              122.1755         estimate D2E/DX2                !
 ! A13   A(4,5,6)              120.8955         estimate D2E/DX2                !
 ! A14   A(4,5,17)             118.8964         estimate D2E/DX2                !
 ! A15   A(6,5,17)             120.2081         estimate D2E/DX2                !
 ! A16   A(1,6,5)              120.5004         estimate D2E/DX2                !
 ! A17   A(1,6,18)             119.6427         estimate D2E/DX2                !
 ! A18   A(5,6,18)             119.8569         estimate D2E/DX2                !
 ! A19   A(3,7,10)             121.7937         estimate D2E/DX2                !
 ! A20   A(3,7,14)             117.8751         estimate D2E/DX2                !
 ! A21   A(10,7,14)            120.3312         estimate D2E/DX2                !
 ! A22   A(4,8,9)              119.7016         estimate D2E/DX2                !
 ! A23   A(4,8,19)             117.3222         estimate D2E/DX2                !
 ! A24   A(9,8,19)             122.9763         estimate D2E/DX2                !
 ! A25   A(8,9,10)             120.7604         estimate D2E/DX2                !
 ! A26   A(8,9,13)             119.4741         estimate D2E/DX2                !
 ! A27   A(10,9,13)            119.7655         estimate D2E/DX2                !
 ! A28   A(7,10,9)             119.0621         estimate D2E/DX2                !
 ! A29   A(7,10,11)            122.1784         estimate D2E/DX2                !
 ! A30   A(9,10,11)            118.7595         estimate D2E/DX2                !
 ! A31   A(10,11,12)           118.4786         estimate D2E/DX2                !
 ! A32   A(10,11,32)           124.4985         estimate D2E/DX2                !
 ! A33   A(12,11,32)           117.0228         estimate D2E/DX2                !
 ! A34   A(11,12,31)           121.6881         estimate D2E/DX2                !
 ! A35   A(11,12,33)           122.2025         estimate D2E/DX2                !
 ! A36   A(31,12,33)           116.1094         estimate D2E/DX2                !
 ! A37   A(9,13,30)            126.3782         estimate D2E/DX2                !
 ! A38   A(9,13,31)            116.7487         estimate D2E/DX2                !
 ! A39   A(30,13,31)           116.8731         estimate D2E/DX2                !
 ! A40   A(8,19,20)            120.326          estimate D2E/DX2                !
 ! A41   A(8,19,21)            120.3282         estimate D2E/DX2                !
 ! A42   A(20,19,21)           119.2582         estimate D2E/DX2                !
 ! A43   A(19,20,22)           120.3587         estimate D2E/DX2                !
 ! A44   A(19,20,23)           119.4054         estimate D2E/DX2                !
 ! A45   A(22,20,23)           120.234          estimate D2E/DX2                !
 ! A46   A(19,21,24)           120.3584         estimate D2E/DX2                !
 ! A47   A(19,21,25)           119.4047         estimate D2E/DX2                !
 ! A48   A(24,21,25)           120.2351         estimate D2E/DX2                !
 ! A49   A(20,22,26)           120.168          estimate D2E/DX2                !
 ! A50   A(20,22,27)           119.7289         estimate D2E/DX2                !
 ! A51   A(26,22,27)           120.103          estimate D2E/DX2                !
 ! A52   A(21,24,26)           120.1683         estimate D2E/DX2                !
 ! A53   A(21,24,28)           119.7304         estimate D2E/DX2                !
 ! A54   A(26,24,28)           120.1012         estimate D2E/DX2                !
 ! A55   A(22,26,24)           119.6837         estimate D2E/DX2                !
 ! A56   A(22,26,29)           120.1593         estimate D2E/DX2                !
 ! A57   A(24,26,29)           120.1569         estimate D2E/DX2                !
 ! A58   A(12,31,13)           124.5596         estimate D2E/DX2                !
 ! A59   A(11,32,35)           121.7451         estimate D2E/DX2                !
 ! A60   A(11,32,37)           119.5848         estimate D2E/DX2                !
 ! A61   A(35,32,37)           118.6702         estimate D2E/DX2                !
 ! A62   A(12,33,34)           120.0002         estimate D2E/DX2                !
 ! A63   A(12,33,38)           118.8104         estimate D2E/DX2                !
 ! A64   A(34,33,38)           121.1894         estimate D2E/DX2                !
 ! A65   A(33,34,35)           118.5745         estimate D2E/DX2                !
 ! A66   A(33,34,39)           120.7038         estimate D2E/DX2                !
 ! A67   A(35,34,39)           120.7216         estimate D2E/DX2                !
 ! A68   A(32,35,34)           120.4549         estimate D2E/DX2                !
 ! A69   A(32,35,36)           120.3308         estimate D2E/DX2                !
 ! A70   A(34,35,36)           119.2144         estimate D2E/DX2                !
 ! A71   A(40,41,42)           120.602          estimate D2E/DX2                !
 ! A72   A(40,41,43)           120.5312         estimate D2E/DX2                !
 ! A73   A(42,41,43)           118.8668         estimate D2E/DX2                !
 ! A74   A(41,42,44)           120.3642         estimate D2E/DX2                !
 ! A75   A(41,42,45)           119.1079         estimate D2E/DX2                !
 ! A76   A(44,42,45)           120.528          estimate D2E/DX2                !
 ! A77   A(41,43,46)           120.3569         estimate D2E/DX2                !
 ! A78   A(41,43,47)           119.1053         estimate D2E/DX2                !
 ! A79   A(46,43,47)           120.5377         estimate D2E/DX2                !
 ! A80   A(42,44,48)           120.3025         estimate D2E/DX2                !
 ! A81   A(42,44,49)           119.668          estimate D2E/DX2                !
 ! A82   A(48,44,49)           120.0295         estimate D2E/DX2                !
 ! A83   A(43,46,48)           120.3093         estimate D2E/DX2                !
 ! A84   A(43,46,50)           119.6554         estimate D2E/DX2                !
 ! A85   A(48,46,50)           120.0353         estimate D2E/DX2                !
 ! A86   A(44,48,46)           119.8003         estimate D2E/DX2                !
 ! A87   A(44,48,51)           120.1003         estimate D2E/DX2                !
 ! A88   A(46,48,51)           120.0994         estimate D2E/DX2                !
 ! A89   L(34,39,40,36,-1)     179.7793         estimate D2E/DX2                !
 ! A90   L(39,40,41,47,-1)     179.8028         estimate D2E/DX2                !
 ! A91   L(34,39,40,36,-2)     180.0034         estimate D2E/DX2                !
 ! A92   L(39,40,41,47,-2)     180.0004         estimate D2E/DX2                !
 ! D1    D(6,1,2,3)              0.0            estimate D2E/DX2                !
 ! D2    D(6,1,2,16)           180.0            estimate D2E/DX2                !
 ! D3    D(15,1,2,3)          -180.0            estimate D2E/DX2                !
 ! D4    D(15,1,2,16)            0.0            estimate D2E/DX2                !
 ! D5    D(2,1,6,5)              0.0002         estimate D2E/DX2                !
 ! D6    D(2,1,6,18)          -179.9999         estimate D2E/DX2                !
 ! D7    D(15,1,6,5)          -179.9998         estimate D2E/DX2                !
 ! D8    D(15,1,6,18)            0.0001         estimate D2E/DX2                !
 ! D9    D(1,2,3,4)             -0.0001         estimate D2E/DX2                !
 ! D10   D(1,2,3,7)           -179.9997         estimate D2E/DX2                !
 ! D11   D(16,2,3,4)           179.9999         estimate D2E/DX2                !
 ! D12   D(16,2,3,7)             0.0003         estimate D2E/DX2                !
 ! D13   D(2,3,4,5)              0.0            estimate D2E/DX2                !
 ! D14   D(2,3,4,8)           -180.0            estimate D2E/DX2                !
 ! D15   D(7,3,4,5)            179.9996         estimate D2E/DX2                !
 ! D16   D(7,3,4,8)             -0.0004         estimate D2E/DX2                !
 ! D17   D(2,3,7,10)          -179.9994         estimate D2E/DX2                !
 ! D18   D(2,3,7,14)             0.0003         estimate D2E/DX2                !
 ! D19   D(4,3,7,10)             0.001          estimate D2E/DX2                !
 ! D20   D(4,3,7,14)          -179.9993         estimate D2E/DX2                !
 ! D21   D(3,4,5,6)              0.0001         estimate D2E/DX2                !
 ! D22   D(3,4,5,17)          -179.9998         estimate D2E/DX2                !
 ! D23   D(8,4,5,6)           -179.9998         estimate D2E/DX2                !
 ! D24   D(8,4,5,17)             0.0002         estimate D2E/DX2                !
 ! D25   D(3,4,8,9)             -0.0004         estimate D2E/DX2                !
 ! D26   D(3,4,8,19)           179.9976         estimate D2E/DX2                !
 ! D27   D(5,4,8,9)            179.9995         estimate D2E/DX2                !
 ! D28   D(5,4,8,19)            -0.0024         estimate D2E/DX2                !
 ! D29   D(4,5,6,1)             -0.0002         estimate D2E/DX2                !
 ! D30   D(4,5,6,18)           179.9998         estimate D2E/DX2                !
 ! D31   D(17,5,6,1)           179.9997         estimate D2E/DX2                !
 ! D32   D(17,5,6,18)           -0.0003         estimate D2E/DX2                !
 ! D33   D(3,7,10,9)            -0.0007         estimate D2E/DX2                !
 ! D34   D(3,7,10,11)         -179.9998         estimate D2E/DX2                !
 ! D35   D(14,7,10,9)          179.9995         estimate D2E/DX2                !
 ! D36   D(14,7,10,11)           0.0004         estimate D2E/DX2                !
 ! D37   D(4,8,9,10)             0.0007         estimate D2E/DX2                !
 ! D38   D(4,8,9,13)          -179.998          estimate D2E/DX2                !
 ! D39   D(19,8,9,10)         -179.9972         estimate D2E/DX2                !
 ! D40   D(19,8,9,13)            0.0041         estimate D2E/DX2                !
 ! D41   D(4,8,19,20)          -88.2848         estimate D2E/DX2                !
 ! D42   D(4,8,19,21)           88.2857         estimate D2E/DX2                !
 ! D43   D(9,8,19,20)           91.7132         estimate D2E/DX2                !
 ! D44   D(9,8,19,21)          -91.7163         estimate D2E/DX2                !
 ! D45   D(8,9,10,7)            -0.0002         estimate D2E/DX2                !
 ! D46   D(8,9,10,11)          179.999          estimate D2E/DX2                !
 ! D47   D(13,9,10,7)          179.9985         estimate D2E/DX2                !
 ! D48   D(13,9,10,11)          -0.0023         estimate D2E/DX2                !
 ! D49   D(8,9,13,30)            0.0012         estimate D2E/DX2                !
 ! D50   D(8,9,13,31)         -179.9993         estimate D2E/DX2                !
 ! D51   D(10,9,13,30)        -179.9975         estimate D2E/DX2                !
 ! D52   D(10,9,13,31)           0.002          estimate D2E/DX2                !
 ! D53   D(7,10,11,12)         179.9997         estimate D2E/DX2                !
 ! D54   D(7,10,11,32)           0.0026         estimate D2E/DX2                !
 ! D55   D(9,10,11,12)           0.0006         estimate D2E/DX2                !
 ! D56   D(9,10,11,32)        -179.9966         estimate D2E/DX2                !
 ! D57   D(10,11,12,31)          0.0015         estimate D2E/DX2                !
 ! D58   D(10,11,12,33)       -179.9998         estimate D2E/DX2                !
 ! D59   D(32,11,12,31)        179.9989         estimate D2E/DX2                !
 ! D60   D(32,11,12,33)         -0.0025         estimate D2E/DX2                !
 ! D61   D(10,11,32,35)        179.9989         estimate D2E/DX2                !
 ! D62   D(10,11,32,37)          0.0002         estimate D2E/DX2                !
 ! D63   D(12,11,32,35)          0.0017         estimate D2E/DX2                !
 ! D64   D(12,11,32,37)       -179.997          estimate D2E/DX2                !
 ! D65   D(11,12,31,13)         -0.002          estimate D2E/DX2                !
 ! D66   D(33,12,31,13)        179.9993         estimate D2E/DX2                !
 ! D67   D(11,12,33,34)          0.0014         estimate D2E/DX2                !
 ! D68   D(11,12,33,38)       -179.9975         estimate D2E/DX2                !
 ! D69   D(31,12,33,34)       -179.9999         estimate D2E/DX2                !
 ! D70   D(31,12,33,38)          0.0012         estimate D2E/DX2                !
 ! D71   D(9,13,31,12)           0.0002         estimate D2E/DX2                !
 ! D72   D(30,13,31,12)        179.9997         estimate D2E/DX2                !
 ! D73   D(8,19,20,22)         177.3602         estimate D2E/DX2                !
 ! D74   D(8,19,20,23)          -3.1372         estimate D2E/DX2                !
 ! D75   D(21,19,20,22)          0.7532         estimate D2E/DX2                !
 ! D76   D(21,19,20,23)       -179.7442         estimate D2E/DX2                !
 ! D77   D(8,19,21,24)        -177.3601         estimate D2E/DX2                !
 ! D78   D(8,19,21,25)           3.1374         estimate D2E/DX2                !
 ! D79   D(20,19,21,24)         -0.7531         estimate D2E/DX2                !
 ! D80   D(20,19,21,25)        179.7443         estimate D2E/DX2                !
 ! D81   D(19,20,22,26)         -0.2854         estimate D2E/DX2                !
 ! D82   D(19,20,22,27)        179.5884         estimate D2E/DX2                !
 ! D83   D(23,20,22,26)       -179.7838         estimate D2E/DX2                !
 ! D84   D(23,20,22,27)          0.0899         estimate D2E/DX2                !
 ! D85   D(19,21,24,26)          0.2852         estimate D2E/DX2                !
 ! D86   D(19,21,24,28)       -179.5882         estimate D2E/DX2                !
 ! D87   D(25,21,24,26)        179.7836         estimate D2E/DX2                !
 ! D88   D(25,21,24,28)         -0.0898         estimate D2E/DX2                !
 ! D89   D(20,22,26,24)         -0.19           estimate D2E/DX2                !
 ! D90   D(20,22,26,29)        179.8744         estimate D2E/DX2                !
 ! D91   D(27,22,26,24)        179.9367         estimate D2E/DX2                !
 ! D92   D(27,22,26,29)          0.0011         estimate D2E/DX2                !
 ! D93   D(21,24,26,22)          0.1901         estimate D2E/DX2                !
 ! D94   D(21,24,26,29)       -179.8743         estimate D2E/DX2                !
 ! D95   D(28,24,26,22)       -179.9369         estimate D2E/DX2                !
 ! D96   D(28,24,26,29)         -0.0013         estimate D2E/DX2                !
 ! D97   D(11,32,35,34)          0.0001         estimate D2E/DX2                !
 ! D98   D(11,32,35,36)       -179.999          estimate D2E/DX2                !
 ! D99   D(37,32,35,34)        179.9988         estimate D2E/DX2                !
 ! D100  D(37,32,35,36)         -0.0003         estimate D2E/DX2                !
 ! D101  D(12,33,34,35)          0.0005         estimate D2E/DX2                !
 ! D102  D(12,33,34,39)        179.9986         estimate D2E/DX2                !
 ! D103  D(38,33,34,35)        179.9994         estimate D2E/DX2                !
 ! D104  D(38,33,34,39)         -0.0024         estimate D2E/DX2                !
 ! D105  D(33,34,35,32)         -0.0013         estimate D2E/DX2                !
 ! D106  D(33,34,35,36)        179.9979         estimate D2E/DX2                !
 ! D107  D(39,34,35,32)       -179.9994         estimate D2E/DX2                !
 ! D108  D(39,34,35,36)         -0.0002         estimate D2E/DX2                !
 ! D109  D(33,34,41,42)        179.995          estimate D2E/DX2                !
 ! D110  D(33,34,41,43)         -0.0044         estimate D2E/DX2                !
 ! D111  D(35,34,41,42)         -0.0049         estimate D2E/DX2                !
 ! D112  D(35,34,41,43)        179.9957         estimate D2E/DX2                !
 ! D113  D(40,41,42,44)        180.0            estimate D2E/DX2                !
 ! D114  D(40,41,42,45)         -0.0001         estimate D2E/DX2                !
 ! D115  D(43,41,42,44)          0.0002         estimate D2E/DX2                !
 ! D116  D(43,41,42,45)       -179.9999         estimate D2E/DX2                !
 ! D117  D(40,41,43,46)       -179.9998         estimate D2E/DX2                !
 ! D118  D(40,41,43,47)         -0.0002         estimate D2E/DX2                !
 ! D119  D(42,41,43,46)         -0.0001         estimate D2E/DX2                !
 ! D120  D(42,41,43,47)        179.9996         estimate D2E/DX2                !
 ! D121  D(41,42,44,48)         -0.0003         estimate D2E/DX2                !
 ! D122  D(41,42,44,49)        179.9999         estimate D2E/DX2                !
 ! D123  D(45,42,44,48)        179.9998         estimate D2E/DX2                !
 ! D124  D(45,42,44,49)          0.0            estimate D2E/DX2                !
 ! D125  D(41,43,46,48)          0.0            estimate D2E/DX2                !
 ! D126  D(41,43,46,50)        179.9998         estimate D2E/DX2                !
 ! D127  D(47,43,46,48)       -179.9997         estimate D2E/DX2                !
 ! D128  D(47,43,46,50)          0.0002         estimate D2E/DX2                !
 ! D129  D(42,44,48,46)          0.0002         estimate D2E/DX2                !
 ! D130  D(42,44,48,51)       -179.9999         estimate D2E/DX2                !
 ! D131  D(49,44,48,46)       -180.0            estimate D2E/DX2                !
 ! D132  D(49,44,48,51)         -0.0001         estimate D2E/DX2                !
 ! D133  D(43,46,48,44)          0.0            estimate D2E/DX2                !
 ! D134  D(43,46,48,51)       -179.9999         estimate D2E/DX2                !
 ! D135  D(50,46,48,44)       -179.9999         estimate D2E/DX2                !
 ! D136  D(50,46,48,51)          0.0002         estimate D2E/DX2                !
 --------------------------------------------------------------------------------
 Trust Radius=3.00D-01 FncErr=1.00D-07 GrdErr=1.00D-06
 Number of steps in this run=    294 maximum allowed number of steps=    306.
 GradGradGradGradGradGradGradGradGradGradGradGradGradGradGradGradGradGrad

 Leave Link  103 at Sun Feb 14 19:35:17 2021, MaxMem=  5242880000 cpu:         0.2
 (Enter /opt/nce/packages/global/g09/l202.exe)
 Symmetry turned off by external request.
 Stoichiometry    C31H18O2
 Framework group  C1[X(C31H18O2)]
 Deg. of freedom   147
 Full point group                 C1      NOp   1
                          Input orientation:                          
 ---------------------------------------------------------------------
 Center     Atomic      Atomic             Coordinates (Angstroms)
 Number     Number       Type             X           Y           Z
 ---------------------------------------------------------------------
      1          6           0        5.224308    3.787725   -0.000006
      2          6           0        3.852256    3.679499   -0.000005
      3          6           0        3.222427    2.402230    0.000012
      4          6           0        4.035179    1.220116    0.000026
      5          6           0        5.452899    1.370885    0.000023
      6          6           0        6.031286    2.621188    0.000010
      7          6           0        1.817526    2.274063    0.000007
      8          6           0        3.405748   -0.064419    0.000043
      9          6           0        2.009568   -0.152171    0.000055
     10          6           0        1.197750    1.035379    0.000035
     11          6           0       -0.259462    0.892567    0.000026
     12          6           0       -0.805776   -0.401917    0.000050
     13          6           0        1.359983   -1.491267    0.000118
     14          1           0        1.222371    3.187457   -0.000016
     15          1           0        5.696644    4.772891   -0.000019
     16          1           0        3.223481    4.573300   -0.000017
     17          1           0        6.077354    0.477968    0.000030
     18          1           0        7.119372    2.716991    0.000011
     19          6           0        4.295892   -1.264195    0.000002
     20          6           0        4.746333   -1.810639   -1.208575
     21          6           0        4.746441   -1.810705    1.208518
     22          6           0        5.621922   -2.897670   -1.208398
     23          1           0        4.399806   -1.383628   -2.152423
     24          6           0        5.622024   -2.897726    1.208200
     25          1           0        4.399987   -1.383735    2.152411
     26          6           0        6.060807   -3.445713   -0.000138
     27          1           0        5.961500   -3.320092   -2.157216
     28          1           0        5.961702   -3.320222    2.156949
     29          1           0        6.744553   -4.297875   -0.000167
     30          8           0        1.918821   -2.553705    0.000182
     31          8           0       -0.015856   -1.512185    0.000112
     32          6           0       -1.167806    1.971419   -0.000063
     33          6           0       -2.181494   -0.627722    0.000040
     34          6           0       -3.071112    0.458351   -0.000025
     35          6           0       -2.538298    1.770245   -0.000090
     36          1           0       -3.219948    2.621645   -0.000175
     37          1           0       -0.789237    2.993762   -0.000134
     38          1           0       -2.545073   -1.655050    0.000101
     39          6           0       -4.478714    0.245030   -0.000065
     40          6           0       -5.684846    0.066991   -0.000041
     41          6           0       -7.094587   -0.146063   -0.000022
     42          6           0       -7.986481    0.947661    0.000018
     43          6           0       -7.621842   -1.455199   -0.000048
     44          6           0       -9.363402    0.733718    0.000036
     45          1           0       -7.582966    1.961851    0.000036
     46          6           0       -9.000247   -1.659231   -0.000033
     47          1           0       -6.935580   -2.303947   -0.000086
     48          6           0       -9.875393   -0.568006    0.000009
     49          1           0      -10.043542    1.588775    0.000069
     50          1           0       -9.395971   -2.677592   -0.000056
     51          1           0      -10.955487   -0.731928    0.000022
 ---------------------------------------------------------------------
 Rotational constants (GHZ):      0.3103014      0.0464419      0.0409777
 Leave Link  202 at Sun Feb 14 19:35:17 2021, MaxMem=  5242880000 cpu:         0.1
 (Enter /opt/nce/packages/global/g09/l301.exe)
 Standard basis: def2TZVP (5D, 7F)
 Ernie: Thresh=  0.10000D-02 Tol=  0.10000D-05 Strict=F.
  1131 basis functions,  1827 primitive gaussians,  1296 cartesian basis functions
   110 alpha electrons      110 beta electrons
       nuclear repulsion energy      2773.5838448630 Hartrees.
 IExCor=  402 DFT=T Ex+Corr=B3LYP ExCW=0 ScaHFX=  0.200000
 ScaDFX=  0.800000  0.720000  1.000000  0.810000 ScalE2=  1.000000  1.000000
 IRadAn=      5 IRanWt=     -1 IRanGd=            0 ICorTp=0 IEmpDi=141
 NAtoms=   51 NActive=   51 NUniq=   51 SFac= 1.00D+00 NAtFMM=   60 NAOKFM=F Big=F
 Integral buffers will be    131072 words long.
 Raffenetti 2 integral format.
 Two-electron integral symmetry is turned off.
 R6Disp:  Grimme-D3(BJ) Dispersion energy=       -0.1297264012 Hartrees.
 Nuclear repulsion after empirical dispersion term =     2773.4541184618 Hartrees.
 ------------------------------------------------------------------------------
 Polarizable Continuum Model (PCM)
 =================================
 Model                : PCM (using non-symmetric T matrix).
 Atomic radii         : SMD-Coulomb.
 Polarization charges : Total charges.
 Charge compensation  : None.
 Solution method      : On-the-fly selection.
 Cavity type          : VdW (van der Waals Surface) (Alpha=1.000).
 Cavity algorithm     : GePol (No added spheres)
                        Default sphere list used, NSphG=   51.
                        Lebedev-Laikov grids with approx.  5.0 points / Ang**2.
                        Smoothing algorithm: York/Karplus (Gamma=1.0000).
                        Polarization charges: spherical gaussians, with
                                              point-specific exponents (IZeta= 3).
                        Self-potential: point-specific (ISelfS= 7).
                        Self-field    : sphere-specific E.n sum rule (ISelfD= 2).
 1st derivatives      : Analytical E(r).r(x)/FMM algorithm (CHGder, D1EAlg=3).
                        Cavity 1st derivative terms included.
 Solvent              : Acetonitrile, Eps=  35.688000 Eps(inf)=   1.806874
 ------------------------------------------------------------------------------
 GePol: Number of generator spheres                  =      51
 GePol: Total number of spheres                      =      51
 GePol: Number of exposed spheres                    =      51 (100.00%)
 GePol: Number of points                             =    4115
 GePol: Average weight of points                     =       0.11
 GePol: Minimum weight of points                     =   0.83D-11
 GePol: Maximum weight of points                     =    0.21559
 GePol: Number of points with low weight             =     243
 GePol: Fraction of low-weight points (<1% of avg)   =       5.91%
 GePol: Cavity surface area                          =    447.441 Ang**2
 GePol: Cavity volume                                =    446.088 Ang**3
 ------------------------------------------------------------------------------
 Atomic radii for non-electrostatic terms: SMD-CDS.
 ------------------------------------------------------------------------------
 PCM non-electrostatic energy =        -0.0121544802 Hartrees.
 Nuclear repulsion after PCM non-electrostatic terms =     2773.4419639817 Hartrees.
 Leave Link  301 at Sun Feb 14 19:35:17 2021, MaxMem=  5242880000 cpu:         1.6
 (Enter /opt/nce/packages/global/g09/l302.exe)
 NPDir=0 NMtPBC=     1 NCelOv=     1 NCel=       1 NClECP=     1 NCelD=      1
         NCelK=      1 NCelE2=     1 NClLst=     1 CellRange=     0.0.
 One-electron integrals computed using PRISM.
   1 Symmetry operations used in ECPInt.
 ECPInt:  NShTT=   94830 NPrTT=  296076 LenC2=   66296 LenP2D=  140417.
 LDataN:  DoStor=T MaxTD1= 6 Len=  172
 NBasis=  1131 RedAO= T EigKep=  2.80D-06  NBF=  1131
 NBsUse=  1131 1.00D-06 EigRej= -1.00D+00 NBFU=  1131
 Precomputing XC quadrature grid using
 IXCGrd= 4 IRadAn=           5 IRanWt=          -1 IRanGd=           0 AccXCQ= 0.00D+00.
 Generated NRdTot=       0 NPtTot=           0 NUsed=           0 NTot=          32
 NSgBfM=  1167  1167  1167  1167  1167 MxSgAt=    51 MxSgA2=    51.
 Leave Link  302 at Sun Feb 14 19:35:20 2021, MaxMem=  5242880000 cpu:        32.7
 (Enter /opt/nce/packages/global/g09/l303.exe)
 DipDrv:  MaxL=1.
 Leave Link  303 at Sun Feb 14 19:35:20 2021, MaxMem=  5242880000 cpu:         2.9
 (Enter /opt/nce/packages/global/g09/l401.exe)
 ExpMin= 9.52D-02 ExpMax= 2.70D+04 ExpMxC= 9.22D+02 IAcc=3 IRadAn=         5 AccDes= 0.00D+00
 Harris functional with IExCor=  402 and IRadAn=       5 diagonalized for initial guess.
 HarFok:  IExCor=  402 AccDes= 0.00D+00 IRadAn=         5 IDoV= 1 UseB2=F ITyADJ=14
 ICtDFT=  3500011 ScaDFX=  1.000000  1.000000  1.000000  1.000000
 FoFCou: FMM=F IPFlag=           0 FMFlag=      100000 FMFlg1=           0
         NFxFlg=           0 DoJE=T BraDBF=F KetDBF=T FulRan=T
         wScrn=  0.000000 ICntrl=     500 IOpCl=  0 I1Cent=   200000004 NGrid=           0
         NMat0=    1 NMatS0=      1 NMatT0=    0 NMatD0=    1 NMtDS0=    0 NMtDT0=    0
 Symmetry not used in FoFCou.
 Harris En= -1343.28845584158    
 JPrj=0 DoOrth=F DoCkMO=F.
 Leave Link  401 at Sun Feb 14 19:35:30 2021, MaxMem=  5242880000 cpu:       116.9
 (Enter /opt/nce/packages/global/g09/l502.exe)
 Closed shell SCF:
 Using DIIS extrapolation, IDIIS=  1040.
 Two-electron integral symmetry not used.
 IVT=     5080828 IEndB=     5080828 NGot=  5242880000 MDV=  5239496725
 LenX=  5239496725 LenY=  5237815813
 Requested convergence on RMS density matrix=1.00D-08 within 128 cycles.
 Requested convergence on MAX density matrix=1.00D-06.
 Requested convergence on             energy=1.00D-06.
 No special actions if energy rises.
 Fock matrices will be formed incrementally for  20 cycles.

 Cycle   1  Pass 1  IDiag  1:
 FoFJK:  IHMeth= 1 ICntrl=       0 DoSepK=F KAlg= 0 I1Cent=   0 FoldK=F
 IRaf= 580000000 NMat=   1 IRICut=       1 DoRegI=T DoRafI=F ISym2E= 0.
 FoFCou: FMM=F IPFlag=           0 FMFlag=      100000 FMFlg1=           0
         NFxFlg=           0 DoJE=F BraDBF=F KetDBF=F FulRan=T
         wScrn=  0.000000 ICntrl=       0 IOpCl=  0 I1Cent=           0 NGrid=           0
         NMat0=    1 NMatS0=      1 NMatT0=    0 NMatD0=    1 NMtDS0=    0 NMtDT0=    0
 Symmetry not used in FoFCou.
 Inv3:  Mode=1 IEnd=    50799675.
 Iteration    1 A*A^-1 deviation from unit magnitude is 7.77D-15 for   4095.
 Iteration    1 A*A^-1 deviation from orthogonality  is 2.84D-15 for   2855   2445.
 Iteration    1 A^-1*A deviation from unit magnitude is 7.77D-15 for   4095.
 Iteration    1 A^-1*A deviation from orthogonality  is 1.74D-07 for   1693   1689.
 Iteration    2 A*A^-1 deviation from unit magnitude is 2.55D-15 for   2614.
 Iteration    2 A*A^-1 deviation from orthogonality  is 2.44D-15 for   3699    232.
 Iteration    2 A^-1*A deviation from unit magnitude is 9.99D-16 for    455.
 Iteration    2 A^-1*A deviation from orthogonality  is 4.25D-16 for   4110   4041.
 E= -1342.51822652795    
 DIIS: error= 2.48D-02 at cycle   1 NSaved=   1.
 NSaved= 1 IEnMin= 1 EnMin= -1342.51822652795     IErMin= 1 ErrMin= 2.48D-02
 ErrMax= 2.48D-02  0.00D+00 EMaxC= 1.00D-01 BMatC= 7.61D-01 BMatP= 7.61D-01
 IDIUse=3 WtCom= 7.52D-01 WtEn= 2.48D-01
 Coeff-Com:  0.100D+01
 Coeff-En:   0.100D+01
 Coeff:      0.100D+01
 Gap=     0.140 Goal=   None    Shift=    0.000
 GapD=    0.140 DampG=1.000 DampE=0.500 DampFc=0.5000 IDamp=-1.
 Damping current iteration by 5.00D-01
 RMSDP=4.34D-03 MaxDP=5.86D-01              OVMax= 2.14D-01

 Cycle   2  Pass 1  IDiag  1:
 RMSU=  2.17D-03    CP:  1.03D+00
 E= -1342.80655200062     Delta-E=       -0.288325472670 Rises=F Damp=T
 DIIS: error= 6.29D-03 at cycle   2 NSaved=   2.
 NSaved= 2 IEnMin= 2 EnMin= -1342.80655200062     IErMin= 2 ErrMin= 6.29D-03
 ErrMax= 6.29D-03  0.00D+00 EMaxC= 1.00D-01 BMatC= 8.20D-02 BMatP= 7.61D-01
 IDIUse=3 WtCom= 9.37D-01 WtEn= 6.29D-02
 Coeff-Com:  0.814D-01 0.919D+00
 Coeff-En:   0.144D+00 0.856D+00
 Coeff:      0.853D-01 0.915D+00
 Gap=     0.130 Goal=   None    Shift=    0.000
 RMSDP=1.51D-03 MaxDP=2.23D-01 DE=-2.88D-01 OVMax= 2.34D-01

 Cycle   3  Pass 1  IDiag  1:
 RMSU=  1.12D-03    CP:  9.88D-01  5.47D-01
 E= -1343.11706136940     Delta-E=       -0.310509368777 Rises=F Damp=F
 DIIS: error= 1.06D-02 at cycle   3 NSaved=   3.
 NSaved= 3 IEnMin= 3 EnMin= -1343.11706136940     IErMin= 2 ErrMin= 6.29D-03
 ErrMax= 1.06D-02  0.00D+00 EMaxC= 1.00D-01 BMatC= 1.38D-01 BMatP= 8.20D-02
 IDIUse=2 WtCom= 0.00D+00 WtEn= 1.00D+00
 Coeff-En:   0.000D+00 0.000D+00 0.100D+01
 Coeff:      0.000D+00 0.000D+00 0.100D+01
 Gap=     0.136 Goal=   None    Shift=    0.000
 RMSDP=2.72D-03 MaxDP=4.08D-01 DE=-3.11D-01 OVMax= 2.44D-01

 Cycle   4  Pass 1  IDiag  1:
 RMSU=  8.90D-04    CP:  1.03D+00  1.46D+00 -4.61D-01
 E= -1342.58162660459     Delta-E=        0.535434764811 Rises=F Damp=F
 DIIS: error= 2.54D-02 at cycle   4 NSaved=   4.
 NSaved= 4 IEnMin= 3 EnMin= -1343.11706136940     IErMin= 2 ErrMin= 6.29D-03
 ErrMax= 2.54D-02  0.00D+00 EMaxC= 1.00D-01 BMatC= 8.09D-01 BMatP= 8.20D-02
 IDIUse=2 WtCom= 0.00D+00 WtEn= 1.00D+00
 Coeff-En:   0.000D+00 0.000D+00 0.801D+00 0.199D+00
 Coeff:      0.000D+00 0.000D+00 0.801D+00 0.199D+00
 Gap=     0.168 Goal=   None    Shift=    0.000
 RMSDP=1.94D-03 MaxDP=3.17D-01 DE= 5.35D-01 OVMax= 1.16D-01

 Cycle   5  Pass 1  IDiag  1:
 RMSU=  3.55D-04    CP:  9.88D-01  7.01D-01  2.78D-01  4.59D-01
 E= -1343.17758649989     Delta-E=       -0.595959895307 Rises=F Damp=F
 DIIS: error= 7.07D-03 at cycle   5 NSaved=   5.
 NSaved= 5 IEnMin= 5 EnMin= -1343.17758649989     IErMin= 2 ErrMin= 6.29D-03
 ErrMax= 7.07D-03  0.00D+00 EMaxC= 1.00D-01 BMatC= 6.20D-02 BMatP= 8.20D-02
 IDIUse=3 WtCom= 9.29D-01 WtEn= 7.07D-02
 Coeff-Com:  0.306D-02 0.130D-01 0.318D+00-0.800D-01 0.746D+00
 Coeff-En:   0.000D+00 0.000D+00 0.352D+00 0.000D+00 0.648D+00
 Coeff:      0.284D-02 0.121D-01 0.320D+00-0.743D-01 0.739D+00
 Gap=     0.132 Goal=   None    Shift=    0.000
 RMSDP=3.92D-04 MaxDP=5.01D-02 DE=-5.96D-01 OVMax= 4.52D-02

 Cycle   6  Pass 1  IDiag  1:
 RMSU=  5.56D-05    CP:  9.87D-01  6.19D-01  5.37D-01  2.74D-01  7.65D-01
 E= -1343.22587495334     Delta-E=       -0.048288453449 Rises=F Damp=F
 DIIS: error= 5.47D-04 at cycle   6 NSaved=   6.
 NSaved= 6 IEnMin= 6 EnMin= -1343.22587495334     IErMin= 6 ErrMin= 5.47D-04
 ErrMax= 5.47D-04  0.00D+00 EMaxC= 1.00D-01 BMatC= 4.93D-04 BMatP= 6.20D-02
 IDIUse=3 WtCom= 9.95D-01 WtEn= 5.47D-03
 Coeff-Com:  0.855D-03 0.588D-02 0.169D+00-0.574D-01 0.446D+00 0.436D+00
 Coeff-En:   0.000D+00 0.000D+00 0.000D+00 0.000D+00 0.000D+00 0.100D+01
 Coeff:      0.850D-03 0.585D-02 0.168D+00-0.571D-01 0.443D+00 0.439D+00
 Gap=     0.132 Goal=   None    Shift=    0.000
 RMSDP=4.43D-05 MaxDP=6.27D-03 DE=-4.83D-02 OVMax= 6.99D-03

 Cycle   7  Pass 1  IDiag  1:
 RMSU=  1.70D-05    CP:  9.85D-01  6.05D-01  5.28D-01  2.84D-01  8.03D-01
                    CP:  6.80D-01
 E= -1343.22633248375     Delta-E=       -0.000457530408 Rises=F Damp=F
 DIIS: error= 1.73D-04 at cycle   7 NSaved=   7.
 NSaved= 7 IEnMin= 7 EnMin= -1343.22633248375     IErMin= 7 ErrMin= 1.73D-04
 ErrMax= 1.73D-04  0.00D+00 EMaxC= 1.00D-01 BMatC= 4.28D-05 BMatP= 4.93D-04
 IDIUse=3 WtCom= 9.98D-01 WtEn= 1.73D-03
 Coeff-Com:  0.731D-03-0.731D-03 0.354D-01-0.134D-01 0.839D-01 0.160D+00
 Coeff-Com:  0.734D+00
 Coeff-En:   0.000D+00 0.000D+00 0.000D+00 0.000D+00 0.000D+00 0.000D+00
 Coeff-En:   0.100D+01
 Coeff:      0.729D-03-0.730D-03 0.354D-01-0.133D-01 0.837D-01 0.159D+00
 Coeff:      0.735D+00
 Gap=     0.132 Goal=   None    Shift=    0.000
 RMSDP=8.15D-06 MaxDP=7.53D-04 DE=-4.58D-04 OVMax= 1.91D-03

 Cycle   8  Pass 1  IDiag  1:
 RMSU=  4.63D-06    CP:  9.85D-01  6.06D-01  5.33D-01  2.82D-01  7.95D-01
                    CP:  7.15D-01  8.81D-01
 E= -1343.22636569820     Delta-E=       -0.000033214446 Rises=F Damp=F
 DIIS: error= 7.68D-05 at cycle   8 NSaved=   8.
 NSaved= 8 IEnMin= 8 EnMin= -1343.22636569820     IErMin= 8 ErrMin= 7.68D-05
 ErrMax= 7.68D-05  0.00D+00 EMaxC= 1.00D-01 BMatC= 7.91D-06 BMatP= 4.28D-05
 IDIUse=1 WtCom= 1.00D+00 WtEn= 0.00D+00
 Coeff-Com:  0.514D-03-0.135D-02 0.749D-02-0.281D-02 0.103D-01 0.573D-01
 Coeff-Com:  0.472D+00 0.457D+00
 Coeff:      0.514D-03-0.135D-02 0.749D-02-0.281D-02 0.103D-01 0.573D-01
 Coeff:      0.472D+00 0.457D+00
 Gap=     0.132 Goal=   None    Shift=    0.000
 RMSDP=3.05D-06 MaxDP=2.82D-04 DE=-3.32D-05 OVMax= 8.30D-04

 Cycle   9  Pass 1  IDiag  1:
 RMSU=  1.80D-06    CP:  9.85D-01  6.05D-01  5.34D-01  2.82D-01  7.93D-01
                    CP:  7.06D-01  9.23D-01  7.18D-01
 E= -1343.22637361090     Delta-E=       -0.000007912701 Rises=F Damp=F
 DIIS: error= 1.94D-05 at cycle   9 NSaved=   9.
 NSaved= 9 IEnMin= 9 EnMin= -1343.22637361090     IErMin= 9 ErrMin= 1.94D-05
 ErrMax= 1.94D-05  0.00D+00 EMaxC= 1.00D-01 BMatC= 3.22D-07 BMatP= 7.91D-06
 IDIUse=1 WtCom= 1.00D+00 WtEn= 0.00D+00
 Coeff-Com:  0.246D-03-0.747D-03 0.102D-02-0.204D-03-0.211D-02 0.167D-01
 Coeff-Com:  0.186D+00 0.239D+00 0.560D+00
 Coeff:      0.246D-03-0.747D-03 0.102D-02-0.204D-03-0.211D-02 0.167D-01
 Coeff:      0.186D+00 0.239D+00 0.560D+00
 Gap=     0.132 Goal=   None    Shift=    0.000
 RMSDP=7.88D-07 MaxDP=7.40D-05 DE=-7.91D-06 OVMax= 2.08D-04

 Cycle  10  Pass 1  IDiag  1:
 RMSU=  5.34D-07    CP:  9.85D-01  6.05D-01  5.34D-01  2.82D-01  7.94D-01
                    CP:  7.08D-01  9.27D-01  7.10D-01  8.21D-01
 E= -1343.22637386923     Delta-E=       -0.000000258333 Rises=F Damp=F
 DIIS: error= 8.95D-06 at cycle  10 NSaved=  10.
 NSaved=10 IEnMin=10 EnMin= -1343.22637386923     IErMin=10 ErrMin= 8.95D-06
 ErrMax= 8.95D-06  0.00D+00 EMaxC= 1.00D-01 BMatC= 6.21D-08 BMatP= 3.22D-07
 IDIUse=1 WtCom= 1.00D+00 WtEn= 0.00D+00
 Coeff-Com:  0.729D-04-0.225D-03-0.338D-03 0.187D-03-0.230D-02 0.365D-02
 Coeff-Com:  0.501D-01 0.820D-01 0.340D+00 0.527D+00
 Coeff:      0.729D-04-0.225D-03-0.338D-03 0.187D-03-0.230D-02 0.365D-02
 Coeff:      0.501D-01 0.820D-01 0.340D+00 0.527D+00
 Gap=     0.132 Goal=   None    Shift=    0.000
 RMSDP=4.38D-07 MaxDP=5.64D-05 DE=-2.58D-07 OVMax= 8.44D-05

 Cycle  11  Pass 1  IDiag  1:
 RMSU=  1.98D-07    CP:  9.85D-01  6.05D-01  5.34D-01  2.82D-01  7.94D-01
                    CP:  7.10D-01  9.24D-01  7.13D-01  8.29D-01  7.90D-01
 E= -1343.22637392318     Delta-E=       -0.000000053948 Rises=F Damp=F
 DIIS: error= 3.04D-06 at cycle  11 NSaved=  11.
 NSaved=11 IEnMin=11 EnMin= -1343.22637392318     IErMin=11 ErrMin= 3.04D-06
 ErrMax= 3.04D-06  0.00D+00 EMaxC= 1.00D-01 BMatC= 7.66D-09 BMatP= 6.21D-08
 IDIUse=1 WtCom= 1.00D+00 WtEn= 0.00D+00
 Coeff-Com:  0.175D-04-0.557D-04-0.334D-03 0.129D-03-0.118D-02 0.105D-02
 Coeff-Com:  0.137D-01 0.275D-01 0.157D+00 0.315D+00 0.486D+00
 Coeff:      0.175D-04-0.557D-04-0.334D-03 0.129D-03-0.118D-02 0.105D-02
 Coeff:      0.137D-01 0.275D-01 0.157D+00 0.315D+00 0.486D+00
 Gap=     0.132 Goal=   None    Shift=    0.000
 RMSDP=1.46D-07 MaxDP=1.68D-05 DE=-5.39D-08 OVMax= 2.30D-05

 Cycle  12  Pass 1  IDiag  1:
 RMSU=  6.95D-08    CP:  9.85D-01  6.05D-01  5.34D-01  2.82D-01  7.94D-01
                    CP:  7.11D-01  9.23D-01  7.16D-01  8.44D-01  7.79D-01
                    CP:  9.34D-01
 E= -1343.22637392945     Delta-E=       -0.000000006273 Rises=F Damp=F
 DIIS: error= 8.76D-07 at cycle  12 NSaved=  12.
 NSaved=12 IEnMin=12 EnMin= -1343.22637392945     IErMin=12 ErrMin= 8.76D-07
 ErrMax= 8.76D-07  0.00D+00 EMaxC= 1.00D-01 BMatC= 1.07D-09 BMatP= 7.66D-09
 IDIUse=1 WtCom= 1.00D+00 WtEn= 0.00D+00
 Coeff-Com: -0.280D-05 0.120D-05-0.183D-03 0.650D-04-0.400D-03 0.111D-03
 Coeff-Com: -0.238D-03 0.216D-02 0.375D-01 0.955D-01 0.264D+00 0.602D+00
 Coeff:     -0.280D-05 0.120D-05-0.183D-03 0.650D-04-0.400D-03 0.111D-03
 Coeff:     -0.238D-03 0.216D-02 0.375D-01 0.955D-01 0.264D+00 0.602D+00
 Gap=     0.132 Goal=   None    Shift=    0.000
 RMSDP=5.48D-08 MaxDP=6.06D-06 DE=-6.27D-09 OVMax= 8.11D-06

 Cycle  13  Pass 1  IDiag  1:
 RMSU=  2.17D-08    CP:  9.85D-01  6.05D-01  5.34D-01  2.82D-01  7.94D-01
                    CP:  7.11D-01  9.23D-01  7.18D-01  8.49D-01  7.93D-01
                    CP:  9.48D-01  8.57D-01
 E= -1343.22637393029     Delta-E=       -0.000000000842 Rises=F Damp=F
 DIIS: error= 2.89D-07 at cycle  13 NSaved=  13.
 NSaved=13 IEnMin=13 EnMin= -1343.22637393029     IErMin=13 ErrMin= 2.89D-07
 ErrMax= 2.89D-07  0.00D+00 EMaxC= 1.00D-01 BMatC= 1.43D-10 BMatP= 1.07D-09
 IDIUse=1 WtCom= 1.00D+00 WtEn= 0.00D+00
 Coeff-Com: -0.488D-05 0.997D-05-0.560D-04 0.160D-04-0.401D-04 0.517D-05
 Coeff-Com: -0.187D-02-0.276D-02 0.312D-04 0.110D-01 0.748D-01 0.332D+00
 Coeff-Com:  0.587D+00
 Coeff:     -0.488D-05 0.997D-05-0.560D-04 0.160D-04-0.401D-04 0.517D-05
 Coeff:     -0.187D-02-0.276D-02 0.312D-04 0.110D-01 0.748D-01 0.332D+00
 Coeff:      0.587D+00
 Gap=     0.132 Goal=   None    Shift=    0.000
 RMSDP=3.78D-08 MaxDP=5.55D-06 DE=-8.42D-10 OVMax= 2.82D-06

 Cycle  14  Pass 1  IDiag  1:
 RMSU=  1.06D-08    CP:  9.85D-01  6.05D-01  5.34D-01  2.82D-01  7.94D-01
                    CP:  7.11D-01  9.23D-01  7.18D-01  8.52D-01  7.93D-01
                    CP:  9.73D-01  9.44D-01  8.84D-01
 E= -1343.22637393048     Delta-E=       -0.000000000184 Rises=F Damp=F
 DIIS: error= 1.31D-07 at cycle  14 NSaved=  14.
 NSaved=14 IEnMin=14 EnMin= -1343.22637393048     IErMin=14 ErrMin= 1.31D-07
 ErrMax= 1.31D-07  0.00D+00 EMaxC= 1.00D-01 BMatC= 1.19D-11 BMatP= 1.43D-10
 IDIUse=1 WtCom= 1.00D+00 WtEn= 0.00D+00
 Coeff-Com: -0.223D-05 0.460D-05-0.941D-05 0.166D-05 0.195D-04 0.883D-06
 Coeff-Com: -0.820D-03-0.163D-02-0.413D-02-0.561D-02 0.317D-02 0.965D-01
 Coeff-Com:  0.317D+00 0.596D+00
 Coeff:     -0.223D-05 0.460D-05-0.941D-05 0.166D-05 0.195D-04 0.883D-06
 Coeff:     -0.820D-03-0.163D-02-0.413D-02-0.561D-02 0.317D-02 0.965D-01
 Coeff:      0.317D+00 0.596D+00
 Gap=     0.132 Goal=   None    Shift=    0.000
 RMSDP=8.62D-09 MaxDP=1.19D-06 DE=-1.84D-10 OVMax= 1.12D-06

 Cycle  15  Pass 1  IDiag  1:
 RMSU=  3.04D-09    CP:  9.85D-01  6.05D-01  5.34D-01  2.82D-01  7.94D-01
                    CP:  7.11D-01  9.23D-01  7.18D-01  8.52D-01  7.95D-01
                    CP:  9.81D-01  9.60D-01  9.23D-01  8.94D-01
 E= -1343.22637393045     Delta-E=        0.000000000033 Rises=F Damp=F
 DIIS: error= 3.23D-08 at cycle  15 NSaved=  15.
 NSaved=15 IEnMin=14 EnMin= -1343.22637393048     IErMin=15 ErrMin= 3.23D-08
 ErrMax= 3.23D-08  0.00D+00 EMaxC= 1.00D-01 BMatC= 1.24D-12 BMatP= 1.19D-11
 IDIUse=1 WtCom= 1.00D+00 WtEn= 0.00D+00
 Coeff-Com: -0.744D-06 0.169D-05-0.481D-06-0.385D-06 0.110D-04-0.287D-05
 Coeff-Com: -0.235D-03-0.594D-03-0.213D-02-0.394D-02-0.653D-02 0.169D-01
 Coeff-Com:  0.113D+00 0.331D+00 0.552D+00
 Coeff:     -0.744D-06 0.169D-05-0.481D-06-0.385D-06 0.110D-04-0.287D-05
 Coeff:     -0.235D-03-0.594D-03-0.213D-02-0.394D-02-0.653D-02 0.169D-01
 Coeff:      0.113D+00 0.331D+00 0.552D+00
 Gap=     0.132 Goal=   None    Shift=    0.000
 RMSDP=1.26D-09 MaxDP=1.08D-07 DE= 3.27D-11 OVMax= 2.90D-07

 Error on total polarization charges =  0.07718
 SCF Done:  E(RB3LYP) =  -1343.22637393     A.U. after   15 cycles
            NFock= 15  Conv=0.13D-08     -V/T= 2.0057
 KE= 1.335552275847D+03 PE=-8.668556034041D+03 EE= 3.216335420282D+03
 SMD-CDS (non-electrostatic) energy       (kcal/mol) =      -7.63
 (included in total energy above)
 Leave Link  502 at Sun Feb 14 20:06:33 2021, MaxMem=  5242880000 cpu:     22317.1
 (Enter /opt/nce/packages/global/g09/l601.exe)
 Copying SCF densities to generalized density rwf, IOpCl= 0 IROHF=0.

 **********************************************************************

            Population analysis using the SCF density.

 **********************************************************************

 Alpha  occ. eigenvalues --  -19.19495 -19.11995 -10.31750 -10.25576 -10.21646
 Alpha  occ. eigenvalues --  -10.21228 -10.20957 -10.20937 -10.20910 -10.20420
 Alpha  occ. eigenvalues --  -10.19986 -10.19929 -10.19113 -10.19032 -10.18975
 Alpha  occ. eigenvalues --  -10.18856 -10.18753 -10.18689 -10.18615 -10.18609
 Alpha  occ. eigenvalues --  -10.18608 -10.18496 -10.18366 -10.18351 -10.18268
 Alpha  occ. eigenvalues --  -10.18265 -10.18190 -10.18171 -10.17590 -10.17583
 Alpha  occ. eigenvalues --  -10.17509 -10.17506 -10.17436  -1.12812  -1.04497
 Alpha  occ. eigenvalues --   -0.89672  -0.87780  -0.86765  -0.85844  -0.84405
 Alpha  occ. eigenvalues --   -0.81006  -0.79515  -0.78075  -0.77218  -0.76013
 Alpha  occ. eigenvalues --   -0.75289  -0.74940  -0.74530  -0.73360  -0.71599
 Alpha  occ. eigenvalues --   -0.68041  -0.65554  -0.64932  -0.62719  -0.61903
 Alpha  occ. eigenvalues --   -0.61339  -0.61101  -0.60475  -0.58711  -0.57631
 Alpha  occ. eigenvalues --   -0.56086  -0.54077  -0.52955  -0.52619  -0.50722
 Alpha  occ. eigenvalues --   -0.49795  -0.49007  -0.48679  -0.48066  -0.47101
 Alpha  occ. eigenvalues --   -0.46503  -0.46300  -0.45957  -0.45636  -0.45329
 Alpha  occ. eigenvalues --   -0.44071  -0.43763  -0.43588  -0.43003  -0.42540
 Alpha  occ. eigenvalues --   -0.42085  -0.41899  -0.40758  -0.40666  -0.40452
 Alpha  occ. eigenvalues --   -0.39649  -0.39088  -0.38253  -0.37076  -0.36477
 Alpha  occ. eigenvalues --   -0.36452  -0.36234  -0.35667  -0.35505  -0.35235
 Alpha  occ. eigenvalues --   -0.34685  -0.34522  -0.33249  -0.32150  -0.30094
 Alpha  occ. eigenvalues --   -0.30039  -0.28800  -0.28468  -0.26578  -0.26264
 Alpha  occ. eigenvalues --   -0.25785  -0.25423  -0.24679  -0.23831  -0.21398
 Alpha virt. eigenvalues --   -0.08169  -0.07385  -0.04024  -0.02405  -0.02057
 Alpha virt. eigenvalues --   -0.01547  -0.01408  -0.00678   0.00801   0.03195
 Alpha virt. eigenvalues --    0.03490   0.04971   0.05123   0.05929   0.06392
 Alpha virt. eigenvalues --    0.06877   0.07213   0.07532   0.07964   0.08656
 Alpha virt. eigenvalues --    0.08813   0.09006   0.09826   0.10004   0.10620
 Alpha virt. eigenvalues --    0.10901   0.10988   0.11153   0.11390   0.11796
 Alpha virt. eigenvalues --    0.12186   0.12583   0.13006   0.13544   0.13637
 Alpha virt. eigenvalues --    0.13757   0.14161   0.15217   0.15732   0.15990
 Alpha virt. eigenvalues --    0.16705   0.17179   0.17553   0.18461   0.18480
 Alpha virt. eigenvalues --    0.18809   0.18876   0.19028   0.19400   0.19598
 Alpha virt. eigenvalues --    0.19817   0.19998   0.20406   0.20867   0.21064
 Alpha virt. eigenvalues --    0.21373   0.21652   0.21863   0.22304   0.22500
 Alpha virt. eigenvalues --    0.22916   0.22926   0.23385   0.23871   0.23951
 Alpha virt. eigenvalues --    0.24102   0.24103   0.24199   0.24501   0.24733
 Alpha virt. eigenvalues --    0.25196   0.25258   0.25926   0.26190   0.26816
 Alpha virt. eigenvalues --    0.26936   0.27226   0.27465   0.27631   0.28048
 Alpha virt. eigenvalues --    0.28325   0.28363   0.28620   0.29906   0.30014
 Alpha virt. eigenvalues --    0.30175   0.30476   0.30488   0.30837   0.31714
 Alpha virt. eigenvalues --    0.32351   0.32434   0.32727   0.33258   0.33684
 Alpha virt. eigenvalues --    0.33806   0.33833   0.34001   0.34261   0.34309
 Alpha virt. eigenvalues --    0.34378   0.35096   0.35300   0.35631   0.35975
 Alpha virt. eigenvalues --    0.36155   0.36852   0.37164   0.37578   0.38062
 Alpha virt. eigenvalues --    0.38148   0.38510   0.38518   0.38561   0.38837
 Alpha virt. eigenvalues --    0.39670   0.39915   0.39991   0.40532   0.40805
 Alpha virt. eigenvalues --    0.40922   0.41249   0.41505   0.41686   0.41700
 Alpha virt. eigenvalues --    0.42073   0.42192   0.43062   0.43224   0.43564
 Alpha virt. eigenvalues --    0.44109   0.44355   0.44441   0.44905   0.45115
 Alpha virt. eigenvalues --    0.46256   0.46313   0.46815   0.46875   0.47347
 Alpha virt. eigenvalues --    0.47520   0.47737   0.48401   0.48495   0.48507
 Alpha virt. eigenvalues --    0.49004   0.49323   0.49653   0.49655   0.50008
 Alpha virt. eigenvalues --    0.50188   0.50702   0.50860   0.51313   0.51329
 Alpha virt. eigenvalues --    0.51826   0.51942   0.52741   0.52846   0.53321
 Alpha virt. eigenvalues --    0.54131   0.55088   0.55400   0.56013   0.56311
 Alpha virt. eigenvalues --    0.56940   0.57056   0.57521   0.58294   0.58436
 Alpha virt. eigenvalues --    0.59811   0.60732   0.61146   0.62327   0.62480
 Alpha virt. eigenvalues --    0.62649   0.63290   0.63482   0.63782   0.63974
 Alpha virt. eigenvalues --    0.64194   0.64741   0.65115   0.65153   0.65319
 Alpha virt. eigenvalues --    0.65800   0.66047   0.66287   0.66406   0.67158
 Alpha virt. eigenvalues --    0.67244   0.67833   0.67925   0.68124   0.68265
 Alpha virt. eigenvalues --    0.68945   0.69146   0.69644   0.69728   0.69995
 Alpha virt. eigenvalues --    0.70229   0.70630   0.71017   0.71431   0.72116
 Alpha virt. eigenvalues --    0.72426   0.72748   0.73090   0.73580   0.73729
 Alpha virt. eigenvalues --    0.74352   0.74656   0.75080   0.75143   0.75174
 Alpha virt. eigenvalues --    0.75656   0.76100   0.77150   0.77274   0.78054
 Alpha virt. eigenvalues --    0.78493   0.78755   0.79220   0.79539   0.80260
 Alpha virt. eigenvalues --    0.80300   0.80990   0.81171   0.81233   0.81664
 Alpha virt. eigenvalues --    0.83247   0.83793   0.83989   0.84037   0.84846
 Alpha virt. eigenvalues --    0.84915   0.84991   0.85479   0.85671   0.86102
 Alpha virt. eigenvalues --    0.86268   0.86365   0.86968   0.87050   0.87996
 Alpha virt. eigenvalues --    0.88742   0.88901   0.88984   0.89302   0.89874
 Alpha virt. eigenvalues --    0.89949   0.90791   0.91253   0.91272   0.92011
 Alpha virt. eigenvalues --    0.92728   0.94173   0.94243   0.94358   0.95039
 Alpha virt. eigenvalues --    0.97873   0.98101   0.98325   0.98958   0.99623
 Alpha virt. eigenvalues --    0.99699   1.00178   1.01134   1.01284   1.01526
 Alpha virt. eigenvalues --    1.02004   1.02235   1.03497   1.03549   1.04779
 Alpha virt. eigenvalues --    1.05376   1.05827   1.06069   1.06291   1.06977
 Alpha virt. eigenvalues --    1.07314   1.07824   1.08817   1.08873   1.10045
 Alpha virt. eigenvalues --    1.11160   1.11669   1.12188   1.12552   1.12592
 Alpha virt. eigenvalues --    1.13352   1.14168   1.14279   1.15056   1.15648
 Alpha virt. eigenvalues --    1.16453   1.17322   1.17324   1.18602   1.19023
 Alpha virt. eigenvalues --    1.20258   1.20321   1.20549   1.21441   1.21515
 Alpha virt. eigenvalues --    1.21973   1.22423   1.22429   1.22858   1.23509
 Alpha virt. eigenvalues --    1.23811   1.24371   1.24601   1.25311   1.25668
 Alpha virt. eigenvalues --    1.25744   1.26868   1.27365   1.27433   1.28344
 Alpha virt. eigenvalues --    1.28708   1.29304   1.29785   1.30444   1.31062
 Alpha virt. eigenvalues --    1.31082   1.31301   1.31451   1.32970   1.33276
 Alpha virt. eigenvalues --    1.33824   1.35169   1.35508   1.35944   1.36557
 Alpha virt. eigenvalues --    1.36618   1.37128   1.38344   1.38633   1.38980
 Alpha virt. eigenvalues --    1.39432   1.39795   1.41145   1.41751   1.42156
 Alpha virt. eigenvalues --    1.42318   1.42774   1.43598   1.44200   1.44274
 Alpha virt. eigenvalues --    1.44888   1.45136   1.46121   1.46600   1.46933
 Alpha virt. eigenvalues --    1.47410   1.47670   1.47856   1.48012   1.48060
 Alpha virt. eigenvalues --    1.49584   1.49660   1.49786   1.50469   1.50533
 Alpha virt. eigenvalues --    1.51174   1.51426   1.51527   1.51669   1.52471
 Alpha virt. eigenvalues --    1.53567   1.53831   1.54687   1.55678   1.55683
 Alpha virt. eigenvalues --    1.56909   1.57024   1.57513   1.58330   1.58808
 Alpha virt. eigenvalues --    1.60217   1.60292   1.60747   1.60820   1.61099
 Alpha virt. eigenvalues --    1.62040   1.62229   1.62870   1.63259   1.63648
 Alpha virt. eigenvalues --    1.63761   1.65204   1.65603   1.65931   1.66115
 Alpha virt. eigenvalues --    1.67064   1.67075   1.67391   1.67863   1.68415
 Alpha virt. eigenvalues --    1.68586   1.68653   1.68994   1.69302   1.69758
 Alpha virt. eigenvalues --    1.70122   1.70980   1.71364   1.71561   1.71954
 Alpha virt. eigenvalues --    1.73406   1.73456   1.73755   1.74489   1.75466
 Alpha virt. eigenvalues --    1.76201   1.76348   1.76686   1.77884   1.78084
 Alpha virt. eigenvalues --    1.79307   1.80069   1.80791   1.81948   1.82813
 Alpha virt. eigenvalues --    1.82883   1.83890   1.84020   1.84695   1.85474
 Alpha virt. eigenvalues --    1.85530   1.86576   1.87538   1.87830   1.89868
 Alpha virt. eigenvalues --    1.90110   1.90229   1.91408   1.91669   1.92077
 Alpha virt. eigenvalues --    1.93322   1.94703   1.95083   1.95939   1.96940
 Alpha virt. eigenvalues --    1.97134   1.98509   1.98663   1.98881   2.00001
 Alpha virt. eigenvalues --    2.00206   2.01087   2.01962   2.01991   2.02557
 Alpha virt. eigenvalues --    2.02980   2.04218   2.05302   2.06585   2.07475
 Alpha virt. eigenvalues --    2.07811   2.08132   2.08969   2.09596   2.09597
 Alpha virt. eigenvalues --    2.10473   2.11082   2.11463   2.11740   2.12037
 Alpha virt. eigenvalues --    2.12676   2.13444   2.14679   2.14790   2.14871
 Alpha virt. eigenvalues --    2.15152   2.15769   2.16410   2.16444   2.16700
 Alpha virt. eigenvalues --    2.18224   2.18332   2.18417   2.18921   2.19952
 Alpha virt. eigenvalues --    2.20888   2.21469   2.22159   2.23224   2.23789
 Alpha virt. eigenvalues --    2.23879   2.24720   2.24976   2.26290   2.27047
 Alpha virt. eigenvalues --    2.28971   2.30242   2.30244   2.31580   2.31899
 Alpha virt. eigenvalues --    2.32781   2.33344   2.33710   2.35839   2.36551
 Alpha virt. eigenvalues --    2.36631   2.37669   2.38122   2.41484   2.41895
 Alpha virt. eigenvalues --    2.42139   2.43865   2.44494   2.45802   2.46199
 Alpha virt. eigenvalues --    2.46263   2.46790   2.47001   2.48388   2.49109
 Alpha virt. eigenvalues --    2.49348   2.50130   2.50836   2.50872   2.52339
 Alpha virt. eigenvalues --    2.52716   2.52970   2.53798   2.54353   2.54706
 Alpha virt. eigenvalues --    2.55415   2.55981   2.56824   2.57417   2.58324
 Alpha virt. eigenvalues --    2.58870   2.59637   2.59677   2.60107   2.60284
 Alpha virt. eigenvalues --    2.60869   2.61148   2.61273   2.62275   2.62536
 Alpha virt. eigenvalues --    2.62692   2.63177   2.63856   2.64586   2.64987
 Alpha virt. eigenvalues --    2.65095   2.65269   2.65662   2.66219   2.66351
 Alpha virt. eigenvalues --    2.66662   2.66851   2.66904   2.67534   2.68012
 Alpha virt. eigenvalues --    2.68664   2.69164   2.69389   2.69770   2.69910
 Alpha virt. eigenvalues --    2.70740   2.71520   2.71992   2.72618   2.73076
 Alpha virt. eigenvalues --    2.73423   2.73745   2.74089   2.74237   2.74588
 Alpha virt. eigenvalues --    2.75218   2.75600   2.76130   2.76438   2.77267
 Alpha virt. eigenvalues --    2.77508   2.78192   2.78419   2.78895   2.79084
 Alpha virt. eigenvalues --    2.79412   2.79717   2.80273   2.80917   2.81027
 Alpha virt. eigenvalues --    2.81523   2.81866   2.82368   2.82487   2.82543
 Alpha virt. eigenvalues --    2.83582   2.84017   2.84138   2.84384   2.85234
 Alpha virt. eigenvalues --    2.85571   2.86018   2.86263   2.86910   2.87520
 Alpha virt. eigenvalues --    2.87583   2.88149   2.88499   2.88660   2.89035
 Alpha virt. eigenvalues --    2.89740   2.89917   2.90032   2.90841   2.90924
 Alpha virt. eigenvalues --    2.91108   2.92451   2.92711   2.93270   2.93506
 Alpha virt. eigenvalues --    2.95060   2.95245   2.95861   2.96382   2.96613
 Alpha virt. eigenvalues --    2.97262   2.97299   2.97944   2.98480   2.98535
 Alpha virt. eigenvalues --    2.99133   2.99139   3.00136   3.00769   3.00909
 Alpha virt. eigenvalues --    3.01560   3.01756   3.01848   3.02108   3.03151
 Alpha virt. eigenvalues --    3.03793   3.04014   3.04711   3.06130   3.06223
 Alpha virt. eigenvalues --    3.06611   3.06860   3.08545   3.08665   3.09302
 Alpha virt. eigenvalues --    3.09459   3.09515   3.09875   3.10509   3.10880
 Alpha virt. eigenvalues --    3.11260   3.11471   3.12183   3.12870   3.12977
 Alpha virt. eigenvalues --    3.13114   3.13527   3.13629   3.13715   3.14155
 Alpha virt. eigenvalues --    3.14449   3.14846   3.15406   3.15436   3.16636
 Alpha virt. eigenvalues --    3.16945   3.17724   3.17812   3.18345   3.19015
 Alpha virt. eigenvalues --    3.19635   3.20058   3.20285   3.20797   3.21191
 Alpha virt. eigenvalues --    3.21207   3.21684   3.22210   3.23193   3.23280
 Alpha virt. eigenvalues --    3.23790   3.25503   3.25661   3.26255   3.26584
 Alpha virt. eigenvalues --    3.26828   3.27213   3.27335   3.28012   3.28128
 Alpha virt. eigenvalues --    3.28335   3.29516   3.29646   3.30202   3.30213
 Alpha virt. eigenvalues --    3.30312   3.30624   3.30707   3.31416   3.31777
 Alpha virt. eigenvalues --    3.32325   3.32729   3.33427   3.34178   3.34663
 Alpha virt. eigenvalues --    3.35195   3.35196   3.36018   3.36348   3.36805
 Alpha virt. eigenvalues --    3.37066   3.37438   3.37612   3.37805   3.38232
 Alpha virt. eigenvalues --    3.38317   3.39108   3.39459   3.39685   3.40722
 Alpha virt. eigenvalues --    3.41019   3.41420   3.41844   3.42595   3.42890
 Alpha virt. eigenvalues --    3.43169   3.43502   3.44181   3.44350   3.45256
 Alpha virt. eigenvalues --    3.45652   3.45952   3.46399   3.46646   3.47015
 Alpha virt. eigenvalues --    3.47489   3.47665   3.48276   3.48424   3.48603
 Alpha virt. eigenvalues --    3.49518   3.49670   3.49692   3.50530   3.50703
 Alpha virt. eigenvalues --    3.51187   3.51736   3.52037   3.52353   3.52688
 Alpha virt. eigenvalues --    3.53244   3.53267   3.53640   3.54246   3.54555
 Alpha virt. eigenvalues --    3.54919   3.56482   3.56870   3.57596   3.58858
 Alpha virt. eigenvalues --    3.60202   3.60831   3.61133   3.61535   3.62878
 Alpha virt. eigenvalues --    3.63833   3.64211   3.65253   3.66161   3.66943
 Alpha virt. eigenvalues --    3.67170   3.67714   3.68109   3.68324   3.68581
 Alpha virt. eigenvalues --    3.69639   3.69810   3.70770   3.71054   3.72365
 Alpha virt. eigenvalues --    3.73337   3.73768   3.74424   3.75166   3.75559
 Alpha virt. eigenvalues --    3.76090   3.76856   3.77896   3.80010   3.80567
 Alpha virt. eigenvalues --    3.80721   3.81829   3.82660   3.84691   3.86219
 Alpha virt. eigenvalues --    3.87715   3.88863   3.88899   3.89814   3.91029
 Alpha virt. eigenvalues --    3.91108   3.91919   3.93087   3.94113   3.94473
 Alpha virt. eigenvalues --    3.95208   3.95842   3.96264   3.96710   3.97044
 Alpha virt. eigenvalues --    3.99044   3.99392   3.99782   4.01206   4.01681
 Alpha virt. eigenvalues --    4.02601   4.02960   4.03884   4.03902   4.06413
 Alpha virt. eigenvalues --    4.06816   4.07741   4.09491   4.09923   4.10872
 Alpha virt. eigenvalues --    4.11118   4.12415   4.13047   4.13652   4.13901
 Alpha virt. eigenvalues --    4.14561   4.14722   4.15181   4.15903   4.16344
 Alpha virt. eigenvalues --    4.17143   4.17757   4.18767   4.19175   4.19221
 Alpha virt. eigenvalues --    4.20066   4.20247   4.20483   4.21195   4.21313
 Alpha virt. eigenvalues --    4.21460   4.21908   4.22396   4.23435   4.23613
 Alpha virt. eigenvalues --    4.24217   4.24753   4.26180   4.26215   4.27113
 Alpha virt. eigenvalues --    4.27781   4.28269   4.29137   4.29518   4.29791
 Alpha virt. eigenvalues --    4.30573   4.31573   4.32136   4.32557   4.33281
 Alpha virt. eigenvalues --    4.35544   4.36228   4.36848   4.38217   4.39319
 Alpha virt. eigenvalues --    4.40455   4.43079   4.44022   4.47338   4.47706
 Alpha virt. eigenvalues --    4.48423   4.49425   4.51207   4.51691   4.52772
 Alpha virt. eigenvalues --    4.55728   4.56081   4.57294   4.58152   4.60641
 Alpha virt. eigenvalues --    4.61646   4.62314   4.62664   4.63756   4.66009
 Alpha virt. eigenvalues --    4.66480   4.67371   4.68060   4.69047   4.70530
 Alpha virt. eigenvalues --    4.70553   4.71409   4.71453   4.74152   4.74607
 Alpha virt. eigenvalues --    4.75176   4.75875   4.77635   4.78163   4.80254
 Alpha virt. eigenvalues --    4.81376   4.83129   4.83464   4.84358   4.86170
 Alpha virt. eigenvalues --    4.86569   4.89255   4.91391   4.93441   4.93600
 Alpha virt. eigenvalues --    4.94954   4.96118   4.97508   4.97709   5.02210
 Alpha virt. eigenvalues --    5.06322   5.08084   5.09001   5.12610   5.12732
 Alpha virt. eigenvalues --    5.14147   5.15112   5.16603   5.17801   5.18242
 Alpha virt. eigenvalues --    5.19684   5.20170   5.21224   5.22289   5.22975
 Alpha virt. eigenvalues --    5.23933   5.24678   5.25913   5.28930   5.29366
 Alpha virt. eigenvalues --    5.32182   5.36657   5.37439   5.40637   5.40640
 Alpha virt. eigenvalues --    5.44014   5.45049   5.48444   5.48633   5.49315
 Alpha virt. eigenvalues --    5.52125   5.56030   5.57925   5.59755   5.63947
 Alpha virt. eigenvalues --    5.64133   5.66512   5.70606   5.72143   5.72984
 Alpha virt. eigenvalues --    5.77387   5.82060   5.85470   5.86988   5.89230
 Alpha virt. eigenvalues --    5.90788   6.04020   6.15673   6.20153   6.34739
 Alpha virt. eigenvalues --    6.41047   6.46798   6.53123   6.58721   6.63216
 Alpha virt. eigenvalues --    6.81610   6.85066   6.87802   7.00836   7.12196
 Alpha virt. eigenvalues --    7.26050   7.40440   7.49123  22.13121  22.22763
 Alpha virt. eigenvalues --   22.27920  22.48034  22.52832  22.54635  22.55774
 Alpha virt. eigenvalues --   22.58062  22.60769  22.64718  22.65010  22.67721
 Alpha virt. eigenvalues --   22.70535  22.71848  22.74996  22.78281  22.81611
 Alpha virt. eigenvalues --   22.87903  22.88618  22.95544  22.99441  23.05277
 Alpha virt. eigenvalues --   23.14985  23.19069  23.19969  23.29127  23.44242
 Alpha virt. eigenvalues --   23.51947  23.75282  23.92415  24.22852  44.03177
 Alpha virt. eigenvalues --   44.47711
          Condensed to atoms (all electrons):
 Mulliken charges:
               1
     1  C   -0.118026
     2  C   -0.230115
     3  C    0.121600
     4  C    0.043609
     5  C   -0.190025
     6  C   -0.157346
     7  C   -0.341814
     8  C    0.233592
     9  C   -0.152512
    10  C    0.112502
    11  C    0.129216
[...]
 Alpha virt. eigenvalues --    0.66153   0.66352   0.66794   0.66949   0.67600
 Alpha virt. eigenvalues --    0.67872   0.68315   0.68415   0.68555   0.68665
 Alpha virt. eigenvalues --    0.69337   0.69682   0.69867   0.70023   0.70488
 Alpha virt. eigenvalues --    0.70586   0.71081   0.71440   0.71877   0.72628
 Alpha virt. eigenvalues --    0.72832   0.73039   0.73456   0.73951   0.74073
 Alpha virt. eigenvalues --    0.74677   0.75164   0.75490   0.75499   0.75552
 Alpha virt. eigenvalues --    0.75902   0.76495   0.77569   0.77600   0.78493
 Alpha virt. eigenvalues --    0.78856   0.79173   0.79516   0.80026   0.80516
 Alpha virt. eigenvalues --    0.80583   0.81345   0.81509   0.81623   0.81916
 Alpha virt. eigenvalues --    0.83638   0.84155   0.84351   0.84412   0.85051
 Alpha virt. eigenvalues --    0.85181   0.85362   0.85799   0.86188   0.86481
 Alpha virt. eigenvalues --    0.86709   0.86752   0.87258   0.87508   0.88343
 Alpha virt. eigenvalues --    0.88947   0.89091   0.89352   0.89759   0.90141
 Alpha virt. eigenvalues --    0.90282   0.90939   0.91514   0.91645   0.92387
 Alpha virt. eigenvalues --    0.92844   0.94350   0.94588   0.94785   0.95337
 Alpha virt. eigenvalues --    0.97992   0.98288   0.98676   0.99225   0.99674
 Alpha virt. eigenvalues --    0.99942   1.00387   1.01390   1.01564   1.02066
 Alpha virt. eigenvalues --    1.02376   1.02822   1.03805   1.03946   1.05014
 Alpha virt. eigenvalues --    1.05771   1.06158   1.06369   1.06512   1.07357
 Alpha virt. eigenvalues --    1.07550   1.08228   1.09148   1.09307   1.10286
 Alpha virt. eigenvalues --    1.11424   1.12106   1.12568   1.12857   1.13066
 Alpha virt. eigenvalues --    1.13750   1.14501   1.14690   1.15374   1.15876
 Alpha virt. eigenvalues --    1.16931   1.17654   1.17702   1.19113   1.19348
 Alpha virt. eigenvalues --    1.20588   1.20693   1.20904   1.21753   1.21921
 Alpha virt. eigenvalues --    1.22212   1.22828   1.22837   1.23371   1.24021
 Alpha virt. eigenvalues --    1.24234   1.24655   1.24960   1.25677   1.26133
 Alpha virt. eigenvalues --    1.26234   1.27325   1.27791   1.27879   1.28882
 Alpha virt. eigenvalues --    1.29106   1.29750   1.30330   1.30928   1.31398
 Alpha virt. eigenvalues --    1.31468   1.31760   1.32089   1.33385   1.33840
 Alpha virt. eigenvalues --    1.34258   1.35683   1.35942   1.36431   1.37130
 Alpha virt. eigenvalues --    1.37151   1.37544   1.38728   1.39329   1.39475
 Alpha virt. eigenvalues --    1.40024   1.40205   1.41425   1.42166   1.42810
 Alpha virt. eigenvalues --    1.42822   1.43072   1.44184   1.44550   1.44575
 Alpha virt. eigenvalues --    1.45291   1.45369   1.46711   1.47091   1.47198
 Alpha virt. eigenvalues --    1.47742   1.48073   1.48203   1.48460   1.48546
 Alpha virt. eigenvalues --    1.49875   1.50129   1.50188   1.50533   1.50869
 Alpha virt. eigenvalues --    1.51617   1.51765   1.51932   1.52018   1.52832
 Alpha virt. eigenvalues --    1.54029   1.54398   1.55206   1.56094   1.56107
 Alpha virt. eigenvalues --    1.57399   1.57732   1.57995   1.58739   1.59290
 Alpha virt. eigenvalues --    1.60675   1.60929   1.61174   1.61201   1.61639
 Alpha virt. eigenvalues --    1.62359   1.62830   1.63282   1.63825   1.64143
 Alpha virt. eigenvalues --    1.64220   1.65795   1.66101   1.66558   1.66603
 Alpha virt. eigenvalues --    1.67530   1.67703   1.67898   1.68398   1.68848
 Alpha virt. eigenvalues --    1.69005   1.69106   1.69719   1.69734   1.70145
 Alpha virt. eigenvalues --    1.70643   1.71806   1.71948   1.72116   1.72646
 Alpha virt. eigenvalues --    1.73819   1.74209   1.74363   1.75317   1.76211
 Alpha virt. eigenvalues --    1.76664   1.77013   1.77216   1.78477   1.78827
 Alpha virt. eigenvalues --    1.79860   1.80751   1.81083   1.82517   1.83388
 Alpha virt. eigenvalues --    1.83422   1.84448   1.84536   1.85296   1.85989
 Alpha virt. eigenvalues --    1.86249   1.87300   1.88423   1.88489   1.90328
 Alpha virt. eigenvalues --    1.90847   1.91123   1.92220   1.92403   1.92568
 Alpha virt. eigenvalues --    1.93948   1.95739   1.96004   1.96812   1.97761
 Alpha virt. eigenvalues --    1.98044   1.98936   1.99442   1.99590   2.00690
 Alpha virt. eigenvalues --    2.00757   2.01224   2.02653   2.03126   2.03687
 Alpha virt. eigenvalues --    2.03858   2.05477   2.05953   2.07084   2.07992
 Alpha virt. eigenvalues --    2.08211   2.09205   2.09619   2.10098   2.10582
 Alpha virt. eigenvalues --    2.11022   2.11475   2.12270   2.12604   2.12869
 Alpha virt. eigenvalues --    2.13490   2.14159   2.15365   2.15573   2.15621
 Alpha virt. eigenvalues --    2.15876   2.16632   2.17192   2.17510   2.17575
 Alpha virt. eigenvalues --    2.19175   2.19224   2.19613   2.19863   2.20840
 Alpha virt. eigenvalues --    2.21633   2.22418   2.22758   2.24132   2.24392
 Alpha virt. eigenvalues --    2.24600   2.25474   2.25904   2.26957   2.27666
 Alpha virt. eigenvalues --    2.29362   2.30720   2.30920   2.32047   2.33093
 Alpha virt. eigenvalues --    2.33281   2.34252   2.34665   2.36633   2.37036
 Alpha virt. eigenvalues --    2.37406   2.38834   2.38995   2.42466   2.42536
 Alpha virt. eigenvalues --    2.43168   2.43942   2.45269   2.46416   2.46633
 Alpha virt. eigenvalues --    2.47383   2.47471   2.47674   2.49019   2.49760
 Alpha virt. eigenvalues --    2.49863   2.50622   2.50986   2.51647   2.52984
 Alpha virt. eigenvalues --    2.53057   2.53733   2.54893   2.55244   2.55598
 Alpha virt. eigenvalues --    2.56210   2.56771   2.57736   2.58559   2.59093
 Alpha virt. eigenvalues --    2.59933   2.60118   2.60628   2.60725   2.61517
 Alpha virt. eigenvalues --    2.61936   2.62305   2.62546   2.63098   2.63523
 Alpha virt. eigenvalues --    2.63902   2.64569   2.64600   2.65470   2.65954
 Alpha virt. eigenvalues --    2.66501   2.66615   2.66857   2.67034   2.67193
 Alpha virt. eigenvalues --    2.67324   2.67711   2.67935   2.68345   2.69127
 Alpha virt. eigenvalues --    2.69167   2.69767   2.69890   2.70455   2.71007
 Alpha virt. eigenvalues --    2.71891   2.71987   2.72873   2.73110   2.73356
 Alpha virt. eigenvalues --    2.74299   2.74304   2.74801   2.74908   2.75163
 Alpha virt. eigenvalues --    2.75920   2.76204   2.76491   2.77118   2.77217
 Alpha virt. eigenvalues --    2.78515   2.79276   2.79498   2.79529   2.79842
 Alpha virt. eigenvalues --    2.79990   2.80546   2.81363   2.81481   2.81857
 Alpha virt. eigenvalues --    2.82109   2.82709   2.83190   2.83219   2.84289
 Alpha virt. eigenvalues --    2.84330   2.85200   2.85295   2.85517   2.86148
 Alpha virt. eigenvalues --    2.86427   2.87239   2.87371   2.87762   2.88236
 Alpha virt. eigenvalues --    2.88267   2.88651   2.88913   2.89341   2.89726
 Alpha virt. eigenvalues --    2.90152   2.90802   2.91277   2.91374   2.91719
 Alpha virt. eigenvalues --    2.92312   2.93125   2.93386   2.93661   2.94368
 Alpha virt. eigenvalues --    2.95317   2.95806   2.96638   2.97073   2.97139
 Alpha virt. eigenvalues --    2.97273   2.97942   2.98386   2.98661   2.99187
 Alpha virt. eigenvalues --    2.99256   2.99963   3.01113   3.01217   3.01554
 Alpha virt. eigenvalues --    3.01746   3.02346   3.02761   3.02870   3.04135
 Alpha virt. eigenvalues --    3.04224   3.05111   3.05346   3.06549   3.07192
 Alpha virt. eigenvalues --    3.07232   3.07629   3.09136   3.09140   3.09684
 Alpha virt. eigenvalues --    3.09736   3.10264   3.10381   3.10927   3.11004
 Alpha virt. eigenvalues --    3.11523   3.12209   3.12777   3.13560   3.13705
 Alpha virt. eigenvalues --    3.13775   3.14222   3.14358   3.14507   3.14642
 Alpha virt. eigenvalues --    3.14877   3.15909   3.15985   3.16248   3.17164
 Alpha virt. eigenvalues --    3.17673   3.17830   3.18623   3.18783   3.19965
 Alpha virt. eigenvalues --    3.20364   3.20700   3.21020   3.21366   3.21542
 Alpha virt. eigenvalues --    3.22332   3.22649   3.22748   3.23510   3.24249
 Alpha virt. eigenvalues --    3.24651   3.26076   3.26376   3.26708   3.27154
 Alpha virt. eigenvalues --    3.27289   3.28216   3.28721   3.28759   3.29015
 Alpha virt. eigenvalues --    3.29194   3.29938   3.30124   3.30950   3.31038
 Alpha virt. eigenvalues --    3.31131   3.31330   3.31949   3.32099   3.32486
 Alpha virt. eigenvalues --    3.33305   3.33539   3.34240   3.35066   3.35427
 Alpha virt. eigenvalues --    3.35815   3.35918   3.36814   3.36937   3.37299
 Alpha virt. eigenvalues --    3.37913   3.38261   3.38464   3.38695   3.38784
 Alpha virt. eigenvalues --    3.39011   3.39959   3.40144   3.40459   3.41169
 Alpha virt. eigenvalues --    3.41668   3.42288   3.42648   3.43053   3.43820
 Alpha virt. eigenvalues --    3.44138   3.44679   3.44750   3.45526   3.46099
 Alpha virt. eigenvalues --    3.46296   3.46519   3.47233   3.47312   3.47824
 Alpha virt. eigenvalues --    3.48478   3.48785   3.49087   3.49627   3.49776
 Alpha virt. eigenvalues --    3.50079   3.50443   3.50691   3.51287   3.51531
 Alpha virt. eigenvalues --    3.52397   3.52862   3.53418   3.53708   3.53863
 Alpha virt. eigenvalues --    3.54445   3.54501   3.54678   3.55136   3.55932
 Alpha virt. eigenvalues --    3.55993   3.57939   3.58099   3.58598   3.59799
 Alpha virt. eigenvalues --    3.61317   3.62008   3.62284   3.62373   3.63714
 Alpha virt. eigenvalues --    3.64781   3.64886   3.66675   3.67006   3.67757
 Alpha virt. eigenvalues --    3.67895   3.68625   3.68802   3.69385   3.69397
 Alpha virt. eigenvalues --    3.70668   3.70931   3.71596   3.72338   3.73688
 Alpha virt. eigenvalues --    3.74056   3.75582   3.76054   3.76706   3.76818
 Alpha virt. eigenvalues --    3.77433   3.78489   3.79682   3.81346   3.81788
 Alpha virt. eigenvalues --    3.82540   3.83015   3.84075   3.86176   3.87786
 Alpha virt. eigenvalues --    3.89412   3.90128   3.90737   3.91383   3.92354
 Alpha virt. eigenvalues --    3.92544   3.93871   3.94772   3.95647   3.96083
 Alpha virt. eigenvalues --    3.96880   3.97833   3.97875   3.98266   3.99113
 Alpha virt. eigenvalues --    4.00723   4.01014   4.01557   4.03247   4.03379
 Alpha virt. eigenvalues --    4.04725   4.05266   4.05465   4.05741   4.08118
 Alpha virt. eigenvalues --    4.08523   4.09326   4.11068   4.11881   4.12681
 Alpha virt. eigenvalues --    4.12791   4.14244   4.14478   4.15122   4.15568
 Alpha virt. eigenvalues --    4.16185   4.16469   4.16744   4.17718   4.18255
 Alpha virt. eigenvalues --    4.18891   4.19286   4.20309   4.20727   4.20915
 Alpha virt. eigenvalues --    4.21713   4.21749   4.22623   4.22886   4.22979
 Alpha virt. eigenvalues --    4.23049   4.23601   4.24025   4.25191   4.25300
 Alpha virt. eigenvalues --    4.26113   4.26616   4.27886   4.28138   4.29157
 Alpha virt. eigenvalues --    4.29828   4.30203   4.31251   4.31402   4.32015
 Alpha virt. eigenvalues --    4.32753   4.33182   4.33711   4.34799   4.35284
 Alpha virt. eigenvalues --    4.37396   4.38327   4.38998   4.40099   4.41357
 Alpha virt. eigenvalues --    4.42495   4.45040   4.45772   4.49525   4.49584
 Alpha virt. eigenvalues --    4.50455   4.51774   4.52861   4.54010   4.54730
 Alpha virt. eigenvalues --    4.57217   4.57964   4.59290   4.60038   4.62759
 Alpha virt. eigenvalues --    4.63591   4.64433   4.64434   4.65886   4.68042
 Alpha virt. eigenvalues --    4.68253   4.68542   4.69600   4.70685   4.71794
 Alpha virt. eigenvalues --    4.72024   4.73443   4.73503   4.75558   4.76152
 Alpha virt. eigenvalues --    4.76757   4.77622   4.80312   4.80816   4.82874
 Alpha virt. eigenvalues --    4.84282   4.85741   4.85775   4.87519   4.88399
 Alpha virt. eigenvalues --    4.89093   4.90957   4.93107   4.94157   4.95415
 Alpha virt. eigenvalues --    4.96856   4.98337   4.99102   4.99871   5.03461
 Alpha virt. eigenvalues --    5.07276   5.10064   5.10983   5.12862   5.15227
 Alpha virt. eigenvalues --    5.15851   5.17000   5.17227   5.19855   5.21186
 Alpha virt. eigenvalues --    5.22515   5.22667   5.23760   5.24483   5.24568
 Alpha virt. eigenvalues --    5.25738   5.26398   5.28636   5.30139   5.31726
 Alpha virt. eigenvalues --    5.34021   5.38332   5.39277   5.41554   5.42600
 Alpha virt. eigenvalues --    5.45137   5.47004   5.49846   5.50041   5.51153
 Alpha virt. eigenvalues --    5.53915   5.58068   5.59920   5.61139   5.65472
 Alpha virt. eigenvalues --    5.65535   5.67798   5.72132   5.74108   5.74950
 Alpha virt. eigenvalues --    5.79768   5.84870   5.85024   5.89476   5.89830
 Alpha virt. eigenvalues --    5.91978   6.06152   6.16577   6.19911   6.35249
 Alpha virt. eigenvalues --    6.41270   6.47301   6.54841   6.59087   6.63710
 Alpha virt. eigenvalues --    6.81869   6.85458   6.88003   7.01088   7.12237
 Alpha virt. eigenvalues --    7.26295   7.41300   7.49604  22.14747  22.24748
 Alpha virt. eigenvalues --   22.30114  22.51562  22.57133  22.58816  22.59860
 Alpha virt. eigenvalues --   22.61827  22.65004  22.69655  22.69822  22.71776
 Alpha virt. eigenvalues --   22.75016  22.77065  22.79972  22.83017  22.85788
 Alpha virt. eigenvalues --   22.92570  22.93297  23.00811  23.03206  23.09825
 Alpha virt. eigenvalues --   23.20573  23.23874  23.24914  23.33698  23.47850
 Alpha virt. eigenvalues --   23.56205  23.79695  23.97147  24.24072  44.03256
 Alpha virt. eigenvalues --   44.48053
          Condensed to atoms (all electrons):
 Mulliken charges:
               1
     1  C   -0.115978
     2  C   -0.230279
     3  C    0.122118
     4  C    0.042777
     5  C   -0.190433
     6  C   -0.155550
     7  C   -0.339593
     8  C    0.237907
     9  C   -0.147349
    10  C    0.116853
    11  C    0.138019
    12  C    0.242302
    13  C    0.346524
    14  H    0.149131
    15  H    0.152737
    16  H    0.146710
    17  H    0.171046
    18  H    0.151958
    19  C    0.066929
    20  C   -0.208671
    21  C   -0.208673
    22  C   -0.177003
    23  H    0.142127
    24  C   -0.177002
    25  H    0.142127
    26  C   -0.130584
    27  H    0.145222
    28  H    0.145223
    29  H    0.147570
    30  O   -0.328774
    31  O   -0.213637
    32  C   -0.224982
    33  C   -0.331995
    34  C    0.025316
    35  C   -0.201578
    36  H    0.154803
    37  H    0.158579
    38  H    0.148218
    39  C    0.033574
    40  C    0.126786
    41  C   -0.007496
    42  C   -0.192995
    43  C   -0.192953
    44  C   -0.163437
    45  H    0.154653
    46  C   -0.163257
    47  H    0.154808
    48  C   -0.118795
    49  H    0.151447
    50  H    0.151512
    51  H    0.154035
 Sum of Mulliken charges =  -0.00000
 Mulliken charges with hydrogens summed into heavy atoms:
               1
     1  C    0.036759
     2  C   -0.083569
     3  C    0.122118
     4  C    0.042777
     5  C   -0.019387
     6  C   -0.003592
     7  C   -0.190461
     8  C    0.237907
     9  C   -0.147349
    10  C    0.116853
    11  C    0.138019
    12  C    0.242302
    13  C    0.346524
    19  C    0.066929
    20  C   -0.066544
    21  C   -0.066546
    22  C   -0.031781
    24  C   -0.031779
    26  C    0.016986
    30  O   -0.328774
    31  O   -0.213637
    32  C   -0.066403
    33  C   -0.183776
    34  C    0.025316
    35  C   -0.046774
    39  C    0.033574
    40  C    0.126786
    41  C   -0.007496
    42  C   -0.038341
    43  C   -0.038145
    44  C   -0.011991
    46  C   -0.011745
    48  C    0.035240
 Electronic spatial extent (au):  <R**2>=          23914.1726
 Charge=             -0.0000 electrons
 Dipole moment (field-independent basis, Debye):
    X=              0.1638    Y=              6.4562    Z=              0.0000  Tot=              6.4583
 Quadrupole moment (field-independent basis, Debye-Ang):
   XX=           -138.5823   YY=           -172.8285   ZZ=           -191.3260
   XY=            -11.1986   XZ=             -0.0002   YZ=             -0.0004
 Traceless Quadrupole moment (field-independent basis, Debye-Ang):
   XX=             28.9967   YY=             -5.2496   ZZ=            -23.7471
   XY=            -11.1986   XZ=             -0.0002   YZ=             -0.0004
 Octapole moment (field-independent basis, Debye-Ang**2):
  XXX=            242.3321  YYY=             90.8977  ZZZ=              0.0007  XYY=              0.7987
  XXY=             -1.2107  XXZ=             -0.0049  XZZ=            -53.8153  YZZ=            -28.7191
  YYZ=              0.0002  XYZ=              0.0017
 Hexadecapole moment (field-independent basis, Debye-Ang**3):
 XXXX=         -23469.9047 YYYY=          -3961.9282 ZZZZ=           -447.9904 XXXY=           -219.0806
 XXXZ=             -0.0051 YYYX=           -224.0696 YYYZ=              0.0086 ZZZX=              0.0143
 ZZZY=              0.0153 XXYY=          -4668.9977 XXZZ=          -5236.1046 YYZZ=           -814.0928
 XXYZ=              0.0057 YYXZ=              0.0031 ZZXY=            124.8555
 N-N= 2.785675611322D+03 E-N=-8.693733013941D+03  KE= 1.336393756791D+03
 Leave Link  601 at Mon Feb 15 08:12:42 2021, MaxMem=  5242880000 cpu:         6.1
 (Enter /opt/nce/packages/global/g09/l9999.exe)
 1\1\GINC-CN002\SP\RB3LYP TD-FC\Gen\C31H18O2\PNG4RJV\15-Feb-2021\0\\#p 
 b3lyp chkbasis geom=allcheck Guess=Read int=ultrafine scrf=(SMD,solven
 t=Acetonitrile) td=(NStates=30) EmpiricalDispersion=GD3BJ\\Title\\0,1\
 C,0,5.1707583218,3.7722764383,0.0000211079\C,0,3.8075166924,3.65420895
 59,0.0000275921\C,0,3.192535997,2.376410049,0.0000148616\C,0,4.0090869
 922,1.2052866619,-0.0000021454\C,0,5.4198833437,1.3679825766,-0.000010
 761\C,0,5.9834031028,2.616487023,0.0000007816\C,0,1.7954847564,2.24475
 12995,0.0000148455\C,0,3.3904360677,-0.0757548696,-0.0000106946\C,0,2.
 0006774632,-0.1704177661,-0.0000062488\C,0,1.1865385736,1.0098343809,0
 .0000010396\C,0,-0.2651824472,0.8687120449,-0.0000075546\C,0,-0.812389
 6809,-0.41374454,-0.0000102671\C,0,1.3521957939,-1.4961320035,0.000000
 2005\H,0,1.2050156167,3.1495244552,0.0000252495\H,0,5.6324801317,4.751
 4216606,0.0000304684\H,0,3.1741992513,4.5326645233,0.0000411427\H,0,6.
 0534346278,0.4935280516,-0.0000269493\H,0,7.0607148259,2.7213117062,-0
 .0000061568\C,0,4.2891117415,-1.264089174,-0.0000299289\C,0,4.74609885
 98,-1.7993372268,-1.2025025368\C,0,4.7461710815,-1.7993237872,1.202421
 4781\C,0,5.629590209,-2.8721183302,-1.202765139\H,0,4.4037643253,-1.37
 68783218,-2.138855896\C,0,5.6296613146,-2.8721056654,1.2026431876\H,0,
 4.4038932702,-1.3768537175,2.138790572\C,0,6.0724287009,-3.4136528162,
 -0.0000712813\H,0,5.9747661775,-3.2830831352,-2.1433384593\H,0,5.97489
 25618,-3.283061126,2.1432002806\H,0,6.7613736063,-4.248910758,-0.00008
 70751\O,0,1.9009509546,-2.5692685352,0.0000136064\O,0,-0.0183058256,-1
 .530063786,-0.0000028448\C,0,-1.1679565379,1.9442066417,-0.0000169605\
 C,0,-2.1776257106,-0.6460058604,-0.0000183293\C,0,-3.0593790725,0.4368
 779363,-0.0000251029\C,0,-2.5309683,1.7418950392,-0.0000250805\H,0,-3.
 204518146,2.5876261814,-0.0000320651\H,0,-0.7965283565,2.9584328132,-0
 .0000193324\H,0,-2.5447455957,-1.6627097248,-0.000019304\C,0,-4.462123
 8586,0.226497886,-0.0000328875\C,0,-5.6593557448,0.0572130286,-0.00003
 57607\C,0,-7.0660819434,-0.1402490338,-0.000016471\C,0,-7.9382735135,0
 .9598709498,-0.0000096765\C,0,-7.6025971807,-1.4375369227,-0.000005162
 1\C,0,-9.3107786526,0.7620157438,0.000007824\H,0,-7.5291344428,1.96146
 79055,-0.000018465\C,0,-8.9766655728,-1.62425422,0.0000122869\H,0,-6.9
 340352047,-2.2882082761,-0.0000105407\C,0,-9.8345902991,-0.5278536375,
 0.0000190325\H,0,-9.9745276497,1.6172195388,0.0000128784\H,0,-9.379926
 2003,-2.628870091,0.0000207311\H,0,-10.9065544252,-0.678135166,0.00003
 29103\\Version=ES64L-G09RevE.01\State=1-A\HF=-1343.2294311\RMSD=1.772e
 -09\PG=C01 [X(C31H18O2)]\\@


 THERE IS SOMETHING FASCINATING ABOUT SCIENCE.
 ONE GETS SUCH WHOLESALE CONJECTURE OUT OF SUCH TRIFLING INVESTMENTS.

                                                       -- MARK TWAIN
 Job cpu time:       1 days 17 hours 53 minutes 53.3 seconds.
 File lengths (MBytes):  RWF=   6330 Int=      0 D2E=      0 Chk=   1136 Scr=      1
 Normal termination of Gaussian 09 at Mon Feb 15 08:12:44 2021.
