 Entering Gaussian System, Link 0=g09
 Input=/home/png4rjv/fotokatalizis/benchmark/OPCs/NCE_3_TDHF_def2TZVP.gjf
 Output=/home/png4rjv/fotokatalizis/benchmark/OPCs/NCE_3_TDHF_def2TZVP.log
 Initial command:
 /opt/nce/packages/global/g09/l1.exe "/home/png4rjv/fotokatalizis/benchmark/OPCs/NCE_3_TDHF_def2TZVP/Gau-35386.inp" -scrdir="/home/png4rjv/fotokatalizis/benchmark/OPCs/NCE_3_TDHF_def2TZVP/"
 Default is to use a total of  12 processors:
                               12 via shared-memory
                                1 via Linda
 Entering Link 1 = /opt/nce/packages/global/g09/l1.exe PID=     35387.
  
 Copyright (c) 1988,1990,1992,1993,1995,1998,2003,2009,2015,
            Gaussian, Inc.  All Rights Reserved.
  
 This is part of the Gaussian(R) 09 program.  It is based on
 the Gaussian(R) 03 system (copyright 2003, Gaussian, Inc.),
 the Gaussian(R) 98 system (copyright 1998, Gaussian, Inc.),
 the Gaussian(R) 94 system (copyright 1995, Gaussian, Inc.),
 the Gaussian 92(TM) system (copyright 1992, Gaussian, Inc.),
 the Gaussian 90(TM) system (copyright 1990, Gaussian, Inc.),
 the Gaussian 88(TM) system (copyright 1988, Gaussian, Inc.),
 the Gaussian 86(TM) system (copyright 1986, Carnegie Mellon
 University), and the Gaussian 82(TM) system (copyright 1983,
 Carnegie Mellon University). Gaussian is a federally registered
 trademark of Gaussian, Inc.
  
 This software contains proprietary and confidential information,
 including trade secrets, belonging to Gaussian, Inc.
  
 This software is provided under written license and may be
 used, copied, transmitted, or stored only in accord with that
 written license.
  
 The following legend is applicable only to US Government
 contracts under FAR:
  
                    RESTRICTED RIGHTS LEGEND
  
 Use, reproduction and disclosure by the US Government is
 subject to restrictions as set forth in subparagraphs (a)
 and (c) of the Commercial Computer Software - Restricted
 Rights clause in FAR 52.227-19.
  
 Gaussian, Inc.
 340 Quinnipiac St., Bldg. 40, Wallingford CT 06492
  
  
 ---------------------------------------------------------------
 Warning -- This program may not be used in any manner that
 competes with the business of Gaussian, Inc. or will provide
 assistance to any competitor of Gaussian, Inc.  The licensee
 of this program is prohibited from giving any competitor of
 Gaussian, Inc. access to this program.  By using this program,
 the user acknowledges that Gaussian, Inc. is engaged in the
 business of creating and licensing software in the field of
 computational chemistry and represents and warrants to the
 licensee that it is not a competitor of Gaussian, Inc. and that
 it will not use this program in any manner prohibited above.
 ---------------------------------------------------------------
  

 Cite this work as:
 Gaussian 09, Revision E.01,
 M. J. Frisch, G. W. Trucks, H. B. Schlegel, G. E. Scuseria, 
 M. A. Robb, J. R. Cheeseman, G. Scalmani, V. Barone, B. Mennucci, 
 G. A. Petersson, H. Nakatsuji, M. Caricato, X. Li, H. P. Hratchian, 
 A. F. Izmaylov, J. Bloino, G. Zheng, J. L. Sonnenberg, M. Hada, 
 M. Ehara, K. Toyota, R. Fukuda, J. Hasegawa, M. Ishida, T. Nakajima, 
 Y. Honda, O. Kitao, H. Nakai, T. Vreven, J. A. Montgomery, Jr., 
 J. E. Peralta, F. Ogliaro, M. Bearpark, J. J. Heyd, E. Brothers, 
 K. N. Kudin, V. N. Staroverov, T. Keith, R. Kobayashi, J. Normand, 
 K. Raghavachari, A. Rendell, J. C. Burant, S. S. Iyengar, J. Tomasi, 
 M. Cossi, N. Rega, J. M. Millam, M. Klene, J. E. Knox, J. B. Cross, 
 V. Bakken, C. Adamo, J. Jaramillo, R. Gomperts, R. E. Stratmann, 
 O. Yazyev, A. J. Austin, R. Cammi, C. Pomelli, J. W. Ochterski, 
 R. L. Martin, K. Morokuma, V. G. Zakrzewski, G. A. Voth, 
 P. Salvador, J. J. Dannenberg, S. Dapprich, A. D. Daniels, 
 O. Farkas, J. B. Foresman, J. V. Ortiz, J. Cioslowski, 
 and D. J. Fox, Gaussian, Inc., Wallingford CT, 2013.
 
 ******************************************
 Gaussian 09:  ES64L-G09RevE.01 30-Nov-2015
                 1-Apr-2021 
 ******************************************
 %chk=cp.chk
 Default route:  MaxDisk=500GB
 ----------------------------------------------------------------------
 #p hf/def2TZVP opt freq=noraman nosymm int=ultrafine scrf=(SMD,solvent
 =Acetonitrile)
 ----------------------------------------------------------------------
 1/14=-1,18=20,19=15,38=1/1,3;
 2/9=110,12=2,15=1,17=6,18=5,40=1/2;
 3/5=44,7=101,11=9,16=1,25=1,30=1,70=32201,71=1,72=2,75=-5/1,2,3;
 4//1;
 5/5=2,38=5,53=2/2;
 6/7=2,8=2,9=2,10=2,28=1/1;
 7/30=1/1,2,3,16;
 1/14=-1,18=20,19=15/3(2);
 2/9=110,15=1/2;
 99//99;
 2/9=110,15=1/2;
 3/5=44,7=101,11=9,16=1,25=1,30=1,70=32205,71=1,72=2,75=-5/1,2,3;
 4/5=5,16=3,69=1/1;
 5/5=2,38=5,53=2/2;
 7/30=1/1,2,3,16;
 1/14=-1,18=20,19=15/3(-5);
 2/9=110,15=1/2;
 6/7=2,8=2,9=2,10=2,19=2,28=1/1;
 99/9=1/99;
 Leave Link    1 at Thu Apr  1 22:53:19 2021, MaxMem=           0 cpu:         1.5
 (Enter /opt/nce/packages/global/g09/l101.exe)
 -----
 Title
 -----
 Symbolic Z-matrix:
 Charge =  0 Multiplicity = 1
 C                     5.22431   3.78773  -0.00001 
 C                     3.85226   3.6795   -0.00001 
 C                     3.22243   2.40223   0.00001 
 C                     4.03518   1.22012   0.00003 
 C                     5.4529    1.37089   0.00002 
 C                     6.03129   2.62119   0.00001 
 C                     1.81753   2.27406   0.00001 
 C                     3.40575  -0.06442   0.00004 
 C                     2.00957  -0.15217   0.00006 
 C                     1.19775   1.03538   0.00004 
 C                    -0.25946   0.89257   0.00003 
 C                    -0.80578  -0.40192   0.00005 
 C                     1.35998  -1.49127   0.00012 
 H                     1.22237   3.18746  -0.00002 
 H                     5.69664   4.77289  -0.00002 
 H                     3.22348   4.5733   -0.00002 
 H                     6.07735   0.47797   0.00003 
 H                     7.11937   2.71699   0.00001 
 C                     4.29589  -1.2642    0. 
 C                     4.74633  -1.81064  -1.20858 
 C                     4.74644  -1.81071   1.20852 
 C                     5.62192  -2.89767  -1.2084 
 H                     4.39981  -1.38363  -2.15242 
 C                     5.62202  -2.89773   1.2082 
 H                     4.39999  -1.38374   2.15241 
 C                     6.06081  -3.44571  -0.00014 
 H                     5.9615   -3.32009  -2.15722 
 H                     5.9617   -3.32022   2.15695 
 H                     6.74455  -4.29788  -0.00017 
 O                     1.91882  -2.55371   0.00018 
 O                    -0.01586  -1.51219   0.00011 
 C                    -1.16781   1.97142  -0.00006 
 C                    -2.18149  -0.62772   0.00004 
 C                    -3.07111   0.45835  -0.00003 
 C                    -2.5383    1.77025  -0.00009 
 H                    -3.21995   2.62165  -0.00018 
 H                    -0.78924   2.99376  -0.00013 
 H                    -2.54507  -1.65505   0.0001 
 C                    -4.47871   0.24503  -0.00007 
 C                    -5.68485   0.06699  -0.00004 
 C                    -7.09459  -0.14606  -0.00002 
 C                    -7.98648   0.94766   0.00002 
 C                    -7.62184  -1.4552   -0.00005 
 C                    -9.3634    0.73372   0.00004 
 H                    -7.58297   1.96185   0.00004 
 C                    -9.00025  -1.65923  -0.00003 
 H                    -6.93558  -2.30395  -0.00009 
 C                    -9.87539  -0.56801   0.00001 
 H                    -10.04354   1.58878   0.00007 
 H                    -9.39597  -2.67759  -0.00006 
 H                    -10.95549  -0.73193   0.00002 
 
 NAtoms=     51 NQM=       51 NQMF=       0 NMMI=      0 NMMIF=      0
                NMic=       0 NMicF=      0.
                    Isotopes and Nuclear Properties:
 (Nuclear quadrupole moments (NQMom) in fm**2, nuclear magnetic moments (NMagM)
  in nuclear magnetons)

  Atom         1           2           3           4           5           6           7           8           9          10
 IAtWgt=          12          12          12          12          12          12          12          12          12          12
 AtmWgt=  12.0000000  12.0000000  12.0000000  12.0000000  12.0000000  12.0000000  12.0000000  12.0000000  12.0000000  12.0000000
 NucSpn=           0           0           0           0           0           0           0           0           0           0
 AtZEff=   0.0000000   0.0000000   0.0000000   0.0000000   0.0000000   0.0000000   0.0000000   0.0000000   0.0000000   0.0000000
 NQMom=    0.0000000   0.0000000   0.0000000   0.0000000   0.0000000   0.0000000   0.0000000   0.0000000   0.0000000   0.0000000
 NMagM=    0.0000000   0.0000000   0.0000000   0.0000000   0.0000000   0.0000000   0.0000000   0.0000000   0.0000000   0.0000000
 AtZNuc=   6.0000000   6.0000000   6.0000000   6.0000000   6.0000000   6.0000000   6.0000000   6.0000000   6.0000000   6.0000000

  Atom        11          12          13          14          15          16          17          18          19          20
 IAtWgt=          12          12          12           1           1           1           1           1          12          12
 AtmWgt=  12.0000000  12.0000000  12.0000000   1.0078250   1.0078250   1.0078250   1.0078250   1.0078250  12.0000000  12.0000000
 NucSpn=           0           0           0           1           1           1           1           1           0           0
 AtZEff=   0.0000000   0.0000000   0.0000000   0.0000000   0.0000000   0.0000000   0.0000000   0.0000000   0.0000000   0.0000000
 NQMom=    0.0000000   0.0000000   0.0000000   0.0000000   0.0000000   0.0000000   0.0000000   0.0000000   0.0000000   0.0000000
 NMagM=    0.0000000   0.0000000   0.0000000   2.7928460   2.7928460   2.7928460   2.7928460   2.7928460   0.0000000   0.0000000
 AtZNuc=   6.0000000   6.0000000   6.0000000   1.0000000   1.0000000   1.0000000   1.0000000   1.0000000   6.0000000   6.0000000

  Atom        21          22          23          24          25          26          27          28          29          30
 IAtWgt=          12          12           1          12           1          12           1           1           1          16
 AtmWgt=  12.0000000  12.0000000   1.0078250  12.0000000   1.0078250  12.0000000   1.0078250   1.0078250   1.0078250  15.9949146
 NucSpn=           0           0           1           0           1           0           1           1           1           0
 AtZEff=   0.0000000   0.0000000   0.0000000   0.0000000   0.0000000   0.0000000   0.0000000   0.0000000   0.0000000   0.0000000
 NQMom=    0.0000000   0.0000000   0.0000000   0.0000000   0.0000000   0.0000000   0.0000000   0.0000000   0.0000000   0.0000000
 NMagM=    0.0000000   0.0000000   2.7928460   0.0000000   2.7928460   0.0000000   2.7928460   2.7928460   2.7928460   0.0000000
 AtZNuc=   6.0000000   6.0000000   1.0000000   6.0000000   1.0000000   6.0000000   1.0000000   1.0000000   1.0000000   8.0000000

  Atom        31          32          33          34          35          36          37          38          39          40
 IAtWgt=          16          12          12          12          12           1           1           1          12          12
 AtmWgt=  15.9949146  12.0000000  12.0000000  12.0000000  12.0000000   1.0078250   1.0078250   1.0078250  12.0000000  12.0000000
 NucSpn=           0           0           0           0           0           1           1           1           0           0
 AtZEff=   0.0000000   0.0000000   0.0000000   0.0000000   0.0000000   0.0000000   0.0000000   0.0000000   0.0000000   0.0000000
 NQMom=    0.0000000   0.0000000   0.0000000   0.0000000   0.0000000   0.0000000   0.0000000   0.0000000   0.0000000   0.0000000
 NMagM=    0.0000000   0.0000000   0.0000000   0.0000000   0.0000000   2.7928460   2.7928460   2.7928460   0.0000000   0.0000000
 AtZNuc=   8.0000000   6.0000000   6.0000000   6.0000000   6.0000000   1.0000000   1.0000000   1.0000000   6.0000000   6.0000000

  Atom        41          42          43          44          45          46          47          48          49          50
 IAtWgt=          12          12          12          12           1          12           1          12           1           1
 AtmWgt=  12.0000000  12.0000000  12.0000000  12.0000000   1.0078250  12.0000000   1.0078250  12.0000000   1.0078250   1.0078250
 NucSpn=           0           0           0           0           1           0           1           0           1           1
 AtZEff=   0.0000000   0.0000000   0.0000000   0.0000000   0.0000000   0.0000000   0.0000000   0.0000000   0.0000000   0.0000000
 NQMom=    0.0000000   0.0000000   0.0000000   0.0000000   0.0000000   0.0000000   0.0000000   0.0000000   0.0000000   0.0000000
 NMagM=    0.0000000   0.0000000   0.0000000   0.0000000   2.7928460   0.0000000   2.7928460   0.0000000   2.7928460   2.7928460
 AtZNuc=   6.0000000   6.0000000   6.0000000   6.0000000   1.0000000   6.0000000   1.0000000   6.0000000   1.0000000   1.0000000

  Atom        51
 IAtWgt=           1
 AtmWgt=   1.0078250
 NucSpn=           1
 AtZEff=   0.0000000
 NQMom=    0.0000000
 NMagM=    2.7928460
 AtZNuc=   1.0000000
 Leave Link  101 at Thu Apr  1 22:53:19 2021, MaxMem=  5242880000 cpu:         5.6
 (Enter /opt/nce/packages/global/g09/l103.exe)

 GradGradGradGradGradGradGradGradGradGradGradGradGradGradGradGradGradGrad
 Berny optimization.
 Initialization pass.
                           ----------------------------
                           !    Initial Parameters    !
                           ! (Angstroms and Degrees)  !
 --------------------------                            --------------------------
 ! Name  Definition              Value          Derivative Info.                !
 --------------------------------------------------------------------------------
 ! R1    R(1,2)                  1.3763         estimate D2E/DX2                !
 ! R2    R(1,6)                  1.4185         estimate D2E/DX2                !
 ! R3    R(1,15)                 1.0925         estimate D2E/DX2                !
 ! R4    R(2,3)                  1.4241         estimate D2E/DX2                !
 ! R5    R(2,16)                 1.0928         estimate D2E/DX2                !
 ! R6    R(3,4)                  1.4346         estimate D2E/DX2                !
 ! R7    R(3,7)                  1.4107         estimate D2E/DX2                !
 ! R8    R(4,5)                  1.4257         estimate D2E/DX2                !
 ! R9    R(4,8)                  1.4305         estimate D2E/DX2                !
 ! R10   R(5,6)                  1.3776         estimate D2E/DX2                !
 ! R11   R(5,17)                 1.0896         estimate D2E/DX2                !
 ! R12   R(6,18)                 1.0923         estimate D2E/DX2                !
 ! R13   R(7,10)                 1.3851         estimate D2E/DX2                !
 ! R14   R(7,14)                 1.0902         estimate D2E/DX2                !
 ! R15   R(8,9)                  1.3989         estimate D2E/DX2                !
 ! R16   R(8,19)                 1.4939         estimate D2E/DX2                !
 ! R17   R(9,10)                 1.4385         estimate D2E/DX2                !
 ! R18   R(9,13)                 1.4883         estimate D2E/DX2                !
 ! R19   R(10,11)                1.4642         estimate D2E/DX2                !
 ! R20   R(11,12)                1.405          estimate D2E/DX2                !
 ! R21   R(11,32)                1.4103         estimate D2E/DX2                !
 ! R22   R(12,31)                1.3626         estimate D2E/DX2                !
 ! R23   R(12,33)                1.3941         estimate D2E/DX2                !
 ! R24   R(13,30)                1.2004         estimate D2E/DX2                !
 ! R25   R(13,31)                1.376          estimate D2E/DX2                !
 ! R26   R(19,20)                1.4008         estimate D2E/DX2                !
 ! R27   R(19,21)                1.4008         estimate D2E/DX2                !
 ! R28   R(20,22)                1.3958         estimate D2E/DX2                !
 ! R29   R(20,23)                1.0924         estimate D2E/DX2                !
 ! R30   R(21,24)                1.3958         estimate D2E/DX2                !
 ! R31   R(21,25)                1.0924         estimate D2E/DX2                !
 ! R32   R(22,26)                1.3974         estimate D2E/DX2                !
 ! R33   R(22,27)                1.0927         estimate D2E/DX2                !
 ! R34   R(24,26)                1.3975         estimate D2E/DX2                !
 ! R35   R(24,28)                1.0927         estimate D2E/DX2                !
 ! R36   R(26,29)                1.0926         estimate D2E/DX2                !
 ! R37   R(32,35)                1.3852         estimate D2E/DX2                !
 ! R38   R(32,37)                1.0902         estimate D2E/DX2                !
 ! R39   R(33,34)                1.4039         estimate D2E/DX2                !
 ! R40   R(33,38)                1.0898         estimate D2E/DX2                !
 ! R41   R(34,35)                1.416          estimate D2E/DX2                !
 ! R42   R(34,39)                1.4237         estimate D2E/DX2                !
 ! R43   R(35,36)                1.0907         estimate D2E/DX2                !
 ! R44   R(39,40)                1.2192         estimate D2E/DX2                !
 ! R45   R(40,41)                1.4257         estimate D2E/DX2                !
 ! R46   R(41,42)                1.4113         estimate D2E/DX2                !
 ! R47   R(41,43)                1.4113         estimate D2E/DX2                !
 ! R48   R(42,44)                1.3934         estimate D2E/DX2                !
 ! R49   R(42,45)                1.0915         estimate D2E/DX2                !
 ! R50   R(43,46)                1.3934         estimate D2E/DX2                !
 ! R51   R(43,47)                1.0915         estimate D2E/DX2                !
 ! R52   R(44,48)                1.3988         estimate D2E/DX2                !
 ! R53   R(44,49)                1.0926         estimate D2E/DX2                !
 ! R54   R(46,48)                1.3988         estimate D2E/DX2                !
 ! R55   R(46,50)                1.0925         estimate D2E/DX2                !
 ! R56   R(48,51)                1.0925         estimate D2E/DX2                !
 ! A1    A(2,1,6)              120.1643         estimate D2E/DX2                !
 ! A2    A(2,1,15)             120.1254         estimate D2E/DX2                !
 ! A3    A(6,1,15)             119.7103         estimate D2E/DX2                !
 ! A4    A(1,2,3)              120.7583         estimate D2E/DX2                !
 ! A5    A(1,2,16)             120.6157         estimate D2E/DX2                !
 ! A6    A(3,2,16)             118.626          estimate D2E/DX2                !
 ! A7    A(2,3,4)              119.2417         estimate D2E/DX2                !
 ! A8    A(2,3,7)              121.4608         estimate D2E/DX2                !
 ! A9    A(4,3,7)              119.2975         estimate D2E/DX2                !
 ! A10   A(3,4,5)              118.4398         estimate D2E/DX2                !
 ! A11   A(3,4,8)              119.3847         estimate D2E/DX2                !
 ! A12   A(5,4,8)              122.1755         estimate D2E/DX2                !
 ! A13   A(4,5,6)              120.8955         estimate D2E/DX2                !
 ! A14   A(4,5,17)             118.8964         estimate D2E/DX2                !
 ! A15   A(6,5,17)             120.2081         estimate D2E/DX2                !
 ! A16   A(1,6,5)              120.5004         estimate D2E/DX2                !
 ! A17   A(1,6,18)             119.6427         estimate D2E/DX2                !
 ! A18   A(5,6,18)             119.8569         estimate D2E/DX2                !
 ! A19   A(3,7,10)             121.7937         estimate D2E/DX2                !
 ! A20   A(3,7,14)             117.8751         estimate D2E/DX2                !
 ! A21   A(10,7,14)            120.3312         estimate D2E/DX2                !
 ! A22   A(4,8,9)              119.7016         estimate D2E/DX2                !
 ! A23   A(4,8,19)             117.3222         estimate D2E/DX2                !
 ! A24   A(9,8,19)             122.9763         estimate D2E/DX2                !
 ! A25   A(8,9,10)             120.7604         estimate D2E/DX2                !
 ! A26   A(8,9,13)             119.4741         estimate D2E/DX2                !
 ! A27   A(10,9,13)            119.7655         estimate D2E/DX2                !
 ! A28   A(7,10,9)             119.0621         estimate D2E/DX2                !
 ! A29   A(7,10,11)            122.1784         estimate D2E/DX2                !
 ! A30   A(9,10,11)            118.7595         estimate D2E/DX2                !
 ! A31   A(10,11,12)           118.4786         estimate D2E/DX2                !
 ! A32   A(10,11,32)           124.4985         estimate D2E/DX2                !
 ! A33   A(12,11,32)           117.0228         estimate D2E/DX2                !
 ! A34   A(11,12,31)           121.6881         estimate D2E/DX2                !
 ! A35   A(11,12,33)           122.2025         estimate D2E/DX2                !
 ! A36   A(31,12,33)           116.1094         estimate D2E/DX2                !
 ! A37   A(9,13,30)            126.3782         estimate D2E/DX2                !
 ! A38   A(9,13,31)            116.7487         estimate D2E/DX2                !
 ! A39   A(30,13,31)           116.8731         estimate D2E/DX2                !
 ! A40   A(8,19,20)            120.326          estimate D2E/DX2                !
 ! A41   A(8,19,21)            120.3282         estimate D2E/DX2                !
 ! A42   A(20,19,21)           119.2582         estimate D2E/DX2                !
 ! A43   A(19,20,22)           120.3587         estimate D2E/DX2                !
 ! A44   A(19,20,23)           119.4054         estimate D2E/DX2                !
 ! A45   A(22,20,23)           120.234          estimate D2E/DX2                !
 ! A46   A(19,21,24)           120.3584         estimate D2E/DX2                !
 ! A47   A(19,21,25)           119.4047         estimate D2E/DX2                !
 ! A48   A(24,21,25)           120.2351         estimate D2E/DX2                !
 ! A49   A(20,22,26)           120.168          estimate D2E/DX2                !
 ! A50   A(20,22,27)           119.7289         estimate D2E/DX2                !
 ! A51   A(26,22,27)           120.103          estimate D2E/DX2                !
 ! A52   A(21,24,26)           120.1683         estimate D2E/DX2                !
 ! A53   A(21,24,28)           119.7304         estimate D2E/DX2                !
 ! A54   A(26,24,28)           120.1012         estimate D2E/DX2                !
 ! A55   A(22,26,24)           119.6837         estimate D2E/DX2                !
 ! A56   A(22,26,29)           120.1593         estimate D2E/DX2                !
 ! A57   A(24,26,29)           120.1569         estimate D2E/DX2                !
 ! A58   A(12,31,13)           124.5596         estimate D2E/DX2                !
 ! A59   A(11,32,35)           121.7451         estimate D2E/DX2                !
 ! A60   A(11,32,37)           119.5848         estimate D2E/DX2                !
 ! A61   A(35,32,37)           118.6702         estimate D2E/DX2                !
 ! A62   A(12,33,34)           120.0002         estimate D2E/DX2                !
 ! A63   A(12,33,38)           118.8104         estimate D2E/DX2                !
 ! A64   A(34,33,38)           121.1894         estimate D2E/DX2                !
 ! A65   A(33,34,35)           118.5745         estimate D2E/DX2                !
 ! A66   A(33,34,39)           120.7038         estimate D2E/DX2                !
 ! A67   A(35,34,39)           120.7216         estimate D2E/DX2                !
 ! A68   A(32,35,34)           120.4549         estimate D2E/DX2                !
 ! A69   A(32,35,36)           120.3308         estimate D2E/DX2                !
 ! A70   A(34,35,36)           119.2144         estimate D2E/DX2                !
 ! A71   A(40,41,42)           120.602          estimate D2E/DX2                !
 ! A72   A(40,41,43)           120.5312         estimate D2E/DX2                !
 ! A73   A(42,41,43)           118.8668         estimate D2E/DX2                !
 ! A74   A(41,42,44)           120.3642         estimate D2E/DX2                !
 ! A75   A(41,42,45)           119.1079         estimate D2E/DX2                !
 ! A76   A(44,42,45)           120.528          estimate D2E/DX2                !
 ! A77   A(41,43,46)           120.3569         estimate D2E/DX2                !
 ! A78   A(41,43,47)           119.1053         estimate D2E/DX2                !
 ! A79   A(46,43,47)           120.5377         estimate D2E/DX2                !
 ! A80   A(42,44,48)           120.3025         estimate D2E/DX2                !
 ! A81   A(42,44,49)           119.668          estimate D2E/DX2                !
 ! A82   A(48,44,49)           120.0295         estimate D2E/DX2                !
 ! A83   A(43,46,48)           120.3093         estimate D2E/DX2                !
 ! A84   A(43,46,50)           119.6554         estimate D2E/DX2                !
 ! A85   A(48,46,50)           120.0353         estimate D2E/DX2                !
 ! A86   A(44,48,46)           119.8003         estimate D2E/DX2                !
 ! A87   A(44,48,51)           120.1003         estimate D2E/DX2                !
 ! A88   A(46,48,51)           120.0994         estimate D2E/DX2                !
 ! A89   L(34,39,40,36,-1)     179.7793         estimate D2E/DX2                !
 ! A90   L(39,40,41,47,-1)     179.8028         estimate D2E/DX2                !
 ! A91   L(34,39,40,36,-2)     180.0034         estimate D2E/DX2                !
 ! A92   L(39,40,41,47,-2)     180.0004         estimate D2E/DX2                !
 ! D1    D(6,1,2,3)              0.0            estimate D2E/DX2                !
 ! D2    D(6,1,2,16)           180.0            estimate D2E/DX2                !
 ! D3    D(15,1,2,3)          -180.0            estimate D2E/DX2                !
 ! D4    D(15,1,2,16)            0.0            estimate D2E/DX2                !
 ! D5    D(2,1,6,5)              0.0002         estimate D2E/DX2                !
 ! D6    D(2,1,6,18)          -179.9999         estimate D2E/DX2                !
 ! D7    D(15,1,6,5)          -179.9998         estimate D2E/DX2                !
 ! D8    D(15,1,6,18)            0.0001         estimate D2E/DX2                !
 ! D9    D(1,2,3,4)             -0.0001         estimate D2E/DX2                !
 ! D10   D(1,2,3,7)           -179.9997         estimate D2E/DX2                !
 ! D11   D(16,2,3,4)           179.9999         estimate D2E/DX2                !
 ! D12   D(16,2,3,7)             0.0003         estimate D2E/DX2                !
 ! D13   D(2,3,4,5)              0.0            estimate D2E/DX2                !
 ! D14   D(2,3,4,8)           -180.0            estimate D2E/DX2                !
 ! D15   D(7,3,4,5)            179.9996         estimate D2E/DX2                !
 ! D16   D(7,3,4,8)             -0.0004         estimate D2E/DX2                !
 ! D17   D(2,3,7,10)          -179.9994         estimate D2E/DX2                !
 ! D18   D(2,3,7,14)             0.0003         estimate D2E/DX2                !
 ! D19   D(4,3,7,10)             0.001          estimate D2E/DX2                !
 ! D20   D(4,3,7,14)          -179.9993         estimate D2E/DX2                !
 ! D21   D(3,4,5,6)              0.0001         estimate D2E/DX2                !
 ! D22   D(3,4,5,17)          -179.9998         estimate D2E/DX2                !
 ! D23   D(8,4,5,6)           -179.9998         estimate D2E/DX2                !
 ! D24   D(8,4,5,17)             0.0002         estimate D2E/DX2                !
 ! D25   D(3,4,8,9)             -0.0004         estimate D2E/DX2                !
 ! D26   D(3,4,8,19)           179.9976         estimate D2E/DX2                !
 ! D27   D(5,4,8,9)            179.9995         estimate D2E/DX2                !
 ! D28   D(5,4,8,19)            -0.0024         estimate D2E/DX2                !
 ! D29   D(4,5,6,1)             -0.0002         estimate D2E/DX2                !
 ! D30   D(4,5,6,18)           179.9998         estimate D2E/DX2                !
 ! D31   D(17,5,6,1)           179.9997         estimate D2E/DX2                !
 ! D32   D(17,5,6,18)           -0.0003         estimate D2E/DX2                !
 ! D33   D(3,7,10,9)            -0.0007         estimate D2E/DX2                !
 ! D34   D(3,7,10,11)         -179.9998         estimate D2E/DX2                !
 ! D35   D(14,7,10,9)          179.9995         estimate D2E/DX2                !
 ! D36   D(14,7,10,11)           0.0004         estimate D2E/DX2                !
 ! D37   D(4,8,9,10)             0.0007         estimate D2E/DX2                !
 ! D38   D(4,8,9,13)          -179.998          estimate D2E/DX2                !
 ! D39   D(19,8,9,10)         -179.9972         estimate D2E/DX2                !
 ! D40   D(19,8,9,13)            0.0041         estimate D2E/DX2                !
 ! D41   D(4,8,19,20)          -88.2848         estimate D2E/DX2                !
 ! D42   D(4,8,19,21)           88.2857         estimate D2E/DX2                !
 ! D43   D(9,8,19,20)           91.7132         estimate D2E/DX2                !
 ! D44   D(9,8,19,21)          -91.7163         estimate D2E/DX2                !
 ! D45   D(8,9,10,7)            -0.0002         estimate D2E/DX2                !
 ! D46   D(8,9,10,11)          179.999          estimate D2E/DX2                !
 ! D47   D(13,9,10,7)          179.9985         estimate D2E/DX2                !
 ! D48   D(13,9,10,11)          -0.0023         estimate D2E/DX2                !
 ! D49   D(8,9,13,30)            0.0012         estimate D2E/DX2                !
 ! D50   D(8,9,13,31)         -179.9993         estimate D2E/DX2                !
 ! D51   D(10,9,13,30)        -179.9975         estimate D2E/DX2                !
 ! D52   D(10,9,13,31)           0.002          estimate D2E/DX2                !
 ! D53   D(7,10,11,12)         179.9997         estimate D2E/DX2                !
 ! D54   D(7,10,11,32)           0.0026         estimate D2E/DX2                !
 ! D55   D(9,10,11,12)           0.0006         estimate D2E/DX2                !
 ! D56   D(9,10,11,32)        -179.9966         estimate D2E/DX2                !
 ! D57   D(10,11,12,31)          0.0015         estimate D2E/DX2                !
 ! D58   D(10,11,12,33)       -179.9998         estimate D2E/DX2                !
 ! D59   D(32,11,12,31)        179.9989         estimate D2E/DX2                !
 ! D60   D(32,11,12,33)         -0.0025         estimate D2E/DX2                !
 ! D61   D(10,11,32,35)        179.9989         estimate D2E/DX2                !
 ! D62   D(10,11,32,37)          0.0002         estimate D2E/DX2                !
 ! D63   D(12,11,32,35)          0.0017         estimate D2E/DX2                !
 ! D64   D(12,11,32,37)       -179.997          estimate D2E/DX2                !
 ! D65   D(11,12,31,13)         -0.002          estimate D2E/DX2                !
 ! D66   D(33,12,31,13)        179.9993         estimate D2E/DX2                !
 ! D67   D(11,12,33,34)          0.0014         estimate D2E/DX2                !
 ! D68   D(11,12,33,38)       -179.9975         estimate D2E/DX2                !
 ! D69   D(31,12,33,34)       -179.9999         estimate D2E/DX2                !
 ! D70   D(31,12,33,38)          0.0012         estimate D2E/DX2                !
 ! D71   D(9,13,31,12)           0.0002         estimate D2E/DX2                !
 ! D72   D(30,13,31,12)        179.9997         estimate D2E/DX2                !
 ! D73   D(8,19,20,22)         177.3602         estimate D2E/DX2                !
 ! D74   D(8,19,20,23)          -3.1372         estimate D2E/DX2                !
 ! D75   D(21,19,20,22)          0.7532         estimate D2E/DX2                !
 ! D76   D(21,19,20,23)       -179.7442         estimate D2E/DX2                !
 ! D77   D(8,19,21,24)        -177.3601         estimate D2E/DX2                !
 ! D78   D(8,19,21,25)           3.1374         estimate D2E/DX2                !
 ! D79   D(20,19,21,24)         -0.7531         estimate D2E/DX2                !
 ! D80   D(20,19,21,25)        179.7443         estimate D2E/DX2                !
 ! D81   D(19,20,22,26)         -0.2854         estimate D2E/DX2                !
 ! D82   D(19,20,22,27)        179.5884         estimate D2E/DX2                !
 ! D83   D(23,20,22,26)       -179.7838         estimate D2E/DX2                !
 ! D84   D(23,20,22,27)          0.0899         estimate D2E/DX2                !
 ! D85   D(19,21,24,26)          0.2852         estimate D2E/DX2                !
 ! D86   D(19,21,24,28)       -179.5882         estimate D2E/DX2                !
 ! D87   D(25,21,24,26)        179.7836         estimate D2E/DX2                !
 ! D88   D(25,21,24,28)         -0.0898         estimate D2E/DX2                !
 ! D89   D(20,22,26,24)         -0.19           estimate D2E/DX2                !
 ! D90   D(20,22,26,29)        179.8744         estimate D2E/DX2                !
 ! D91   D(27,22,26,24)        179.9367         estimate D2E/DX2                !
 ! D92   D(27,22,26,29)          0.0011         estimate D2E/DX2                !
 ! D93   D(21,24,26,22)          0.1901         estimate D2E/DX2                !
 ! D94   D(21,24,26,29)       -179.8743         estimate D2E/DX2                !
 ! D95   D(28,24,26,22)       -179.9369         estimate D2E/DX2                !
 ! D96   D(28,24,26,29)         -0.0013         estimate D2E/DX2                !
 ! D97   D(11,32,35,34)          0.0001         estimate D2E/DX2                !
 ! D98   D(11,32,35,36)       -179.999          estimate D2E/DX2                !
 ! D99   D(37,32,35,34)        179.9988         estimate D2E/DX2                !
 ! D100  D(37,32,35,36)         -0.0003         estimate D2E/DX2                !
 ! D101  D(12,33,34,35)          0.0005         estimate D2E/DX2                !
 ! D102  D(12,33,34,39)        179.9986         estimate D2E/DX2                !
 ! D103  D(38,33,34,35)        179.9994         estimate D2E/DX2                !
 ! D104  D(38,33,34,39)         -0.0024         estimate D2E/DX2                !
 ! D105  D(33,34,35,32)         -0.0013         estimate D2E/DX2                !
 ! D106  D(33,34,35,36)        179.9979         estimate D2E/DX2                !
 ! D107  D(39,34,35,32)       -179.9994         estimate D2E/DX2                !
 ! D108  D(39,34,35,36)         -0.0002         estimate D2E/DX2                !
 ! D109  D(33,34,41,42)        179.995          estimate D2E/DX2                !
 ! D110  D(33,34,41,43)         -0.0044         estimate D2E/DX2                !
 ! D111  D(35,34,41,42)         -0.0049         estimate D2E/DX2                !
 ! D112  D(35,34,41,43)        179.9957         estimate D2E/DX2                !
 ! D113  D(40,41,42,44)        180.0            estimate D2E/DX2                !
 ! D114  D(40,41,42,45)         -0.0001         estimate D2E/DX2                !
 ! D115  D(43,41,42,44)          0.0002         estimate D2E/DX2                !
 ! D116  D(43,41,42,45)       -179.9999         estimate D2E/DX2                !
 ! D117  D(40,41,43,46)       -179.9998         estimate D2E/DX2                !
 ! D118  D(40,41,43,47)         -0.0002         estimate D2E/DX2                !
 ! D119  D(42,41,43,46)         -0.0001         estimate D2E/DX2                !
 ! D120  D(42,41,43,47)        179.9996         estimate D2E/DX2                !
 ! D121  D(41,42,44,48)         -0.0003         estimate D2E/DX2                !
 ! D122  D(41,42,44,49)        179.9999         estimate D2E/DX2                !
 ! D123  D(45,42,44,48)        179.9998         estimate D2E/DX2                !
 ! D124  D(45,42,44,49)          0.0            estimate D2E/DX2                !
 ! D125  D(41,43,46,48)          0.0            estimate D2E/DX2                !
 ! D126  D(41,43,46,50)        179.9998         estimate D2E/DX2                !
 ! D127  D(47,43,46,48)       -179.9997         estimate D2E/DX2                !
 ! D128  D(47,43,46,50)          0.0002         estimate D2E/DX2                !
 ! D129  D(42,44,48,46)          0.0002         estimate D2E/DX2                !
 ! D130  D(42,44,48,51)       -179.9999         estimate D2E/DX2                !
 ! D131  D(49,44,48,46)       -180.0            estimate D2E/DX2                !
 ! D132  D(49,44,48,51)         -0.0001         estimate D2E/DX2                !
 ! D133  D(43,46,48,44)          0.0            estimate D2E/DX2                !
 ! D134  D(43,46,48,51)       -179.9999         estimate D2E/DX2                !
 ! D135  D(50,46,48,44)       -179.9999         estimate D2E/DX2                !
 ! D136  D(50,46,48,51)          0.0002         estimate D2E/DX2                !
 --------------------------------------------------------------------------------
 Trust Radius=3.00D-01 FncErr=1.00D-07 GrdErr=1.00D-07
 Number of steps in this run=    294 maximum allowed number of steps=    306.
 GradGradGradGradGradGradGradGradGradGradGradGradGradGradGradGradGradGrad

 Leave Link  103 at Thu Apr  1 22:53:19 2021, MaxMem=  5242880000 cpu:         0.4
 (Enter /opt/nce/packages/global/g09/l202.exe)
 Symmetry turned off by external request.
 Stoichiometry    C31H18O2
 Framework group  C1[X(C31H18O2)]
 Deg. of freedom   147
 Full point group                 C1      NOp   1
                          Input orientation:                          
 ---------------------------------------------------------------------
 Center     Atomic      Atomic             Coordinates (Angstroms)
 Number     Number       Type             X           Y           Z
 ---------------------------------------------------------------------
      1          6           0        5.224308    3.787725   -0.000006
      2          6           0        3.852256    3.679499   -0.000005
      3          6           0        3.222427    2.402230    0.000012
      4          6           0        4.035179    1.220116    0.000026
      5          6           0        5.452899    1.370885    0.000023
      6          6           0        6.031286    2.621188    0.000010
      7          6           0        1.817526    2.274063    0.000007
      8          6           0        3.405748   -0.064419    0.000043
      9          6           0        2.009568   -0.152171    0.000055
     10          6           0        1.197750    1.035379    0.000035
     11          6           0       -0.259462    0.892567    0.000026
     12          6           0       -0.805776   -0.401917    0.000050
     13          6           0        1.359983   -1.491267    0.000118
     14          1           0        1.222371    3.187457   -0.000016
     15          1           0        5.696644    4.772891   -0.000019
     16          1           0        3.223481    4.573300   -0.000017
     17          1           0        6.077354    0.477968    0.000030
     18          1           0        7.119372    2.716991    0.000011
     19          6           0        4.295892   -1.264195    0.000002
     20          6           0        4.746333   -1.810639   -1.208575
     21          6           0        4.746441   -1.810705    1.208518
     22          6           0        5.621922   -2.897670   -1.208398
     23          1           0        4.399806   -1.383628   -2.152423
     24          6           0        5.622024   -2.897726    1.208200
     25          1           0        4.399987   -1.383735    2.152411
     26          6           0        6.060807   -3.445713   -0.000138
     27          1           0        5.961500   -3.320092   -2.157216
     28          1           0        5.961702   -3.320222    2.156949
     29          1           0        6.744553   -4.297875   -0.000167
     30          8           0        1.918821   -2.553705    0.000182
     31          8           0       -0.015856   -1.512185    0.000112
     32          6           0       -1.167806    1.971419   -0.000063
     33          6           0       -2.181494   -0.627722    0.000040
     34          6           0       -3.071112    0.458351   -0.000025
     35          6           0       -2.538298    1.770245   -0.000090
     36          1           0       -3.219948    2.621645   -0.000175
     37          1           0       -0.789237    2.993762   -0.000134
     38          1           0       -2.545073   -1.655050    0.000101
     39          6           0       -4.478714    0.245030   -0.000065
     40          6           0       -5.684846    0.066991   -0.000041
     41          6           0       -7.094587   -0.146063   -0.000022
     42          6           0       -7.986481    0.947661    0.000018
     43          6           0       -7.621842   -1.455199   -0.000048
     44          6           0       -9.363402    0.733718    0.000036
     45          1           0       -7.582966    1.961851    0.000036
     46          6           0       -9.000247   -1.659231   -0.000033
     47          1           0       -6.935580   -2.303947   -0.000086
     48          6           0       -9.875393   -0.568006    0.000009
     49          1           0      -10.043542    1.588775    0.000069
     50          1           0       -9.395971   -2.677592   -0.000056
     51          1           0      -10.955487   -0.731928    0.000022
 ---------------------------------------------------------------------
 Rotational constants (GHZ):      0.3103014      0.0464419      0.0409777
 Leave Link  202 at Thu Apr  1 22:53:20 2021, MaxMem=  5242880000 cpu:         0.7
 (Enter /opt/nce/packages/global/g09/l301.exe)
 Standard basis: def2TZVP (5D, 7F)
 Ernie: Thresh=  0.10000D-02 Tol=  0.10000D-05 Strict=F.
  1131 basis functions,  1827 primitive gaussians,  1296 cartesian basis functions
   110 alpha electrons      110 beta electrons
       nuclear repulsion energy      2773.5838448630 Hartrees.
 IExCor=    0 DFT=F Ex=HF Corr=None ExCW=0 ScaHFX=  1.000000
 ScaDFX=  1.000000  1.000000  1.000000  1.000000 ScalE2=  1.000000  1.000000
 IRadAn=      5 IRanWt=     -1 IRanGd=            0 ICorTp=0 IEmpDi=  4
 NAtoms=   51 NActive=   51 NUniq=   51 SFac= 1.00D+00 NAtFMM=   60 NAOKFM=F Big=F
 Integral buffers will be    131072 words long.
 Raffenetti 1 integral format.
 Two-electron integral symmetry is turned off.
 ------------------------------------------------------------------------------
 Polarizable Continuum Model (PCM)
 =================================
 Model                : PCM (using non-symmetric T matrix).
 Atomic radii         : SMD-Coulomb.
 Polarization charges : Total charges.
 Charge compensation  : None.
 Solution method      : On-the-fly selection.
 Cavity type          : VdW (van der Waals Surface) (Alpha=1.000).
 Cavity algorithm     : GePol (No added spheres)
                        Default sphere list used, NSphG=   51.
                        Lebedev-Laikov grids with approx.  5.0 points / Ang**2.
                        Smoothing algorithm: York/Karplus (Gamma=1.0000).
                        Polarization charges: spherical gaussians, with
                                              point-specific exponents (IZeta= 3).
                        Self-potential: point-specific (ISelfS= 7).
                        Self-field    : sphere-specific E.n sum rule (ISelfD= 2).
 1st derivatives      : Analytical E(r).r(x)/FMM algorithm (CHGder, D1EAlg=3).
                        Cavity 1st derivative terms included.
 Solvent              : Acetonitrile, Eps=  35.688000 Eps(inf)=   1.806874
 ------------------------------------------------------------------------------
 GePol: Number of generator spheres                  =      51
 GePol: Total number of spheres                      =      51
 GePol: Number of exposed spheres                    =      51 (100.00%)
 GePol: Number of points                             =    4115
 GePol: Average weight of points                     =       0.11
 GePol: Minimum weight of points                     =   0.83D-11
 GePol: Maximum weight of points                     =    0.21559
 GePol: Number of points with low weight             =     243
 GePol: Fraction of low-weight points (<1% of avg)   =       5.91%
 GePol: Cavity surface area                          =    447.441 Ang**2
 GePol: Cavity volume                                =    446.088 Ang**3
 ------------------------------------------------------------------------------
 Atomic radii for non-electrostatic terms: SMD-CDS.
 ------------------------------------------------------------------------------
 PCM non-electrostatic energy =        -0.0121544802 Hartrees.
 Nuclear repulsion after PCM non-electrostatic terms =     2773.5716903829 Hartrees.
 Leave Link  301 at Thu Apr  1 22:53:20 2021, MaxMem=  5242880000 cpu:         2.3
 (Enter /opt/nce/packages/global/g09/l302.exe)
 NPDir=0 NMtPBC=     1 NCelOv=     1 NCel=       1 NClECP=     1 NCelD=      1
         NCelK=      1 NCelE2=     1 NClLst=     1 CellRange=     0.0.
 One-electron integrals computed using PRISM.
   1 Symmetry operations used in ECPInt.
 ECPInt:  NShTT=   94830 NPrTT=  296076 LenC2=   66296 LenP2D=  140417.
 LDataN:  DoStor=T MaxTD1= 6 Len=  172
 NBasis=  1131 RedAO= T EigKep=  2.80D-06  NBF=  1131
 NBsUse=  1131 1.00D-06 EigRej= -1.00D+00 NBFU=  1131
 Leave Link  302 at Thu Apr  1 22:53:24 2021, MaxMem=  5242880000 cpu:        43.6
 (Enter /opt/nce/packages/global/g09/l303.exe)
 DipDrv:  MaxL=1.
 Leave Link  303 at Thu Apr  1 22:53:24 2021, MaxMem=  5242880000 cpu:         4.8
 (Enter /opt/nce/packages/global/g09/l401.exe)
 ExpMin= 9.52D-02 ExpMax= 2.70D+04 ExpMxC= 9.22D+02 IAcc=3 IRadAn=         5 AccDes= 0.00D+00
 Harris functional with IExCor=  205 and IRadAn=       5 diagonalized for initial guess.
 HarFok:  IExCor=  205 AccDes= 0.00D+00 IRadAn=         5 IDoV= 1 UseB2=F ITyADJ=14
 ICtDFT=  3500011 ScaDFX=  1.000000  1.000000  1.000000  1.000000
 FoFCou: FMM=F IPFlag=           0 FMFlag=      100000 FMFlg1=           0
         NFxFlg=           0 DoJE=T BraDBF=F KetDBF=T FulRan=T
         wScrn=  0.000000 ICntrl=     500 IOpCl=  0 I1Cent=   200000004 NGrid=           0
         NMat0=    1 NMatS0=      1 NMatT0=    0 NMatD0=    1 NMtDS0=    0 NMtDT0=    0
 Symmetry not used in FoFCou.
 Harris En= -1336.24164962524    
 JPrj=0 DoOrth=F DoCkMO=F.
 Leave Link  401 at Thu Apr  1 22:53:35 2021, MaxMem=  5242880000 cpu:        91.0
 (Enter /opt/nce/packages/global/g09/l502.exe)
 Closed shell SCF:
 Using DIIS extrapolation, IDIIS=  1040.
 Two-electron integral symmetry not used.
 IVT=     5080828 IEndB=     5080828 NGot=  5242880000 MDV=  5239496725
 LenX=  5239496725 LenY=  5237815813
 Requested convergence on RMS density matrix=1.00D-08 within 128 cycles.
 Requested convergence on MAX density matrix=1.00D-06.
 Requested convergence on             energy=1.00D-06.
 No special actions if energy rises.
 Fock matrices will be formed incrementally for  20 cycles.

 Cycle   1  Pass 1  IDiag  1:
 FoFJK:  IHMeth= 1 ICntrl=       0 DoSepK=F KAlg= 0 I1Cent=   0 FoldK=F
 IRaf= 580000000 NMat=   1 IRICut=       1 DoRegI=T DoRafI=F ISym2E= 0.
 FoFCou: FMM=F IPFlag=           0 FMFlag=      100000 FMFlg1=           0
         NFxFlg=           0 DoJE=F BraDBF=F KetDBF=F FulRan=T
         wScrn=  0.000000 ICntrl=       0 IOpCl=  0 I1Cent=           0 NGrid=           0
         NMat0=    1 NMatS0=      1 NMatT0=    0 NMatD0=    1 NMtDS0=    0 NMtDT0=    0
 Symmetry not used in FoFCou.
 Inv3:  Mode=1 IEnd=    50799675.
 Iteration    1 A*A^-1 deviation from unit magnitude is 7.55D-15 for   4095.
 Iteration    1 A*A^-1 deviation from orthogonality  is 2.82D-15 for   2855   2445.
 Iteration    1 A^-1*A deviation from unit magnitude is 7.77D-15 for   4095.
 Iteration    1 A^-1*A deviation from orthogonality  is 1.24D-07 for   1693   1689.
 Iteration    2 A*A^-1 deviation from unit magnitude is 2.66D-15 for    345.
 Iteration    2 A*A^-1 deviation from orthogonality  is 2.22D-15 for   3699    232.
 Iteration    2 A^-1*A deviation from unit magnitude is 9.99D-16 for   3224.
 Iteration    2 A^-1*A deviation from orthogonality  is 3.89D-16 for   4109   1023.
 E= -1333.34995475896    
 DIIS: error= 3.76D-02 at cycle   1 NSaved=   1.
 NSaved= 1 IEnMin= 1 EnMin= -1333.34995475896     IErMin= 1 ErrMin= 3.76D-02
 ErrMax= 3.76D-02  0.00D+00 EMaxC= 1.00D-01 BMatC= 2.57D+00 BMatP= 2.57D+00
 IDIUse=3 WtCom= 6.24D-01 WtEn= 3.76D-01
 Coeff-Com:  0.100D+01
 Coeff-En:   0.100D+01
 Coeff:      0.100D+01
 Gap=     0.321 Goal=   None    Shift=    0.000
 GapD=    0.321 DampG=1.000 DampE=0.500 DampFc=0.5000 IDamp=-1.
 Damping current iteration by 5.00D-01
 RMSDP=2.11D-03 MaxDP=2.68D-01              OVMax= 1.47D-01

 Cycle   2  Pass 1  IDiag  1:
 RMSU=  1.03D-03    CP:  9.55D-01
 E= -1334.00008252124     Delta-E=       -0.650127762278 Rises=F Damp=T
 DIIS: error= 1.75D-02 at cycle   2 NSaved=   2.
 NSaved= 2 IEnMin= 2 EnMin= -1334.00008252124     IErMin= 2 ErrMin= 1.75D-02
 ErrMax= 1.75D-02  0.00D+00 EMaxC= 1.00D-01 BMatC= 6.13D-01 BMatP= 2.57D+00
 IDIUse=3 WtCom= 8.25D-01 WtEn= 1.75D-01
 Coeff-Com: -0.793D+00 0.179D+01
 Coeff-En:   0.000D+00 0.100D+01
 Coeff:     -0.654D+00 0.165D+01
 Gap=     0.320 Goal=   None    Shift=    0.000
 RMSDP=1.18D-03 MaxDP=1.19D-01 DE=-6.50D-01 OVMax= 5.68D-02

 Cycle   3  Pass 1  IDiag  1:
 RMSU=  7.76D-04    CP:  9.05D-01  1.83D+00
 E= -1334.59402978692     Delta-E=       -0.593947265681 Rises=F Damp=F
 DIIS: error= 3.62D-03 at cycle   3 NSaved=   3.
 NSaved= 3 IEnMin= 3 EnMin= -1334.59402978692     IErMin= 3 ErrMin= 3.62D-03
 ErrMax= 3.62D-03  0.00D+00 EMaxC= 1.00D-01 BMatC= 2.13D-02 BMatP= 6.13D-01
 IDIUse=3 WtCom= 9.64D-01 WtEn= 3.62D-02
 Coeff-Com: -0.236D+00 0.443D+00 0.793D+00
 Coeff-En:   0.000D+00 0.000D+00 0.100D+01
 Coeff:     -0.227D+00 0.427D+00 0.801D+00
 Gap=     0.310 Goal=   None    Shift=    0.000
 RMSDP=2.30D-04 MaxDP=1.66D-02 DE=-5.94D-01 OVMax= 2.65D-02

 Cycle   4  Pass 1  IDiag  1:
 RMSU=  1.84D-04    CP:  9.04D-01  1.94D+00  9.06D-01
 E= -1334.61031633888     Delta-E=       -0.016286551963 Rises=F Damp=F
 DIIS: error= 1.07D-03 at cycle   4 NSaved=   4.
 NSaved= 4 IEnMin= 4 EnMin= -1334.61031633888     IErMin= 4 ErrMin= 1.07D-03
 ErrMax= 1.07D-03  0.00D+00 EMaxC= 1.00D-01 BMatC= 1.84D-03 BMatP= 2.13D-02
 IDIUse=3 WtCom= 9.89D-01 WtEn= 1.07D-02
 Coeff-Com: -0.374D-01 0.584D-01 0.254D+00 0.725D+00
 Coeff-En:   0.000D+00 0.000D+00 0.000D+00 0.100D+01
 Coeff:     -0.370D-01 0.577D-01 0.251D+00 0.728D+00
 Gap=     0.310 Goal=   None    Shift=    0.000
 RMSDP=7.76D-05 MaxDP=1.02D-02 DE=-1.63D-02 OVMax= 7.34D-03

 Cycle   5  Pass 1  IDiag  1:
 RMSU=  6.06D-05    CP:  9.04D-01  1.93D+00  9.56D-01  8.70D-01
 E= -1334.61189232876     Delta-E=       -0.001575989882 Rises=F Damp=F
 DIIS: error= 2.84D-04 at cycle   5 NSaved=   5.
 NSaved= 5 IEnMin= 5 EnMin= -1334.61189232876     IErMin= 5 ErrMin= 2.84D-04
 ErrMax= 2.84D-04  0.00D+00 EMaxC= 1.00D-01 BMatC= 8.12D-05 BMatP= 1.84D-03
 IDIUse=3 WtCom= 9.97D-01 WtEn= 2.84D-03
 Coeff-Com:  0.139D-01-0.268D-01-0.457D-01 0.311D-01 0.103D+01
 Coeff-En:   0.000D+00 0.000D+00 0.000D+00 0.000D+00 0.100D+01
 Coeff:      0.139D-01-0.267D-01-0.456D-01 0.310D-01 0.103D+01
 Gap=     0.311 Goal=   None    Shift=    0.000
 RMSDP=2.77D-05 MaxDP=4.46D-03 DE=-1.58D-03 OVMax= 3.49D-03

 Cycle   6  Pass 1  IDiag  1:
 RMSU=  1.74D-05    CP:  9.04D-01  1.94D+00  9.70D-01  9.37D-01  1.18D+00
 E= -1334.61207149308     Delta-E=       -0.000179164311 Rises=F Damp=F
 DIIS: error= 1.27D-04 at cycle   6 NSaved=   6.
 NSaved= 6 IEnMin= 6 EnMin= -1334.61207149308     IErMin= 6 ErrMin= 1.27D-04
 ErrMax= 1.27D-04  0.00D+00 EMaxC= 1.00D-01 BMatC= 1.29D-05 BMatP= 8.12D-05
 IDIUse=3 WtCom= 9.99D-01 WtEn= 1.27D-03
 Coeff-Com:  0.610D-02-0.105D-01-0.328D-01-0.771D-01 0.147D+00 0.968D+00
 Coeff-En:   0.000D+00 0.000D+00 0.000D+00 0.000D+00 0.000D+00 0.100D+01
 Coeff:      0.609D-02-0.104D-01-0.327D-01-0.770D-01 0.146D+00 0.968D+00
 Gap=     0.312 Goal=   None    Shift=    0.000
 RMSDP=1.21D-05 MaxDP=1.24D-03 DE=-1.79D-04 OVMax= 1.91D-03

 Cycle   7  Pass 1  IDiag  1:
 RMSU=  6.57D-06    CP:  9.04D-01  1.94D+00  9.78D-01  9.52D-01  1.30D+00
                    CP:  1.13D+00
 E= -1334.61210709901     Delta-E=       -0.000035605931 Rises=F Damp=F
 DIIS: error= 6.98D-05 at cycle   7 NSaved=   7.
 NSaved= 7 IEnMin= 7 EnMin= -1334.61210709901     IErMin= 7 ErrMin= 6.98D-05
 ErrMax= 6.98D-05  0.00D+00 EMaxC= 1.00D-01 BMatC= 2.07D-06 BMatP= 1.29D-05
 IDIUse=1 WtCom= 1.00D+00 WtEn= 0.00D+00
 Coeff-Com: -0.854D-03 0.174D-02 0.348D-02-0.112D-01-0.966D-01 0.535D-01
 Coeff-Com:  0.105D+01
 Coeff:     -0.854D-03 0.174D-02 0.348D-02-0.112D-01-0.966D-01 0.535D-01
 Coeff:      0.105D+01
 Gap=     0.312 Goal=   None    Shift=    0.000
 RMSDP=4.43D-06 MaxDP=5.59D-04 DE=-3.56D-05 OVMax= 1.25D-03

 Cycle   8  Pass 1  IDiag  1:
 RMSU=  2.49D-06    CP:  9.04D-01  1.94D+00  9.79D-01  9.49D-01  1.33D+00
                    CP:  1.24D+00  1.30D+00
 E= -1334.61211547400     Delta-E=       -0.000008374995 Rises=F Damp=F
 DIIS: error= 3.81D-05 at cycle   8 NSaved=   8.
 NSaved= 8 IEnMin= 8 EnMin= -1334.61211547400     IErMin= 8 ErrMin= 3.81D-05
 ErrMax= 3.81D-05  0.00D+00 EMaxC= 1.00D-01 BMatC= 6.11D-07 BMatP= 2.07D-06
 IDIUse=1 WtCom= 1.00D+00 WtEn= 0.00D+00
 Coeff-Com: -0.163D-02 0.285D-02 0.885D-02 0.156D-01-0.435D-01-0.232D+00
 Coeff-Com:  0.131D+00 0.112D+01
 Coeff:     -0.163D-02 0.285D-02 0.885D-02 0.156D-01-0.435D-01-0.232D+00
 Coeff:      0.131D+00 0.112D+01
 Gap=     0.312 Goal=   None    Shift=    0.000
 RMSDP=2.95D-06 MaxDP=2.42D-04 DE=-8.37D-06 OVMax= 7.99D-04

 Cycle   9  Pass 1  IDiag  1:
 RMSU=  1.29D-06    CP:  9.04D-01  1.94D+00  9.80D-01  9.44D-01  1.34D+00
                    CP:  1.30D+00  1.59D+00  1.40D+00
 E= -1334.61211835928     Delta-E=       -0.000002885277 Rises=F Damp=F
 DIIS: error= 2.08D-05 at cycle   9 NSaved=   9.
 NSaved= 9 IEnMin= 9 EnMin= -1334.61211835928     IErMin= 9 ErrMin= 2.08D-05
 ErrMax= 2.08D-05  0.00D+00 EMaxC= 1.00D-01 BMatC= 1.12D-07 BMatP= 6.11D-07
 IDIUse=1 WtCom= 1.00D+00 WtEn= 0.00D+00
 Coeff-Com: -0.296D-04 0.835D-05 0.241D-03 0.340D-02 0.149D-01-0.326D-01
 Coeff-Com: -0.169D+00 0.517D-01 0.113D+01
 Coeff:     -0.296D-04 0.835D-05 0.241D-03 0.340D-02 0.149D-01-0.326D-01
 Coeff:     -0.169D+00 0.517D-01 0.113D+01
 Gap=     0.312 Goal=   None    Shift=    0.000
 RMSDP=1.23D-06 MaxDP=1.60D-04 DE=-2.89D-06 OVMax= 5.11D-04

 Cycle  10  Pass 1  IDiag  1:
 RMSU=  5.85D-07    CP:  9.04D-01  1.94D+00  9.80D-01  9.43D-01  1.34D+00
                    CP:  1.31D+00  1.67D+00  1.67D+00  1.42D+00
 E= -1334.61211908415     Delta-E=       -0.000000724868 Rises=F Damp=F
 DIIS: error= 1.17D-05 at cycle  10 NSaved=  10.
 NSaved=10 IEnMin=10 EnMin= -1334.61211908415     IErMin=10 ErrMin= 1.17D-05
 ErrMax= 1.17D-05  0.00D+00 EMaxC= 1.00D-01 BMatC= 3.57D-08 BMatP= 1.12D-07
 IDIUse=1 WtCom= 1.00D+00 WtEn= 0.00D+00
 Coeff-Com:  0.372D-03-0.650D-03-0.210D-02-0.385D-02 0.763D-02 0.565D-01
 Coeff-Com: -0.214D-02-0.304D+00-0.574D-01 0.131D+01
 Coeff:      0.372D-03-0.650D-03-0.210D-02-0.385D-02 0.763D-02 0.565D-01
 Coeff:     -0.214D-02-0.304D+00-0.574D-01 0.131D+01
 Gap=     0.312 Goal=   None    Shift=    0.000
 RMSDP=7.11D-07 MaxDP=7.82D-05 DE=-7.25D-07 OVMax= 3.52D-04

 Cycle  11  Pass 1  IDiag  1:
 RMSU=  3.04D-07    CP:  9.04D-01  1.94D+00  9.80D-01  9.43D-01  1.34D+00
                    CP:  1.31D+00  1.69D+00  1.77D+00  1.77D+00  1.62D+00
 E= -1334.61211934416     Delta-E=       -0.000000260011 Rises=F Damp=F
 DIIS: error= 5.40D-06 at cycle  11 NSaved=  11.
 NSaved=11 IEnMin=11 EnMin= -1334.61211934416     IErMin=11 ErrMin= 5.40D-06
 ErrMax= 5.40D-06  0.00D+00 EMaxC= 1.00D-01 BMatC= 9.37D-09 BMatP= 3.57D-08
 IDIUse=1 WtCom= 1.00D+00 WtEn= 0.00D+00
 Coeff-Com:  0.479D-04-0.691D-04-0.307D-03-0.123D-02-0.431D-02 0.163D-01
 Coeff-Com:  0.560D-01-0.556D-01-0.340D+00 0.777D-01 0.125D+01
 Coeff:      0.479D-04-0.691D-04-0.307D-03-0.123D-02-0.431D-02 0.163D-01
 Coeff:      0.560D-01-0.556D-01-0.340D+00 0.777D-01 0.125D+01
 Gap=     0.312 Goal=   None    Shift=    0.000
 RMSDP=4.35D-07 MaxDP=3.29D-05 DE=-2.60D-07 OVMax= 2.23D-04

 Cycle  12  Pass 1  IDiag  1:
 RMSU=  1.63D-07    CP:  9.04D-01  1.94D+00  9.80D-01  9.43D-01  1.34D+00
                    CP:  1.31D+00  1.69D+00  1.79D+00  1.94D+00  2.03D+00
                    CP:  1.67D+00
 E= -1334.61211941833     Delta-E=       -0.000000074171 Rises=F Damp=F
 DIIS: error= 2.17D-06 at cycle  12 NSaved=  12.
 NSaved=12 IEnMin=12 EnMin= -1334.61211941833     IErMin=12 ErrMin= 2.17D-06
 ErrMax= 2.17D-06  0.00D+00 EMaxC= 1.00D-01 BMatC= 1.83D-09 BMatP= 9.37D-09
 IDIUse=1 WtCom= 1.00D+00 WtEn= 0.00D+00
 Coeff-Com: -0.826D-04 0.147D-03 0.451D-03 0.960D-03-0.218D-02-0.122D-01
 Coeff-Com:  0.290D-02 0.685D-01 0.884D-02-0.319D+00 0.967D-01 0.116D+01
 Coeff:     -0.826D-04 0.147D-03 0.451D-03 0.960D-03-0.218D-02-0.122D-01
 Coeff:      0.290D-02 0.685D-01 0.884D-02-0.319D+00 0.967D-01 0.116D+01
 Gap=     0.312 Goal=   None    Shift=    0.000
 RMSDP=2.00D-07 MaxDP=1.68D-05 DE=-7.42D-08 OVMax= 8.68D-05

 Cycle  13  Pass 1  IDiag  1:
 RMSU=  6.73D-08    CP:  9.04D-01  1.94D+00  9.80D-01  9.44D-01  1.34D+00
                    CP:  1.31D+00  1.69D+00  1.79D+00  1.97D+00  2.13D+00
                    CP:  2.09D+00  1.40D+00
 E= -1334.61211942997     Delta-E=       -0.000000011642 Rises=F Damp=F
 DIIS: error= 9.47D-07 at cycle  13 NSaved=  13.
 NSaved=13 IEnMin=13 EnMin= -1334.61211942997     IErMin=13 ErrMin= 9.47D-07
 ErrMax= 9.47D-07  0.00D+00 EMaxC= 1.00D-01 BMatC= 3.75D-10 BMatP= 1.83D-09
 IDIUse=1 WtCom= 1.00D+00 WtEn= 0.00D+00
 Coeff-Com: -0.214D-04 0.357D-04 0.971D-04 0.358D-03 0.431D-03-0.422D-02
 Coeff-Com: -0.111D-01 0.184D-01 0.654D-01-0.649D-01-0.196D+00 0.111D+00
 Coeff-Com:  0.108D+01
 Coeff:     -0.214D-04 0.357D-04 0.971D-04 0.358D-03 0.431D-03-0.422D-02
 Coeff:     -0.111D-01 0.184D-01 0.654D-01-0.649D-01-0.196D+00 0.111D+00
 Coeff:      0.108D+01
 Gap=     0.312 Goal=   None    Shift=    0.000
 RMSDP=7.95D-08 MaxDP=7.14D-06 DE=-1.16D-08 OVMax= 3.29D-05

 Cycle  14  Pass 1  IDiag  1:
 RMSU=  2.91D-08    CP:  9.04D-01  1.94D+00  9.80D-01  9.44D-01  1.34D+00
                    CP:  1.31D+00  1.69D+00  1.79D+00  1.98D+00  2.15D+00
                    CP:  2.21D+00  1.60D+00  1.36D+00
 E= -1334.61211943201     Delta-E=       -0.000000002037 Rises=F Damp=F
 DIIS: error= 4.56D-07 at cycle  14 NSaved=  14.
 NSaved=14 IEnMin=14 EnMin= -1334.61211943201     IErMin=14 ErrMin= 4.56D-07
 ErrMax= 4.56D-07  0.00D+00 EMaxC= 1.00D-01 BMatC= 8.77D-11 BMatP= 3.75D-10
 IDIUse=1 WtCom= 1.00D+00 WtEn= 0.00D+00
 Coeff-Com:  0.181D-04-0.323D-04-0.114D-03-0.211D-03 0.662D-03 0.294D-02
 Coeff-Com: -0.254D-02-0.159D-01 0.688D-02 0.752D-01-0.389D-01-0.312D+00
 Coeff-Com:  0.120D+00 0.116D+01
 Coeff:      0.181D-04-0.323D-04-0.114D-03-0.211D-03 0.662D-03 0.294D-02
 Coeff:     -0.254D-02-0.159D-01 0.688D-02 0.752D-01-0.389D-01-0.312D+00
 Coeff:      0.120D+00 0.116D+01
 Gap=     0.312 Goal=   None    Shift=    0.000
 RMSDP=4.21D-08 MaxDP=4.46D-06 DE=-2.04D-09 OVMax= 1.65D-05

 Cycle  15  Pass 1  IDiag  1:
 RMSU=  1.41D-08    CP:  9.04D-01  1.94D+00  9.80D-01  9.44D-01  1.34D+00
                    CP:  1.31D+00  1.69D+00  1.79D+00  1.99D+00  2.15D+00
                    CP:  2.24D+00  1.67D+00  1.68D+00  1.45D+00
 E= -1334.61211943251     Delta-E=       -0.000000000500 Rises=F Damp=F
 DIIS: error= 1.85D-07 at cycle  15 NSaved=  15.
 NSaved=15 IEnMin=15 EnMin= -1334.61211943251     IErMin=15 ErrMin= 1.85D-07
 ErrMax= 1.85D-07  0.00D+00 EMaxC= 1.00D-01 BMatC= 1.41D-11 BMatP= 8.77D-11
 IDIUse=1 WtCom= 1.00D+00 WtEn= 0.00D+00
 Coeff-Com:  0.913D-06-0.124D-05-0.284D-05-0.329D-04-0.101D-03 0.292D-03
 Coeff-Com:  0.171D-02-0.900D-03-0.999D-02 0.171D-02 0.334D-01 0.107D-01
 Coeff-Com: -0.165D+00-0.115D+00 0.124D+01
 Coeff:      0.913D-06-0.124D-05-0.284D-05-0.329D-04-0.101D-03 0.292D-03
 Coeff:      0.171D-02-0.900D-03-0.999D-02 0.171D-02 0.334D-01 0.107D-01
 Coeff:     -0.165D+00-0.115D+00 0.124D+01
 Gap=     0.312 Goal=   None    Shift=    0.000
 RMSDP=1.38D-08 MaxDP=9.97D-07 DE=-5.00D-10 OVMax= 6.65D-06

 Cycle  16  Pass 1  IDiag  1:
 RMSU=  5.62D-09    CP:  9.04D-01  1.94D+00  9.80D-01  9.44D-01  1.34D+00
                    CP:  1.31D+00  1.69D+00  1.79D+00  1.99D+00  2.15D+00
                    CP:  2.24D+00  1.67D+00  1.74D+00  1.71D+00  1.49D+00
 E= -1334.61211943259     Delta-E=       -0.000000000083 Rises=F Damp=F
 DIIS: error= 1.31D-07 at cycle  16 NSaved=  16.
 NSaved=16 IEnMin=16 EnMin= -1334.61211943259     IErMin=16 ErrMin= 1.31D-07
 ErrMax= 1.31D-07  0.00D+00 EMaxC= 1.00D-01 BMatC= 3.90D-12 BMatP= 1.41D-11
 IDIUse=1 WtCom= 1.00D+00 WtEn= 0.00D+00
 Coeff-Com: -0.480D-05 0.863D-05 0.306D-04 0.530D-04-0.173D-03-0.805D-03
 Coeff-Com:  0.747D-03 0.434D-02-0.234D-02-0.200D-01 0.109D-01 0.838D-01
 Coeff-Com: -0.328D-01-0.326D+00 0.542D-01 0.123D+01
 Coeff:     -0.480D-05 0.863D-05 0.306D-04 0.530D-04-0.173D-03-0.805D-03
 Coeff:      0.747D-03 0.434D-02-0.234D-02-0.200D-01 0.109D-01 0.838D-01
 Coeff:     -0.328D-01-0.326D+00 0.542D-01 0.123D+01
 Gap=     0.312 Goal=   None    Shift=    0.000
 RMSDP=7.66D-09 MaxDP=5.43D-07 DE=-8.28D-11 OVMax= 3.86D-06

 Error on total polarization charges =  0.07436
 SCF Done:  E(RHF) =  -1334.61211943     A.U. after   16 cycles
            NFock= 16  Conv=0.77D-08     -V/T= 2.0017
 KE= 1.332340570617D+03 PE=-8.660477490756D+03 EE= 3.219953110324D+03
 SMD-CDS (non-electrostatic) energy       (kcal/mol) =      -7.63
 (included in total energy above)
 Leave Link  502 at Thu Apr  1 23:25:23 2021, MaxMem=  5242880000 cpu:     21682.4
 (Enter /opt/nce/packages/global/g09/l601.exe)
 Copying SCF densities to generalized density rwf, IOpCl= 0 IROHF=0.

 **********************************************************************

            Population analysis using the SCF density.

 **********************************************************************

 Alpha  occ. eigenvalues --  -20.62482 -20.54753 -11.39973 -11.32132 -11.27912
 Alpha  occ. eigenvalues --  -11.27784 -11.27126 -11.26686 -11.26611 -11.26183
 Alpha  occ. eigenvalues --  -11.26017 -11.25561 -11.25064 -11.24936 -11.24913
 Alpha  occ. eigenvalues --  -11.24742 -11.24563 -11.24555 -11.24503 -11.24483
 Alpha  occ. eigenvalues --  -11.24429 -11.24301 -11.24235 -11.24164 -11.23944
 Alpha  occ. eigenvalues --  -11.23856 -11.23849 -11.23832 -11.23386 -11.23359
 Alpha  occ. eigenvalues --  -11.23196 -11.23184 -11.23124  -1.48185  -1.38446
 Alpha  occ. eigenvalues --   -1.19870  -1.17407  -1.16255  -1.15238  -1.13185
 Alpha  occ. eigenvalues --   -1.09080  -1.07218  -1.05220  -1.03683  -1.02645
 Alpha  occ. eigenvalues --   -1.01926  -1.01513  -1.01101  -0.99475  -0.97194
 Alpha  occ. eigenvalues --   -0.91392  -0.88739  -0.87021  -0.84987  -0.83855
 Alpha  occ. eigenvalues --   -0.83115  -0.82921  -0.82276  -0.79435  -0.78244
 Alpha  occ. eigenvalues --   -0.76453  -0.72785  -0.71762  -0.71230  -0.69228
 Alpha  occ. eigenvalues --   -0.67955  -0.67231  -0.66752  -0.66129  -0.65319
 Alpha  occ. eigenvalues --   -0.64164  -0.63977  -0.63303  -0.63029  -0.62542
 Alpha  occ. eigenvalues --   -0.60754  -0.60365  -0.60204  -0.59482  -0.58779
 Alpha  occ. eigenvalues --   -0.58289  -0.58038  -0.57265  -0.55928  -0.54953
 Alpha  occ. eigenvalues --   -0.54621  -0.53624  -0.52723  -0.51686  -0.51231
 Alpha  occ. eigenvalues --   -0.50747  -0.50372  -0.50312  -0.49908  -0.49755
 Alpha  occ. eigenvalues --   -0.49003  -0.47382  -0.47372  -0.45730  -0.43542
 Alpha  occ. eigenvalues --   -0.39839  -0.39740  -0.37257  -0.34481  -0.34118
 Alpha  occ. eigenvalues --   -0.33714  -0.33155  -0.32890  -0.30875  -0.27360
 Alpha virt. eigenvalues --    0.03883   0.05365   0.09136   0.11416   0.11748
 Alpha virt. eigenvalues --    0.12140   0.12497   0.13909   0.15490   0.15507
 Alpha virt. eigenvalues --    0.15680   0.16687   0.17102   0.17433   0.17799
 Alpha virt. eigenvalues --    0.18048   0.18851   0.19221   0.19432   0.19737
 Alpha virt. eigenvalues --    0.19842   0.20261   0.20988   0.21211   0.21502
 Alpha virt. eigenvalues --    0.21775   0.22065   0.22123   0.22740   0.23241
 Alpha virt. eigenvalues --    0.23697   0.24828   0.25266   0.25294   0.26076
 Alpha virt. eigenvalues --    0.27347   0.27414   0.28519   0.29088   0.29333
 Alpha virt. eigenvalues --    0.29806   0.29890   0.30248   0.30893   0.30944
 Alpha virt. eigenvalues --    0.31594   0.32073   0.32365   0.32439   0.32876
 Alpha virt. eigenvalues --    0.33259   0.33426   0.33683   0.34097   0.34145
 Alpha virt. eigenvalues --    0.34531   0.35129   0.35293   0.35648   0.36113
 Alpha virt. eigenvalues --    0.36654   0.36900   0.37082   0.37138   0.37442
 Alpha virt. eigenvalues --    0.37846   0.38106   0.38141   0.39098   0.39531
 Alpha virt. eigenvalues --    0.39957   0.40494   0.40568   0.41224   0.41519
 Alpha virt. eigenvalues --    0.41852   0.42223   0.42275   0.42821   0.43435
 Alpha virt. eigenvalues --    0.43436   0.43649   0.44209   0.44331   0.45143
 Alpha virt. eigenvalues --    0.45424   0.46298   0.46641   0.47039   0.47293
 Alpha virt. eigenvalues --    0.47501   0.47689   0.48046   0.48326   0.48430
 Alpha virt. eigenvalues --    0.48474   0.49251   0.49459   0.49595   0.49877
 Alpha virt. eigenvalues --    0.49993   0.50669   0.51093   0.51562   0.52159
 Alpha virt. eigenvalues --    0.52778   0.53115   0.53365   0.53693   0.53923
 Alpha virt. eigenvalues --    0.54159   0.54544   0.54714   0.55043   0.55255
 Alpha virt. eigenvalues --    0.55375   0.55678   0.55841   0.56230   0.56550
 Alpha virt. eigenvalues --    0.56825   0.56898   0.57077   0.57185   0.57589
 Alpha virt. eigenvalues --    0.57835   0.58388   0.59056   0.59470   0.59905
 Alpha virt. eigenvalues --    0.60245   0.60579   0.60794   0.61615   0.61784
 Alpha virt. eigenvalues --    0.61881   0.62229   0.62297   0.62545   0.64283
 Alpha virt. eigenvalues --    0.64545   0.64662   0.64664   0.65143   0.65823
 Alpha virt. eigenvalues --    0.66094   0.66224   0.66325   0.66541   0.66789
 Alpha virt. eigenvalues --    0.67168   0.67791   0.67898   0.68398   0.68565
 Alpha virt. eigenvalues --    0.69211   0.69586   0.69920   0.70170   0.70610
 Alpha virt. eigenvalues --    0.71419   0.72305   0.73082   0.73233   0.73699
 Alpha virt. eigenvalues --    0.74345   0.74646   0.75007   0.76145   0.76497
 Alpha virt. eigenvalues --    0.77989   0.78721   0.79355   0.79510   0.80568
 Alpha virt. eigenvalues --    0.80730   0.80950   0.81100   0.81517   0.81702
 Alpha virt. eigenvalues --    0.82558   0.83184   0.83209   0.83666   0.84159
 Alpha virt. eigenvalues --    0.84356   0.84551   0.84745   0.85444   0.86236
 Alpha virt. eigenvalues --    0.86306   0.86595   0.86851   0.86958   0.87604
 Alpha virt. eigenvalues --    0.88310   0.88451   0.88748   0.89543   0.90024
 Alpha virt. eigenvalues --    0.90398   0.90795   0.91008   0.91144   0.91508
 Alpha virt. eigenvalues --    0.91833   0.92116   0.92268   0.92817   0.92917
 Alpha virt. eigenvalues --    0.93285   0.93303   0.93659   0.94573   0.94739
 Alpha virt. eigenvalues --    0.95267   0.95540   0.96530   0.96559   0.96969
 Alpha virt. eigenvalues --    0.97506   0.97628   0.98572   0.99201   0.99373
 Alpha virt. eigenvalues --    0.99509   1.00006   1.00605   1.00780   1.01257
 Alpha virt. eigenvalues --    1.01908   1.03045   1.03275   1.03864   1.03959
 Alpha virt. eigenvalues --    1.04687   1.04875   1.05154   1.05434   1.06150
 Alpha virt. eigenvalues --    1.06554   1.06842   1.07326   1.07518   1.07691
 Alpha virt. eigenvalues --    1.08307   1.08373   1.09366   1.09506   1.09814
 Alpha virt. eigenvalues --    1.10187   1.10792   1.11339   1.12055   1.12666
 Alpha virt. eigenvalues --    1.13184   1.13809   1.15522   1.15714   1.16405
 Alpha virt. eigenvalues --    1.16899   1.18190   1.18887   1.19675   1.19742
 Alpha virt. eigenvalues --    1.20755   1.21022   1.21539   1.22781   1.23048
 Alpha virt. eigenvalues --    1.23886   1.23989   1.25112   1.25494   1.26305
 Alpha virt. eigenvalues --    1.26495   1.27334   1.28749   1.28767   1.29429
 Alpha virt. eigenvalues --    1.29663   1.30908   1.31415   1.31713   1.31849
 Alpha virt. eigenvalues --    1.33476   1.34590   1.35048   1.35398   1.35620
 Alpha virt. eigenvalues --    1.36197   1.36310   1.37335   1.37636   1.37988
 Alpha virt. eigenvalues --    1.39737   1.40165   1.41043   1.41428   1.42414
 Alpha virt. eigenvalues --    1.42991   1.43096   1.43967   1.44182   1.44279
 Alpha virt. eigenvalues --    1.45096   1.45150   1.46225   1.46449   1.47105
 Alpha virt. eigenvalues --    1.47234   1.47726   1.48322   1.48677   1.48722
 Alpha virt. eigenvalues --    1.49417   1.49912   1.50247   1.51374   1.51402
 Alpha virt. eigenvalues --    1.52334   1.53453   1.53981   1.54899   1.55315
 Alpha virt. eigenvalues --    1.55659   1.55841   1.56411   1.57248   1.57898
 Alpha virt. eigenvalues --    1.58854   1.59282   1.60214   1.60615   1.61341
 Alpha virt. eigenvalues --    1.63646   1.64189   1.64307   1.64545   1.64585
 Alpha virt. eigenvalues --    1.65972   1.66605   1.67502   1.67884   1.68302
 Alpha virt. eigenvalues --    1.68376   1.69706   1.69913   1.70368   1.71255
 Alpha virt. eigenvalues --    1.71753   1.72206   1.72431   1.72807   1.73210
 Alpha virt. eigenvalues --    1.74142   1.74454   1.75584   1.75727   1.75966
 Alpha virt. eigenvalues --    1.76363   1.76609   1.77301   1.78100   1.78396
 Alpha virt. eigenvalues --    1.78552   1.78704   1.79376   1.80050   1.80701
 Alpha virt. eigenvalues --    1.80826   1.81135   1.81213   1.82648   1.83352
 Alpha virt. eigenvalues --    1.83782   1.84399   1.84625   1.85766   1.86002
 Alpha virt. eigenvalues --    1.86467   1.86744   1.87621   1.87943   1.87982
 Alpha virt. eigenvalues --    1.88359   1.89807   1.90910   1.91484   1.91608
 Alpha virt. eigenvalues --    1.91808   1.93176   1.93418   1.94463   1.94894
 Alpha virt. eigenvalues --    1.96288   1.96604   1.96888   1.97133   1.97766
 Alpha virt. eigenvalues --    1.97908   1.98523   1.98905   1.99005   1.99499
 Alpha virt. eigenvalues --    1.99981   2.00256   2.00424   2.00980   2.01105
 Alpha virt. eigenvalues --    2.01608   2.01766   2.02997   2.03977   2.04153
 Alpha virt. eigenvalues --    2.04859   2.05660   2.05957   2.06962   2.07541
 Alpha virt. eigenvalues --    2.08528   2.08691   2.09366   2.10624   2.11374
 Alpha virt. eigenvalues --    2.11437   2.12673   2.13620   2.13903   2.15257
 Alpha virt. eigenvalues --    2.15537   2.15992   2.16160   2.16972   2.17562
 Alpha virt. eigenvalues --    2.18485   2.18720   2.19908   2.20593   2.21360
 Alpha virt. eigenvalues --    2.22262   2.23377   2.24321   2.25005   2.25161
 Alpha virt. eigenvalues --    2.25929   2.27105   2.27321   2.28285   2.28916
 Alpha virt. eigenvalues --    2.29865   2.30485   2.30808   2.30934   2.32229
 Alpha virt. eigenvalues --    2.32477   2.32737   2.34409   2.36394   2.36535
 Alpha virt. eigenvalues --    2.36581   2.38039   2.39570   2.39689   2.40187
 Alpha virt. eigenvalues --    2.40989   2.41436   2.41770   2.42806   2.43156
 Alpha virt. eigenvalues --    2.44260   2.44285   2.44580   2.45489   2.45715
 Alpha virt. eigenvalues --    2.46160   2.46479   2.46979   2.48280   2.48530
 Alpha virt. eigenvalues --    2.49796   2.49863   2.50014   2.50739   2.51722
 Alpha virt. eigenvalues --    2.52567   2.53279   2.53582   2.55138   2.55726
 Alpha virt. eigenvalues --    2.55726   2.56369   2.56643   2.57924   2.58919
 Alpha virt. eigenvalues --    2.59999   2.60607   2.61091   2.62163   2.62402
 Alpha virt. eigenvalues --    2.64300   2.64491   2.65286   2.66362   2.67097
 Alpha virt. eigenvalues --    2.68651   2.68722   2.69120   2.70468   2.73116
 Alpha virt. eigenvalues --    2.73386   2.74552   2.74964   2.76272   2.77082
 Alpha virt. eigenvalues --    2.77469   2.77732   2.78386   2.79517   2.80271
 Alpha virt. eigenvalues --    2.80871   2.81490   2.81731   2.82660   2.83734
 Alpha virt. eigenvalues --    2.83836   2.84651   2.85078   2.85819   2.86358
 Alpha virt. eigenvalues --    2.87246   2.87728   2.88913   2.89549   2.90271
 Alpha virt. eigenvalues --    2.90414   2.91067   2.91648   2.92086   2.92120
 Alpha virt. eigenvalues --    2.92470   2.92811   2.93222   2.94157   2.94566
 Alpha virt. eigenvalues --    2.94580   2.95233   2.95577   2.96706   2.97235
 Alpha virt. eigenvalues --    2.97257   2.97620   2.98002   2.98270   2.98376
 Alpha virt. eigenvalues --    2.98556   2.98874   2.99170   2.99445   2.99942
 Alpha virt. eigenvalues --    3.00479   3.01398   3.01455   3.01852   3.02844
 Alpha virt. eigenvalues --    3.02987   3.03568   3.04140   3.04318   3.04643
 Alpha virt. eigenvalues --    3.05155   3.05643   3.05989   3.06045   3.06477
 Alpha virt. eigenvalues --    3.07122   3.07943   3.08244   3.08660   3.09430
 Alpha virt. eigenvalues --    3.09591   3.10156   3.10464   3.10996   3.11434
 Alpha virt. eigenvalues --    3.11628   3.12070   3.12503   3.12863   3.13037
 Alpha virt. eigenvalues --    3.13125   3.13807   3.13930   3.14241   3.15028
 Alpha virt. eigenvalues --    3.15942   3.16193   3.16485   3.16562   3.17353
 Alpha virt. eigenvalues --    3.17686   3.17884   3.19041   3.19218   3.19815
 Alpha virt. eigenvalues --    3.20034   3.20260   3.20618   3.20744   3.21761
 Alpha virt. eigenvalues --    3.21773   3.22246   3.22789   3.22792   3.23606
 Alpha virt. eigenvalues --    3.23681   3.24967   3.25204   3.25951   3.26368
 Alpha virt. eigenvalues --    3.27309   3.28059   3.28592   3.29116   3.29395
 Alpha virt. eigenvalues --    3.29400   3.29925   3.30112   3.30520   3.30700
 Alpha virt. eigenvalues --    3.31813   3.31933   3.32248   3.33622   3.33660
 Alpha virt. eigenvalues --    3.33898   3.34651   3.34837   3.34965   3.36046
 Alpha virt. eigenvalues --    3.36325   3.36760   3.37947   3.38717   3.39278
 Alpha virt. eigenvalues --    3.39687   3.39923   3.40790   3.41078   3.41653
 Alpha virt. eigenvalues --    3.41980   3.42313   3.43106   3.43176   3.43767
 Alpha virt. eigenvalues --    3.43874   3.44566   3.45144   3.45399   3.45926
 Alpha virt. eigenvalues --    3.46218   3.46449   3.46474   3.46823   3.47056
 Alpha virt. eigenvalues --    3.47371   3.47969   3.48126   3.48474   3.49120
 Alpha virt. eigenvalues --    3.49840   3.50797   3.51158   3.51228   3.52711
 Alpha virt. eigenvalues --    3.53256   3.53625   3.54021   3.54360   3.54687
 Alpha virt. eigenvalues --    3.54803   3.55206   3.55620   3.56391   3.56842
 Alpha virt. eigenvalues --    3.57491   3.58768   3.59231   3.59611   3.59851
 Alpha virt. eigenvalues --    3.60312   3.61417   3.61666   3.61675   3.61950
 Alpha virt. eigenvalues --    3.62005   3.63309   3.63530   3.63969   3.63976
 Alpha virt. eigenvalues --    3.64488   3.64549   3.64881   3.65358   3.65516
 Alpha virt. eigenvalues --    3.66250   3.66711   3.67197   3.68134   3.68766
 Alpha virt. eigenvalues --    3.68894   3.69063   3.69696   3.70131   3.70573
 Alpha virt. eigenvalues --    3.71083   3.71181   3.71549   3.71791   3.72121
 Alpha virt. eigenvalues --    3.72410   3.72708   3.73609   3.73783   3.74312
 Alpha virt. eigenvalues --    3.74945   3.75766   3.76074   3.76341   3.77000
 Alpha virt. eigenvalues --    3.77449   3.77854   3.77917   3.78920   3.79508
 Alpha virt. eigenvalues --    3.79775   3.80056   3.80232   3.80301   3.80921
 Alpha virt. eigenvalues --    3.81308   3.81698   3.82484   3.82899   3.83385
 Alpha virt. eigenvalues --    3.83801   3.83810   3.84404   3.84728   3.85130
 Alpha virt. eigenvalues --    3.85514   3.86481   3.86521   3.86655   3.87350
 Alpha virt. eigenvalues --    3.87437   3.88209   3.88480   3.88608   3.89237
 Alpha virt. eigenvalues --    3.89797   3.90457   3.91455   3.91777   3.93304
 Alpha virt. eigenvalues --    3.95040   3.95400   3.95754   3.95989   3.97058
 Alpha virt. eigenvalues --    3.98426   3.98805   3.99667   4.00376   4.01011
 Alpha virt. eigenvalues --    4.01358   4.01716   4.02128   4.02566   4.02582
 Alpha virt. eigenvalues --    4.04102   4.04406   4.05127   4.06276   4.06277
 Alpha virt. eigenvalues --    4.07749   4.08527   4.09343   4.09799   4.10298
 Alpha virt. eigenvalues --    4.11083   4.11122   4.13619   4.15415   4.15640
 Alpha virt. eigenvalues --    4.15797   4.17191   4.18266   4.19839   4.21860
 Alpha virt. eigenvalues --    4.21865   4.23810   4.24410   4.26504   4.26605
 Alpha virt. eigenvalues --    4.26790   4.27754   4.28943   4.29844   4.30686
 Alpha virt. eigenvalues --    4.30957   4.31022   4.32345   4.33220   4.33490
 Alpha virt. eigenvalues --    4.34619   4.35902   4.36089   4.37648   4.38601
 Alpha virt. eigenvalues --    4.38742   4.39923   4.40414   4.40766   4.42452
 Alpha virt. eigenvalues --    4.42755   4.42758   4.46188   4.46639   4.47330
 Alpha virt. eigenvalues --    4.47866   4.48538   4.49032   4.49063   4.49445
 Alpha virt. eigenvalues --    4.50759   4.50878   4.51655   4.52642   4.52730
 Alpha virt. eigenvalues --    4.53593   4.53841   4.54835   4.55110   4.55815
 Alpha virt. eigenvalues --    4.55873   4.56452   4.56652   4.56854   4.57853
 Alpha virt. eigenvalues --    4.58075   4.58253   4.59276   4.59374   4.60098
 Alpha virt. eigenvalues --    4.61544   4.61582   4.62248   4.63475   4.64552
 Alpha virt. eigenvalues --    4.65305   4.65861   4.66538   4.67508   4.67612
 Alpha virt. eigenvalues --    4.68046   4.68568   4.68631   4.70432   4.72180
 Alpha virt. eigenvalues --    4.72341   4.73289   4.74675   4.75432   4.76289
 Alpha virt. eigenvalues --    4.78120   4.81939   4.83408   4.83898   4.85245
 Alpha virt. eigenvalues --    4.86324   4.86610   4.88421   4.90300   4.90816
 Alpha virt. eigenvalues --    4.93361   4.94602   4.95747   4.96610   4.98417
 Alpha virt. eigenvalues --    4.99840   5.00046   5.00047   5.01003   5.02314
 Alpha virt. eigenvalues --    5.04673   5.05464   5.07164   5.07502   5.08317
 Alpha virt. eigenvalues --    5.09103   5.09425   5.10673   5.13178   5.13954
 Alpha virt. eigenvalues --    5.14348   5.14649   5.15600   5.17535   5.18854
 Alpha virt. eigenvalues --    5.19567   5.20361   5.22718   5.23774   5.25076
 Alpha virt. eigenvalues --    5.25210   5.28327   5.30410   5.32375   5.32680
 Alpha virt. eigenvalues --    5.34790   5.35730   5.37249   5.37397   5.41748
 Alpha virt. eigenvalues --    5.45026   5.46527   5.48186   5.50178   5.52202
 Alpha virt. eigenvalues --    5.53693   5.54608   5.57505   5.58719   5.59330
 Alpha virt. eigenvalues --    5.59598   5.59942   5.62375   5.63129   5.64005
 Alpha virt. eigenvalues --    5.65051   5.67370   5.68576   5.68778   5.70136
 Alpha virt. eigenvalues --    5.72025   5.76167   5.79375   5.80178   5.80687
 Alpha virt. eigenvalues --    5.83515   5.84783   5.87517   5.88762   5.92961
 Alpha virt. eigenvalues --    5.94961   5.96291   5.98054   5.98533   6.02168
 Alpha virt. eigenvalues --    6.03191   6.07685   6.10971   6.11858   6.12496
 Alpha virt. eigenvalues --    6.18178   6.24223   6.29006   6.30499   6.31761
 Alpha virt. eigenvalues --    6.36062   6.46674   6.61424   6.68231   6.81945
 Alpha virt. eigenvalues --    6.94162   6.96762   7.02051   7.11048   7.16023
 Alpha virt. eigenvalues --    7.33419   7.37398   7.40274   7.52576   7.65917
 Alpha virt. eigenvalues --    7.75483   7.92606   8.02119  23.24488  23.34331
 Alpha virt. eigenvalues --   23.39507  23.60033  23.65064  23.67084  23.68198
 Alpha virt. eigenvalues --   23.70488  23.73346  23.77364  23.77563  23.80132
 Alpha virt. eigenvalues --   23.83323  23.84519  23.87807  23.90863  23.94438
[...]
 Alpha virt. eigenvalues --    0.81103   0.81464   0.81803   0.82130   0.82674
 Alpha virt. eigenvalues --    0.83144   0.83705   0.84137   0.84394   0.84482
 Alpha virt. eigenvalues --    0.84938   0.85322   0.85714   0.86166   0.86731
 Alpha virt. eigenvalues --    0.86994   0.87304   0.87823   0.87877   0.88315
 Alpha virt. eigenvalues --    0.88691   0.89320   0.89323   0.90320   0.91054
 Alpha virt. eigenvalues --    0.91355   0.91718   0.91967   0.92309   0.92419
 Alpha virt. eigenvalues --    0.92570   0.93346   0.93413   0.93759   0.94208
 Alpha virt. eigenvalues --    0.94353   0.94371   0.95004   0.95296   0.95381
 Alpha virt. eigenvalues --    0.95812   0.96495   0.97258   0.97534   0.98003
 Alpha virt. eigenvalues --    0.98187   0.98718   0.99295   0.99998   1.00095
 Alpha virt. eigenvalues --    1.00208   1.00669   1.01542   1.02015   1.02077
 Alpha virt. eigenvalues --    1.02659   1.03591   1.04155   1.04731   1.04890
 Alpha virt. eigenvalues --    1.05394   1.05803   1.06026   1.06613   1.07094
 Alpha virt. eigenvalues --    1.07527   1.07950   1.08084   1.08287   1.08544
 Alpha virt. eigenvalues --    1.08726   1.09535   1.09861   1.10690   1.10941
 Alpha virt. eigenvalues --    1.11473   1.11873   1.12669   1.12929   1.13595
 Alpha virt. eigenvalues --    1.14223   1.14800   1.15969   1.16517   1.17499
 Alpha virt. eigenvalues --    1.17833   1.18561   1.19379   1.19532   1.20513
 Alpha virt. eigenvalues --    1.21065   1.21089   1.21808   1.23400   1.23580
 Alpha virt. eigenvalues --    1.24502   1.24649   1.25658   1.26364   1.26953
 Alpha virt. eigenvalues --    1.27117   1.27852   1.29252   1.29446   1.30132
 Alpha virt. eigenvalues --    1.30480   1.31766   1.32495   1.32735   1.32862
 Alpha virt. eigenvalues --    1.34413   1.35647   1.35756   1.36277   1.36534
 Alpha virt. eigenvalues --    1.37182   1.37401   1.37931   1.38940   1.38946
 Alpha virt. eigenvalues --    1.40629   1.40861   1.42015   1.42171   1.42992
 Alpha virt. eigenvalues --    1.43831   1.44248   1.44527   1.44958   1.44964
 Alpha virt. eigenvalues --    1.45743   1.46033   1.47098   1.47395   1.47597
 Alpha virt. eigenvalues --    1.48336   1.48918   1.49133   1.49625   1.49909
 Alpha virt. eigenvalues --    1.50269   1.50961   1.51039   1.52115   1.52430
 Alpha virt. eigenvalues --    1.53171   1.54489   1.54608   1.55563   1.56183
 Alpha virt. eigenvalues --    1.56588   1.56817   1.57814   1.58359   1.59232
 Alpha virt. eigenvalues --    1.60121   1.60398   1.60918   1.61424   1.62790
 Alpha virt. eigenvalues --    1.64865   1.65144   1.65356   1.66055   1.66229
 Alpha virt. eigenvalues --    1.66793   1.67672   1.68311   1.68695   1.68937
 Alpha virt. eigenvalues --    1.69272   1.70429   1.70838   1.71028   1.72076
 Alpha virt. eigenvalues --    1.72656   1.72938   1.73397   1.73881   1.74171
 Alpha virt. eigenvalues --    1.74514   1.75294   1.76332   1.76392   1.76776
 Alpha virt. eigenvalues --    1.77149   1.77366   1.78016   1.78830   1.78923
 Alpha virt. eigenvalues --    1.79185   1.79861   1.80211   1.80686   1.81236
 Alpha virt. eigenvalues --    1.81866   1.81899   1.82233   1.83476   1.84230
 Alpha virt. eigenvalues --    1.84371   1.85396   1.85631   1.86737   1.86923
 Alpha virt. eigenvalues --    1.87515   1.87529   1.88123   1.88771   1.89019
 Alpha virt. eigenvalues --    1.89361   1.90881   1.92166   1.92547   1.93352
 Alpha virt. eigenvalues --    1.93936   1.94069   1.94902   1.95830   1.95946
 Alpha virt. eigenvalues --    1.96717   1.97512   1.97678   1.98233   1.98730
 Alpha virt. eigenvalues --    1.98761   1.99398   1.99708   2.00060   2.00456
 Alpha virt. eigenvalues --    2.00979   2.01280   2.01724   2.02318   2.02852
 Alpha virt. eigenvalues --    2.02910   2.03335   2.03902   2.05371   2.05530
 Alpha virt. eigenvalues --    2.05745   2.07117   2.07607   2.08150   2.08316
 Alpha virt. eigenvalues --    2.09131   2.09435   2.10288   2.11540   2.12278
 Alpha virt. eigenvalues --    2.12373   2.13979   2.14799   2.15088   2.16441
 Alpha virt. eigenvalues --    2.16597   2.17163   2.17852   2.18360   2.19555
 Alpha virt. eigenvalues --    2.19693   2.20326   2.21534   2.21850   2.22080
 Alpha virt. eigenvalues --    2.24069   2.25339   2.25597   2.25913   2.26593
 Alpha virt. eigenvalues --    2.27311   2.28163   2.28808   2.29082   2.29842
 Alpha virt. eigenvalues --    2.30157   2.30807   2.33039   2.33334   2.33699
 Alpha virt. eigenvalues --    2.33700   2.35247   2.35420   2.36456   2.37351
 Alpha virt. eigenvalues --    2.38971   2.39110   2.39655   2.41519   2.41678
 Alpha virt. eigenvalues --    2.42494   2.42856   2.43054   2.44341   2.44745
 Alpha virt. eigenvalues --    2.45511   2.45760   2.46202   2.46404   2.47279
 Alpha virt. eigenvalues --    2.47784   2.48423   2.48688   2.50082   2.50722
 Alpha virt. eigenvalues --    2.51175   2.51964   2.52278   2.52828   2.53088
 Alpha virt. eigenvalues --    2.53998   2.54670   2.55657   2.56726   2.56982
 Alpha virt. eigenvalues --    2.57155   2.57928   2.58973   2.59730   2.60538
 Alpha virt. eigenvalues --    2.61322   2.62248   2.62552   2.64128   2.64716
 Alpha virt. eigenvalues --    2.65461   2.65919   2.67395   2.68830   2.68844
 Alpha virt. eigenvalues --    2.70209   2.70333   2.70825   2.73933   2.74252
 Alpha virt. eigenvalues --    2.74344   2.74483   2.76617   2.78289   2.78502
 Alpha virt. eigenvalues --    2.78556   2.79319   2.79767   2.80853   2.80943
 Alpha virt. eigenvalues --    2.82013   2.82626   2.82702   2.84300   2.84606
 Alpha virt. eigenvalues --    2.85104   2.85997   2.86839   2.87593   2.88509
 Alpha virt. eigenvalues --    2.89104   2.89464   2.90688   2.91562   2.91867
 Alpha virt. eigenvalues --    2.92630   2.92711   2.93212   2.93281   2.94358
 Alpha virt. eigenvalues --    2.94387   2.95451   2.95579   2.95759   2.96679
 Alpha virt. eigenvalues --    2.97043   2.97075   2.97692   2.98290   2.98739
 Alpha virt. eigenvalues --    2.99589   3.00098   3.00155   3.00471   3.00645
 Alpha virt. eigenvalues --    3.00943   3.01179   3.01241   3.01557   3.01868
 Alpha virt. eigenvalues --    3.02147   3.02352   3.02505   3.04090   3.04216
 Alpha virt. eigenvalues --    3.04446   3.05032   3.05064   3.05667   3.06068
 Alpha virt. eigenvalues --    3.06159   3.06904   3.07192   3.08141   3.08241
 Alpha virt. eigenvalues --    3.08453   3.08582   3.09201   3.10393   3.10416
 Alpha virt. eigenvalues --    3.11791   3.11884   3.12393   3.12443   3.13225
 Alpha virt. eigenvalues --    3.13492   3.13923   3.14058   3.14097   3.14592
 Alpha virt. eigenvalues --    3.15159   3.15562   3.16124   3.17109   3.17342
 Alpha virt. eigenvalues --    3.17923   3.18350   3.18483   3.18984   3.18995
 Alpha virt. eigenvalues --    3.19490   3.20003   3.20127   3.20931   3.21225
 Alpha virt. eigenvalues --    3.21384   3.21705   3.22120   3.22348   3.22667
 Alpha virt. eigenvalues --    3.23060   3.23628   3.23987   3.24336   3.25235
 Alpha virt. eigenvalues --    3.25822   3.25917   3.26302   3.26604   3.27369
 Alpha virt. eigenvalues --    3.27988   3.28661   3.29430   3.29671   3.30050
 Alpha virt. eigenvalues --    3.30313   3.30358   3.30827   3.31039   3.32212
 Alpha virt. eigenvalues --    3.32462   3.34004   3.34020   3.34212   3.34759
 Alpha virt. eigenvalues --    3.35516   3.35708   3.36473   3.36662   3.36752
 Alpha virt. eigenvalues --    3.37605   3.38518   3.39641   3.39859   3.40438
 Alpha virt. eigenvalues --    3.40587   3.41761   3.41902   3.42209   3.42696
 Alpha virt. eigenvalues --    3.42827   3.43310   3.43368   3.43523   3.43833
 Alpha virt. eigenvalues --    3.45125   3.46117   3.46494   3.47140   3.47410
 Alpha virt. eigenvalues --    3.47567   3.48000   3.48027   3.48276   3.48603
 Alpha virt. eigenvalues --    3.49011   3.49099   3.50066   3.50551   3.51071
 Alpha virt. eigenvalues --    3.51301   3.51568   3.52102   3.53417   3.53877
 Alpha virt. eigenvalues --    3.54519   3.55041   3.55566   3.55652   3.55971
 Alpha virt. eigenvalues --    3.56938   3.57010   3.57476   3.58225   3.58758
 Alpha virt. eigenvalues --    3.59625   3.60096   3.60712   3.60924   3.61089
 Alpha virt. eigenvalues --    3.61218   3.62628   3.63234   3.63463   3.63997
 Alpha virt. eigenvalues --    3.64087   3.64258   3.65140   3.65573   3.65700
 Alpha virt. eigenvalues --    3.66054   3.66135   3.66542   3.67069   3.67193
 Alpha virt. eigenvalues --    3.68060   3.68300   3.68698   3.69751   3.70108
 Alpha virt. eigenvalues --    3.70490   3.71289   3.71580   3.71594   3.71727
 Alpha virt. eigenvalues --    3.72335   3.72834   3.73216   3.73672   3.73905
 Alpha virt. eigenvalues --    3.73907   3.74330   3.75197   3.75239   3.76571
 Alpha virt. eigenvalues --    3.76762   3.77455   3.77540   3.78535   3.78941
 Alpha virt. eigenvalues --    3.78963   3.79229   3.79669   3.80495   3.81385
 Alpha virt. eigenvalues --    3.81410   3.81640   3.81769   3.82316   3.83419
 Alpha virt. eigenvalues --    3.83542   3.83708   3.84300   3.84445   3.85553
 Alpha virt. eigenvalues --    3.85948   3.86013   3.86182   3.87216   3.87488
 Alpha virt. eigenvalues --    3.88028   3.89088   3.89312   3.89810   3.90246
 Alpha virt. eigenvalues --    3.90265   3.90957   3.91228   3.91459   3.92627
 Alpha virt. eigenvalues --    3.92878   3.93381   3.93795   3.94540   3.95487
 Alpha virt. eigenvalues --    3.97208   3.97353   3.98186   3.98293   3.99362
 Alpha virt. eigenvalues --    3.99764   4.00494   4.01363   4.02029   4.02242
 Alpha virt. eigenvalues --    4.02639   4.03547   4.04436   4.04512   4.05053
 Alpha virt. eigenvalues --    4.05791   4.05806   4.07121   4.09180   4.09294
 Alpha virt. eigenvalues --    4.09554   4.11948   4.12237   4.12328   4.13443
 Alpha virt. eigenvalues --    4.14151   4.14534   4.17279   4.18283   4.18743
 Alpha virt. eigenvalues --    4.19674   4.19868   4.21664   4.23177   4.25145
 Alpha virt. eigenvalues --    4.25372   4.27201   4.27484   4.29348   4.30064
 Alpha virt. eigenvalues --    4.30065   4.31233   4.32450   4.33363   4.34007
 Alpha virt. eigenvalues --    4.34341   4.34992   4.35858   4.36506   4.37682
 Alpha virt. eigenvalues --    4.37828   4.39706   4.40442   4.40724   4.42391
 Alpha virt. eigenvalues --    4.42459   4.43924   4.44944   4.45942   4.46217
 Alpha virt. eigenvalues --    4.47095   4.47331   4.50015   4.50178   4.50669
 Alpha virt. eigenvalues --    4.51276   4.51534   4.52210   4.52575   4.53568
 Alpha virt. eigenvalues --    4.54509   4.54840   4.56036   4.56556   4.56814
 Alpha virt. eigenvalues --    4.57641   4.57874   4.58544   4.58703   4.59222
 Alpha virt. eigenvalues --    4.59512   4.59851   4.60413   4.61018   4.61220
 Alpha virt. eigenvalues --    4.61600   4.61853   4.63179   4.63638   4.64434
 Alpha virt. eigenvalues --    4.65135   4.65726   4.66295   4.67273   4.68739
 Alpha virt. eigenvalues --    4.69655   4.70162   4.70775   4.71791   4.71920
 Alpha virt. eigenvalues --    4.72555   4.72578   4.73419   4.74454   4.76307
 Alpha virt. eigenvalues --    4.76409   4.77505   4.78590   4.79677   4.79979
 Alpha virt. eigenvalues --    4.82351   4.86848   4.87718   4.87754   4.89370
 Alpha virt. eigenvalues --    4.90040   4.90514   4.92943   4.93954   4.95476
 Alpha virt. eigenvalues --    4.96687   4.97612   4.99298   5.01140   5.02963
 Alpha virt. eigenvalues --    5.02975   5.03779   5.04757   5.04761   5.07011
 Alpha virt. eigenvalues --    5.07439   5.08839   5.10214   5.10577   5.11388
 Alpha virt. eigenvalues --    5.12760   5.13017   5.14237   5.15066   5.16403
 Alpha virt. eigenvalues --    5.17610   5.19599   5.19899   5.23053   5.23304
 Alpha virt. eigenvalues --    5.25133   5.25364   5.27321   5.29252   5.31484
 Alpha virt. eigenvalues --    5.31654   5.31838   5.33287   5.33863   5.35555
 Alpha virt. eigenvalues --    5.38639   5.40054   5.40509   5.41446   5.44204
 Alpha virt. eigenvalues --    5.47498   5.50227   5.50688   5.51829   5.55014
 Alpha virt. eigenvalues --    5.58117   5.59057   5.60069   5.62301   5.64277
 Alpha virt. eigenvalues --    5.65029   5.66176   5.66759   5.68601   5.68610
 Alpha virt. eigenvalues --    5.69726   5.70935   5.71473   5.72666   5.74923
 Alpha virt. eigenvalues --    5.76152   5.79119   5.80799   5.81830   5.84049
 Alpha virt. eigenvalues --    5.85821   5.89433   5.91435   5.94202   5.97805
 Alpha virt. eigenvalues --    5.97972   5.99805   6.01920   6.04704   6.05415
 Alpha virt. eigenvalues --    6.07978   6.12417   6.14161   6.14879   6.18141
 Alpha virt. eigenvalues --    6.22722   6.31580   6.33884   6.35759   6.37863
 Alpha virt. eigenvalues --    6.42416   6.52631   6.68006   6.75527   6.89751
 Alpha virt. eigenvalues --    6.95159   7.03285   7.10735   7.12401   7.18163
 Alpha virt. eigenvalues --    7.34329   7.38883   7.42271   7.58169   7.70089
 Alpha virt. eigenvalues --    7.82207   7.97670   8.03881  23.26213  23.36653
 Alpha virt. eigenvalues --   23.42987  23.65284  23.73709  23.76292  23.77196
 Alpha virt. eigenvalues --   23.77295  23.79630  23.85580  23.88389  23.89704
 Alpha virt. eigenvalues --   23.92952  23.95624  23.97783  24.01321  24.03255
 Alpha virt. eigenvalues --   24.10105  24.12246  24.18641  24.20801  24.29172
 Alpha virt. eigenvalues --   24.39974  24.42982  24.43687  24.53051  24.72556
 Alpha virt. eigenvalues --   24.78843  24.96160  25.16601  25.36232  45.65815
 Alpha virt. eigenvalues --   46.14764
          Condensed to atoms (all electrons):
 Mulliken charges:
               1
     1  C   -0.100241
     2  C   -0.338724
     3  C    0.217274
     4  C    0.147267
     5  C   -0.315236
     6  C   -0.159375
     7  C   -0.490887
     8  C    0.406838
     9  C   -0.183372
    10  C    0.142197
    11  C    0.213486
    12  C    0.268116
    13  C    0.470451
    14  H    0.167860
    15  H    0.168268
    16  H    0.168386
    17  H    0.178767
    18  H    0.165665
    19  C    0.175936
    20  C   -0.293843
    21  C   -0.293847
    22  C   -0.188436
    23  H    0.161795
    24  C   -0.188434
    25  H    0.161795
    26  C   -0.149967
    27  H    0.160232
    28  H    0.160232
    29  H    0.161901
    30  O   -0.471654
    31  O   -0.312566
    32  C   -0.266381
    33  C   -0.389625
    34  C   -0.029762
    35  C   -0.209834
    36  H    0.171739
    37  H    0.168093
    38  H    0.164411
    39  C    0.143590
    40  C    0.282959
    41  C   -0.140069
    42  C   -0.207916
    43  C   -0.206831
    44  C   -0.212854
    45  H    0.169528
    46  C   -0.213079
    47  H    0.169817
    48  C   -0.098417
    49  H    0.163798
    50  H    0.163831
    51  H    0.167116
 Sum of Mulliken charges =  -0.00000
 Mulliken charges with hydrogens summed into heavy atoms:
               1
     1  C    0.068027
     2  C   -0.170338
     3  C    0.217274
     4  C    0.147267
     5  C   -0.136469
     6  C    0.006291
     7  C   -0.323028
     8  C    0.406838
     9  C   -0.183372
    10  C    0.142197
    11  C    0.213486
    12  C    0.268116
    13  C    0.470451
    19  C    0.175936
    20  C   -0.132048
    21  C   -0.132052
    22  C   -0.028204
    24  C   -0.028201
    26  C    0.011934
    30  O   -0.471654
    31  O   -0.312566
    32  C   -0.098288
    33  C   -0.225214
    34  C   -0.029762
    35  C   -0.038095
    39  C    0.143590
    40  C    0.282959
    41  C   -0.140069
    42  C   -0.038388
    43  C   -0.037014
    44  C   -0.049055
    46  C   -0.049248
    48  C    0.068699
 Electronic spatial extent (au):  <R**2>=          23775.2032
 Charge=             -0.0000 electrons
 Dipole moment (field-independent basis, Debye):
    X=              0.2434    Y=              6.3991    Z=             -0.0002  Tot=              6.4037
 Quadrupole moment (field-independent basis, Debye-Ang):
   XX=           -137.7917   YY=           -172.3393   ZZ=           -193.7869
   XY=             -9.9520   XZ=             -0.0004   YZ=             -0.0001
 Traceless Quadrupole moment (field-independent basis, Debye-Ang):
   XX=             30.1809   YY=             -4.3667   ZZ=            -25.8143
   XY=             -9.9520   XZ=             -0.0004   YZ=             -0.0001
 Octapole moment (field-independent basis, Debye-Ang**2):
  XXX=            260.1514  YYY=             93.4090  ZZZ=              0.0007  XYY=              0.4921
  XXY=            -10.5609  XXZ=             -0.0075  XZZ=            -59.8488  YZZ=            -32.9438
  YYZ=             -0.0008  XYZ=             -0.0003
 Hexadecapole moment (field-independent basis, Debye-Ang**3):
 XXXX=         -23099.5924 YYYY=          -3917.5098 ZZZZ=           -444.1345 XXXY=           -189.3842
 XXXZ=             -0.0507 YYYX=           -219.3062 YYYZ=              0.0101 ZZZX=              0.0137
 ZZZY=              0.0151 XXYY=          -4570.2695 XXZZ=          -5277.3836 YYZZ=           -813.9446
 XXYZ=             -0.0000 YYXZ=              0.0037 ZZXY=            143.3505
 N-N= 2.796773093612D+03 E-N=-8.708742220522D+03  KE= 1.334390424855D+03
 Leave Link  601 at Fri Apr  2 13:06:04 2021, MaxMem=  5242880000 cpu:         8.3
 (Enter /opt/nce/packages/global/g09/l9999.exe)
 1\1\GINC-CN066\SP\RTD-FC\Gen\C31H18O2\PNG4RJV\02-Apr-2021\0\\#p hf chk
 basis geom=allcheck Guess=Read int=ultrafine scrf=(SMD,solvent=Acetoni
 trile) td=(NStates=30)\\Title\\0,1\C,0,5.1563944711,3.766328439,0.0000
 083383\C,0,3.8098700516,3.6465050151,0.0000182547\C,0,3.1984509677,2.3
 638342823,0.0000121102\C,0,3.9993431964,1.2089161093,-0.000003957\C,0,
 5.4146489562,1.3749758137,-0.0000148339\C,0,5.9712545787,2.6087839046,
 -0.0000088496\C,0,1.7990397898,2.2428506004,0.0000181001\C,0,3.3765795
 158,-0.0739091581,-0.0000083868\C,0,2.0012982686,-0.1558848407,0.00000
 28414\C,0,1.1958771751,1.0253724387,0.0000103315\C,0,-0.2694132643,0.8
 850831291,0.0000004531\C,0,-0.8048801973,-0.3830264479,-0.0000169394\C
 ,0,1.319098307,-1.4778553409,0.0000148161\H,0,1.2224339788,3.144841268
 4,0.0000251797\H,0,5.6151108983,4.7373765445,0.0000129269\H,0,3.179621
 8147,4.5161098699,0.0000303931\H,0,6.0497313246,0.5138420132,-0.000028
 1675\H,0,7.0397410921,2.7147696808,-0.0000174197\C,0,4.280573533,-1.27
 14053545,-0.0000247387\C,0,4.7302224039,-1.8074389027,-1.1943546984\C,
 0,4.7302713551,-1.8074362842,1.1942884466\C,0,5.6042486639,-2.87897843
 7,-1.1951537798\H,0,4.3948014423,-1.3921403333,-2.1267535343\C,0,5.604
 2971712,-2.8789756182,1.1950542572\H,0,4.3948882653,-1.392135535,2.126
 6999379\C,0,6.0432406002,-3.4197708388,-0.0000582766\H,0,5.9428105998,
 -3.2886895298,-2.1288411584\H,0,5.9428969794,-3.2886850302,2.128728632
 \H,0,6.7228056239,-4.2517146783,-0.0000710376\O,0,1.8474241716,-2.5348
 128454,-0.0000341987\O,0,-0.0168417668,-1.4848575878,-0.0000140629\C,0
 ,-1.1683445082,1.9536741318,-0.0000036953\C,0,-2.1653722056,-0.6200953
 881,-0.000035814\C,0,-3.0369508167,0.4502791894,-0.0000361363\C,0,-2.5
 236522237,1.7479950151,-0.0000208\H,0,-3.1922457085,2.5865697041,-0.00
 00235184\H,0,-0.8081142728,2.9619292151,0.0000052602\H,0,-2.5242477776
 ,-1.6304582307,-0.0000483283\C,0,-4.4575575852,0.2310719794,-0.0000558
 146\C,0,-5.6319461937,0.0581268465,-0.0000664702\C,0,-7.0562078168,-0.
 148248879,-0.0000288936\C,0,-7.9205139898,0.9411047186,-0.0000001543\C
 ,0,-7.5774513467,-1.4373162106,-0.0000249219\C,0,-9.2866313339,0.74062
 77724,0.0000321954\H,0,-7.5209212235,1.9372800338,-0.0000036803\C,0,-8
 .9446036288,-1.6309658409,0.0000075456\H,0,-6.9125999848,-2.2799707229
 ,-0.0000476694\C,0,-9.8012082564,-0.5440535314,0.0000364784\H,0,-9.948
 1880525,1.5864986421,0.0000541632\H,0,-9.340119462,-2.6292885318,0.000
 0103079\H,0,-10.8641435806,-0.6975272586,0.0000619664\\Version=ES64L-G
 09RevE.01\State=1-A\HF=-1334.6293788\RMSD=7.793e-09\PG=C01 [X(C31H18O2
 )]\\@


 IF THE FACTS DO NOT CONFORM TO THE THEORY, THEY MUST BE DISPOSED OF.
 Job cpu time:       2 days  2 hours  4 minutes 15.0 seconds.
 File lengths (MBytes):  RWF=   6324 Int=      0 D2E=      0 Chk=   1136 Scr=      1
 Normal termination of Gaussian 09 at Fri Apr  2 13:06:06 2021.
