
                                 *****************
                                 * O   R   C   A *
                                 *****************

                                            #,                                       
                                            ###                                      
                                            ####                                     
                                            #####                                    
                                            ######                                   
                                           ########,                                 
                                     ,,################,,,,,                         
                               ,,#################################,,                 
                          ,,##########################################,,             
                       ,#########################################, ''#####,          
                    ,#############################################,,   '####,        
                  ,##################################################,,,,####,       
                ,###########''''           ''''###############################       
              ,#####''   ,,,,##########,,,,          '''####'''          '####       
            ,##' ,,,,###########################,,,                        '##       
           ' ,,###''''                  '''############,,,                           
         ,,##''                                '''############,,,,        ,,,,,,###''
      ,#''                                            '''#######################'''  
     '                                                          ''''####''''         
             ,#######,   #######,   ,#######,      ##                                
            ,#'     '#,  ##    ##  ,#'     '#,    #''#        ######   ,####,        
            ##       ##  ##   ,#'  ##            #'  '#       #        #'  '#        
            ##       ##  #######   ##           ,######,      #####,   #    #        
            '#,     ,#'  ##    ##  '#,     ,#' ,#      #,         ##   #,  ,#        
             '#######'   ##     ##  '#######'  #'      '#     #####' # '####'        



                  #######################################################
                  #                        -***-                        #
                  #          Department of theory and spectroscopy      #
                  #    Directorship and core code : Frank Neese         #
                  #        Max Planck Institute fuer Kohlenforschung    #
                  #                Kaiser Wilhelm Platz 1               #
                  #                 D-45470 Muelheim/Ruhr               #
                  #                      Germany                        #
                  #                                                     #
                  #                  All rights reserved                #
                  #                        -***-                        #
                  #######################################################


                         Program Version 5.0.2 -  RELEASE  -


 With contributions from (in alphabetic order):
   Daniel Aravena         : Magnetic Suceptibility
   Michael Atanasov       : Ab Initio Ligand Field Theory (pilot matlab implementation)
   Alexander A. Auer      : GIAO ZORA, VPT2 properties, NMR spectrum
   Ute Becker             : Parallelization
   Giovanni Bistoni       : ED, misc. LED, open-shell LED, HFLD
   Martin Brehm           : Molecular dynamics
   Dmytro Bykov           : SCF Hessian
   Vijay G. Chilkuri      : MRCI spin determinant printing, contributions to CSF-ICE
   Dipayan Datta          : RHF DLPNO-CCSD density
   Achintya Kumar Dutta   : EOM-CC, STEOM-CC
   Dmitry Ganyushin       : Spin-Orbit,Spin-Spin,Magnetic field MRCI
   Miquel Garcia          : C-PCM and meta-GGA Hessian, CC/C-PCM, Gaussian charge scheme
   Yang Guo               : DLPNO-NEVPT2, F12-NEVPT2, CIM, IAO-localization
   Andreas Hansen         : Spin unrestricted coupled pair/coupled cluster methods
   Benjamin Helmich-Paris : MC-RPA, TRAH-SCF, COSX integrals
   Lee Huntington         : MR-EOM, pCC
   Robert Izsak           : Overlap fitted RIJCOSX, COSX-SCS-MP3, EOM
   Marcus Kettner         : VPT2
   Christian Kollmar      : KDIIS, OOCD, Brueckner-CCSD(T), CCSD density, CASPT2, CASPT2-K
   Simone Kossmann        : Meta GGA functionals, TD-DFT gradient, OOMP2, MP2 Hessian
   Martin Krupicka        : Initial AUTO-CI
   Lucas Lang             : DCDCAS
   Marvin Lechner         : AUTO-CI (C++ implementation), FIC-MRCC
   Dagmar Lenk            : GEPOL surface, SMD
   Dimitrios Liakos       : Extrapolation schemes; Compound Job, initial MDCI parallelization
   Dimitrios Manganas     : Further ROCIS development; embedding schemes
   Dimitrios Pantazis     : SARC Basis sets
   Anastasios Papadopoulos: AUTO-CI, single reference methods and gradients
   Taras Petrenko         : DFT Hessian,TD-DFT gradient, ASA, ECA, R-Raman, ABS, FL, XAS/XES, NRVS
   Peter Pinski           : DLPNO-MP2, DLPNO-MP2 Gradient
   Christoph Reimann      : Effective Core Potentials
   Marius Retegan         : Local ZFS, SOC
   Christoph Riplinger    : Optimizer, TS searches, QM/MM, DLPNO-CCSD(T), (RO)-DLPNO pert. Triples
   Tobias Risthaus        : Range-separated hybrids, TD-DFT gradient, RPA, STAB
   Michael Roemelt        : Original ROCIS implementation
   Masaaki Saitow         : Open-shell DLPNO-CCSD energy and density
   Barbara Sandhoefer     : DKH picture change effects
   Avijit Sen             : IP-ROCIS
   Kantharuban Sivalingam : CASSCF convergence, NEVPT2, FIC-MRCI
   Bernardo de Souza      : ESD, SOC TD-DFT
   Georgi Stoychev        : AutoAux, RI-MP2 NMR, DLPNO-MP2 response
   Willem Van den Heuvel  : Paramagnetic NMR
   Boris Wezisla          : Elementary symmetry handling
   Frank Wennmohs         : Technical directorship


 We gratefully acknowledge several colleagues who have allowed us to
 interface, adapt or use parts of their codes:
   Stefan Grimme, W. Hujo, H. Kruse, P. Pracht,  : VdW corrections, initial TS optimization,
                  C. Bannwarth, S. Ehlert          DFT functionals, gCP, sTDA/sTD-DF
   Ed Valeev, F. Pavosevic, A. Kumar             : LibInt (2-el integral package), F12 methods
   Garnet Chan, S. Sharma, J. Yang, R. Olivares  : DMRG
   Ulf Ekstrom                                   : XCFun DFT Library
   Mihaly Kallay                                 : mrcc  (arbitrary order and MRCC methods)
   Jiri Pittner, Ondrej Demel                    : Mk-CCSD
   Frank Weinhold                                : gennbo (NPA and NBO analysis)
   Christopher J. Cramer and Donald G. Truhlar   : smd solvation model
   Lars Goerigk                                  : TD-DFT with DH, B97 family of functionals
   V. Asgeirsson, H. Jonsson                     : NEB implementation
   FAccTs GmbH                                   : IRC, NEB, NEB-TS, DLPNO-Multilevel, CI-OPT
                                                   MM, QMMM, 2- and 3-layer-ONIOM, Crystal-QMMM,
                                                   LR-CPCM, SF, NACMEs, symmetry and pop. for TD-DFT,
                                                   nearIR, NL-DFT gradient (VV10), updates on ESD,
                                                   ML-optimized integration grids
   S Lehtola, MJT Oliveira, MAL Marques          : LibXC Library
   Liviu Ungur et al                             : ANISO software


 Your calculation uses the libint2 library for the computation of 2-el integrals
 For citations please refer to: http://libint.valeyev.net

 Your ORCA version has been built with support for libXC version: 5.1.0
 For citations please refer to: https://tddft.org/programs/libxc/

 This ORCA versions uses:
   CBLAS   interface :  Fast vector & matrix operations
   LAPACKE interface :  Fast linear algebra routines
   SCALAPACK package :  Parallel linear algebra routines
   Shared memory     :  Shared parallel matrices
   BLAS/LAPACK       :  OpenBLAS 0.3.15  USE64BITINT DYNAMIC_ARCH NO_AFFINITY Prescott SINGLE_THREADED
        Core in use  :  Prescott
   Copyright (c) 2011-2014, The OpenBLAS Project


Your calculation utilizes the SMD solvation module
Please cite in your paper:
A.V. Marenich, C.J. Cramer, D.G. Truhlar J. Phys. Chem. B, 113, (2009), 6378 

================================================================================

----- Orbital basis set information -----
Your calculation utilizes the basis: def2-TZVP
   F. Weigend and R. Ahlrichs, Phys. Chem. Chem. Phys. 7, 3297 (2005).

----- AuxJ basis set information -----
Your calculation utilizes the auxiliary basis: def2/J
   F. Weigend, Phys. Chem. Chem. Phys. 8, 1057 (2006).

----- AuxC basis set information -----
Your calculation utilizes the auxiliary basis: def2-TZVP/C
  H-La, Hf-Rn : A. Hellweg, C. Hattig, S. Hofener and W. Klopper, Theor. Chem. Acc. 117, 587 (2007).
        Ce-Lu : J. Chmela and M. E. Harding, Mol. Phys. (2018).

================================================================================
                                        WARNINGS
                       Please study these warnings very carefully!
================================================================================

INFO   : Checking CIS options ...
  ===> : (D) CORRECTION FOUND - SETTING MODE=3
  ===> : JK MODE FOUND - ACTIVATING RI-MP2 CODE
  ===> : MP2 AND CIS FOUND - CHECKING
WARNING: CIS(D) and MP2 runs must have the same orbital window
  ===> : adjusting orbital windows

WARNING: No MP2 level density has been requested!
         To caclulate MP2 level properties use
         %mp2 Density relaxed end
         or
         %mp2 Density unrelaxed end
         Otherwise for double-hybrid DFT only the energy is correct!

WARNING: The frozen-core approximation is turned on by default for 
         the MP2 part of double-hybrid DFT.

WARNING: CIS/ROCIS methods need fully converged wavefunctions
  ===> : Setting SCFConvForced true
         You can overwrite this default with %scf ConvForced false 


INFO   : the flag for use of the SHARK integral package has been found!

================================================================================
                                       INPUT FILE
================================================================================
NAME = NCE_3_M06L_def2TZVP_coords.inp
|  1> %maxcore 20000
|  2> %pal
|  3>  nprocs= 6
|  4> end
|  5> ! RI-SCS-PBE-QIDH   def2-TZVP def2/J def2-TZVP/C RIJCOSX CPCM TightSCF
|  6> %TDDFT  
|  7>    NROOTS   30
|  8>    dcorr 4
|  9>    doscs true 
| 10>    TDA      FALSE
| 11> END
| 12> 
| 13> %CPCM
| 14>    SMD          TRUE
| 15>    SMDsolvent   "ACETONITRILE"
| 16> END
| 17>    
| 18> 
| 19> * xyz 0 1
| 20> C                  -5.15252500    3.78683200   -0.00005500
| 21> C                  -3.79144100    3.66343900   -0.00005200
| 22> C                  -3.18004300    2.38856400   -0.00003300
| 23> C                  -4.00071400    1.22018000   -0.00001900
| 24> C                  -5.40669600    1.38940600   -0.00002000
| 25> C                  -5.96631000    2.63818200   -0.00003800
| 26> C                  -1.78742100    2.25096500   -0.00002400
| 27> C                  -3.38834200   -0.06090600   -0.00000400
| 28> C                  -1.99848800   -0.16040500    0.00000000
| 29> C                  -1.18197600    1.01432600   -0.00000500
| 30> C                   0.26083200    0.86639900    0.00001000
| 31> C                   0.80317800   -0.41814200    0.00002100
| 32> C                  -1.36259400   -1.48358200   -0.00000000
| 33> H                  -1.19029900    3.15308400   -0.00003200
| 34> H                  -5.60982600    4.76815600   -0.00006900
| 35> H                  -3.15448700    4.53975900   -0.00006300
| 36> H                  -6.04425100    0.51527900   -0.00000500
| 37> H                  -7.04342300    2.74557200   -0.00003800
| 38> C                  -4.28501900   -1.24557400    0.00001200
| 39> C                  -4.74174300   -1.78389800    1.20010100
| 40> C                  -4.74181900   -1.78387200   -1.20006000
| 41> C                  -5.61630000   -2.85989600    1.19960700
| 42> H                  -4.40061200   -1.36052800    2.13761400
| 43> C                  -5.61637400   -2.85987200   -1.19953500
| 44> H                  -4.40074700   -1.36048100   -2.13758600
| 45> C                  -6.05418600   -3.40387800    0.00004400
| 46> H                  -5.95904900   -3.27267700    2.14042300
| 47> H                  -5.95918000   -3.27263400   -2.14033800
| 48> H                  -6.73737400   -4.24386400    0.00005600
| 49> O                  -1.91547400   -2.55400800   -0.00000900
| 50> O                   0.00929400   -1.52798100    0.00001300
| 51> C                   1.16802600    1.93502200    0.00001800
| 52> C                   2.16577600   -0.65341400    0.00003600
| 53> C                   3.05269100    0.42407900    0.00004100
| 54> C                   2.52677400    1.72912600    0.00003300
| 55> H                   3.20355900    2.57264400    0.00003900
| 56> H                   0.79646700    2.95048000    0.00001400
| 57> H                   2.52801400   -1.67218700    0.00004300
| 58> C                   4.44874700    0.21131500    0.00005800
| 59> C                   5.64839500    0.04157700    0.00006400
| 60> C                   7.04900000   -0.15351700    0.00001500
| 61> C                   7.92079600    0.94548000   -0.00001200
| 62> C                   7.59070800   -1.44739900   -0.00000400
| 63> C                   9.28994200    0.75068400   -0.00005500
| 64> H                   7.50965400    1.94667100    0.00000300
| 65> C                   8.96156600   -1.63022400   -0.00004800
| 66> H                   6.92396300   -2.29996900    0.00001700
| 67> C                   9.81565400   -0.53494200   -0.00007400
| 68> H                   9.95175600    1.60749300   -0.00007600
| 69> H                   9.36673300   -2.63417100   -0.00006200
| 70> H                  10.88798800   -0.68303700   -0.00010900
| 71> *
| 72> 
| 73> 
| 74>                          ****END OF INPUT****
================================================================================

                       ****************************
                       * Single Point Calculation *
                       ****************************

---------------------------------
CARTESIAN COORDINATES (ANGSTROEM)
---------------------------------
  C     -5.152525    3.786832   -0.000055
  C     -3.791441    3.663439   -0.000052
  C     -3.180043    2.388564   -0.000033
  C     -4.000714    1.220180   -0.000019
  C     -5.406696    1.389406   -0.000020
  C     -5.966310    2.638182   -0.000038
  C     -1.787421    2.250965   -0.000024
  C     -3.388342   -0.060906   -0.000004
  C     -1.998488   -0.160405    0.000000
  C     -1.181976    1.014326   -0.000005
  C      0.260832    0.866399    0.000010
  C      0.803178   -0.418142    0.000021
  C     -1.362594   -1.483582   -0.000000
  H     -1.190299    3.153084   -0.000032
  H     -5.609826    4.768156   -0.000069
  H     -3.154487    4.539759   -0.000063
  H     -6.044251    0.515279   -0.000005
  H     -7.043423    2.745572   -0.000038
  C     -4.285019   -1.245574    0.000012
  C     -4.741743   -1.783898    1.200101
  C     -4.741819   -1.783872   -1.200060
  C     -5.616300   -2.859896    1.199607
  H     -4.400612   -1.360528    2.137614
  C     -5.616374   -2.859872   -1.199535
  H     -4.400747   -1.360481   -2.137586
  C     -6.054186   -3.403878    0.000044
  H     -5.959049   -3.272677    2.140423
  H     -5.959180   -3.272634   -2.140338
  H     -6.737374   -4.243864    0.000056
  O     -1.915474   -2.554008   -0.000009
  O      0.009294   -1.527981    0.000013
  C      1.168026    1.935022    0.000018
  C      2.165776   -0.653414    0.000036
  C      3.052691    0.424079    0.000041
  C      2.526774    1.729126    0.000033
  H      3.203559    2.572644    0.000039
  H      0.796467    2.950480    0.000014
  H      2.528014   -1.672187    0.000043
  C      4.448747    0.211315    0.000058
  C      5.648395    0.041577    0.000064
  C      7.049000   -0.153517    0.000015
  C      7.920796    0.945480   -0.000012
  C      7.590708   -1.447399   -0.000004
  C      9.289942    0.750684   -0.000055
  H      7.509654    1.946671    0.000003
  C      8.961566   -1.630224   -0.000048
  H      6.923963   -2.299969    0.000017
  C      9.815654   -0.534942   -0.000074
  H      9.951756    1.607493   -0.000076
  H      9.366733   -2.634171   -0.000062
  H     10.887988   -0.683037   -0.000109

----------------------------
CARTESIAN COORDINATES (A.U.)
----------------------------
  NO LB      ZA    FRAG     MASS         X           Y           Z
   0 C     6.0000    0    12.011   -9.736861    7.156075   -0.000104
   1 C     6.0000    0    12.011   -7.164785    6.922896   -0.000098
   2 C     6.0000    0    12.011   -6.009410    4.513732   -0.000062
   3 C     6.0000    0    12.011   -7.560254    2.305806   -0.000036
   4 C     6.0000    0    12.011  -10.217175    2.625597   -0.000038
   5 C     6.0000    0    12.011  -11.274692    4.985441   -0.000072
   6 C     6.0000    0    12.011   -3.377736    4.253707   -0.000045
   7 C     6.0000    0    12.011   -6.403038   -0.115096   -0.000008
   8 C     6.0000    0    12.011   -3.776595   -0.303122    0.000000
   9 C     6.0000    0    12.011   -2.233611    1.916798   -0.000009
  10 C     6.0000    0    12.011    0.492901    1.637257    0.000019
  11 C     6.0000    0    12.011    1.517786   -0.790174    0.000040
  12 C     6.0000    0    12.011   -2.574929   -2.803564   -0.000000
  13 H     1.0000    0     1.008   -2.249339    5.958465   -0.000060
  14 H     1.0000    0     1.008  -10.601035    9.010509   -0.000130
  15 H     1.0000    0     1.008   -5.961117    8.578901   -0.000119
  16 H     1.0000    0     1.008  -11.421979    0.973736   -0.000009
  17 H     1.0000    0     1.008  -13.310141    5.188379   -0.000072
  18 C     6.0000    0    12.011   -8.097512   -2.353794    0.000023
  19 C     6.0000    0    12.011   -8.960596   -3.371079    2.267862
  20 C     6.0000    0    12.011   -8.960739   -3.371030   -2.267785
  21 C     6.0000    0    12.011  -10.613269   -5.404420    2.266929
  22 H     1.0000    0     1.008   -8.315952   -2.571025    4.039505
  23 C     6.0000    0    12.011  -10.613409   -5.404375   -2.266793
  24 H     1.0000    0     1.008   -8.316207   -2.570937   -4.039452
  25 C     6.0000    0    12.011  -11.440754   -6.432397    0.000083
  26 H     1.0000    0     1.008  -11.260971   -6.184463    4.044813
  27 H     1.0000    0     1.008  -11.261218   -6.184382   -4.044653
  28 H     1.0000    0     1.008  -12.731792   -8.019741    0.000106
  29 O     8.0000    0    15.999   -3.619721   -4.826376   -0.000017
  30 O     8.0000    0    15.999    0.017563   -2.887466    0.000025
  31 C     6.0000    0    12.011    2.207249    3.656662    0.000034
  32 C     6.0000    0    12.011    4.092724   -1.234774    0.000068
  33 C     6.0000    0    12.011    5.768750    0.801393    0.000077
  34 C     6.0000    0    12.011    4.774911    3.267575    0.000062
  35 H     1.0000    0     1.008    6.053849    4.861593    0.000074
  36 H     1.0000    0     1.008    1.505105    5.575599    0.000026
  37 H     1.0000    0     1.008    4.777254   -3.159975    0.000081
  38 C     6.0000    0    12.011    8.406913    0.399327    0.000110
  39 C     6.0000    0    12.011   10.673920    0.078569    0.000121
  40 C     6.0000    0    12.011   13.320680   -0.290105    0.000028
  41 C     6.0000    0    12.011   14.968135    1.786698   -0.000023
  42 C     6.0000    0    12.011   14.344359   -2.735188   -0.000008
  43 C     6.0000    0    12.011   17.555446    1.418587   -0.000104
  44 H     1.0000    0     1.008   14.191189    3.678675    0.000006
  45 C     6.0000    0    12.011   16.934905   -3.080677   -0.000091
  46 H     1.0000    0     1.008   13.084394   -4.346312    0.000032
  47 C     6.0000    0    12.011   18.548898   -1.010894   -0.000140
  48 H     1.0000    0     1.008   18.806093    3.037722   -0.000144
  49 H     1.0000    0     1.008   17.700560   -4.977862   -0.000117
  50 H     1.0000    0     1.008   20.575315   -1.290753   -0.000206

--------------------------------
INTERNAL COORDINATES (ANGSTROEM)
--------------------------------
 C      0   0   0     0.000000000000     0.00000000     0.00000000
 C      1   0   0     1.366665828765     0.00000000     0.00000000
 C      2   1   0     1.413900201708   120.80135881     0.00000000
 C      3   2   1     1.427803229403   119.29465327     0.00000000
 C      4   3   2     1.416129522113   118.22095476     0.00000000
 C      5   4   3     1.368433165155   121.00176994     0.00000000
 C      3   2   1     1.399403272744   121.26403981   180.00027619
 C      4   3   2     1.419922816918   119.36758947   179.99981074
 C      8   4   3     1.393410991895   119.64306128     0.00000000
 C      7   3   2     1.376894935973   121.72870190   179.99997528
 C     10   7   3     1.450371442913   121.93978593   180.00026101
 C     11  10   7     1.394340261385   118.74387392   180.00037175
 C      9   8   4     1.468045827815   119.76285697   180.00069687
 H      7   3   2     1.081837960653   117.85815723     0.00000000
 H      1   2   3     1.082645370273   120.16586546   179.99996246
 H      2   1   3     1.083349962218   120.83140960   180.00006883
 H      5   4   3     1.081930862107   119.24240258   180.00027372
 H      6   5   4     1.082453244657   119.83225380   180.00002651
 C      8   4   3     1.485754997572   117.32959704   179.99992231
 C     19   8   4     1.392337297164   120.41510643   271.87442247
 C     19   8   4     1.392337524449   120.41506701    88.12121136
 C     20  19   8     1.386586415010   120.43879028   177.70186386
 H     20  19   8     1.083763415709   119.42745631   357.13667922
 C     21  19   8     1.386586716960   120.43882770   182.29800079
 H     21  19   8     1.083764295749   119.42744187     2.86331027
 C     24  21  19     1.388024370327   120.22585761     0.55296857
 H     22  20  19     1.083051142291   119.67313250   179.63190557
 H     24  21  19     1.083050648441   119.67315728   180.36827144
 H     26  24  21     1.082738344977   120.20474385   179.97815101
 O     13   9   8     1.204777205942   127.01537179     0.00000000
 O     12  11  10     1.364549160507   121.53335236     0.00000000
 C     11  10   7     1.401768907427   124.47525294     0.00000000
 C     12  11  10     1.382760363842   122.68629909   180.00002051
 C     33  12  11     1.395567763421   119.66241944     0.00000000
 C     32  11  10     1.374259542643   121.71248917   179.99996118
 H     35  32  11     1.081462228922   120.12465025   180.00000661
 H     32  11  10     1.081300624369   119.57311028     0.00000000
 H     33  12  11     1.081256118698   119.36984915   180.00006240
 C     34  33  12     1.412175936320   120.79335812   179.99991776
 C     39  34  33     1.211596596473   179.38790834   179.96217090
 C     40  39  34     1.414127305889   179.87652366   358.98505421
 C     41  40  39     1.402791029467   120.49388349     1.05283969
 C     41  40  39     1.402703884485   120.64739698   181.05267610
 C     42  41  40     1.382933929290   120.32629833   179.99976427
 H     42  41  40     1.082322116040   119.25061090     0.00000000
 C     43  41  40     1.382995530985   120.31398632   180.00018999
 H     43  41  40     1.082323657861   119.25558330     0.00000000
 C     46  43  41     1.388923673909   120.35023837     0.00000000
 H     44  42  41     1.082644647850   119.58567135   179.99996895
 H     46  43  41     1.082621760771   119.57417401   179.99998428
 H     48  46  43     1.082512049728   120.08357500   180.00003523

---------------------------
INTERNAL COORDINATES (A.U.)
---------------------------
 C      0   0   0     0.000000000000     0.00000000     0.00000000
 C      1   0   0     2.582624132954     0.00000000     0.00000000
 C      2   1   0     2.671884161924   120.80135881     0.00000000
 C      3   2   1     2.698157076700   119.29465327     0.00000000
 C      4   3   2     2.676096966955   118.22095476     0.00000000
 C      5   4   3     2.585963914718   121.00176994     0.00000000
 C      3   2   1     2.644488936399   121.26403981   180.00027619
 C      4   3   2     2.683265255281   119.36758947   179.99981074
 C      8   4   3     2.633165166677   119.64306128     0.00000000
 C      7   3   2     2.601954344171   121.72870190   179.99997528
 C     10   7   3     2.740804819566   121.93978593   180.00026101
 C     11  10   7     2.634921231517   118.74387392   180.00037175
 C      9   8   4     2.774204566616   119.76285697   180.00069687
 H      7   3   2     2.044377466913   117.85815723     0.00000000
 H      1   2   3     2.045903249973   120.16586546   179.99996246
 H      2   1   3     2.047234735785   120.83140960   180.00006883
 H      5   4   3     2.044553025219   119.24240258   180.00027372
 H      6   5   4     2.045540185177   119.83225380   180.00002651
 C      8   4   3     2.807670047515   117.32959704   179.99992231
 C     19   8   4     2.631136177683   120.41510643   271.87442247
 C     19   8   4     2.631136607190   120.41506701    88.12121136
 C     20  19   8     2.620268585384   120.43879028   177.70186386
 H     20  19   8     2.048016049654   119.42745631   357.13667922
 C     21  19   8     2.620269155987   120.43882770   182.29800079
 H     21  19   8     2.048017712688   119.42744187     2.86331027
 C     24  21  19     2.622985927126   120.22585761     0.55296857
 H     22  20  19     2.046670047961   119.67313250   179.63190557
 H     24  21  19     2.046669114720   119.67315728   180.36827144
 H     26  24  21     2.046078946702   120.20474385   179.97815101
 O     13   9   8     2.276698971621   127.01537179     0.00000000
 O     12  11  10     2.578624209631   121.53335236     0.00000000
 C     11  10   7     2.648959338083   124.47525294     0.00000000
 C     12  11  10     2.613038396503   122.68629909   180.00002051
 C     33  12  11     2.637240874194   119.66241944     0.00000000
 C     32  11  10     2.596974172523   121.71248917   179.99996118
 H     35  32  11     2.043667436843   120.12465025   180.00000661
 H     32  11  10     2.043362048496   119.57311028     0.00000000
 H     33  12  11     2.043277944966   119.36984915   180.00006240
 C     34  33  12     2.668625772558   120.79335812   179.99991776
 C     39  34  33     2.289585752124   179.38790834   179.96217090
 C     40  39  34     2.672313326631   179.87652366   358.98505421
 C     41  40  39     2.650890868815   120.49388349     1.05283969
 C     41  40  39     2.650726188664   120.64739698   181.05267610
 C     42  41  40     2.613366387665   120.32629833   179.99976427
 H     42  41  40     2.045292388002   119.25061090     0.00000000
 C     43  41  40     2.613482797999   120.31398632   180.00018999
 H     43  41  40     2.045295301622   119.25558330     0.00000000
 C     46  43  41     2.624685364607   120.35023837     0.00000000
 H     44  42  41     2.045901884792   119.58567135   179.99996895
 H     46  43  41     2.045858634480   119.57417401   179.99998428
 H     48  46  43     2.045651310655   120.08357500   180.00003523

---------------------
BASIS SET INFORMATION
---------------------
There are 3 groups of distinct atoms

 Group   1 Type C   : 11s6p2d1f contracted to 5s3p2d1f pattern {62111/411/11/1}
 Group   2 Type H   : 5s1p contracted to 3s1p pattern {311/1}
 Group   3 Type O   : 11s6p2d1f contracted to 5s3p2d1f pattern {62111/411/11/1}

Atom   0C    basis set group =>   1
Atom   1C    basis set group =>   1
Atom   2C    basis set group =>   1
Atom   3C    basis set group =>   1
Atom   4C    basis set group =>   1
Atom   5C    basis set group =>   1
Atom   6C    basis set group =>   1
Atom   7C    basis set group =>   1
Atom   8C    basis set group =>   1
Atom   9C    basis set group =>   1
Atom  10C    basis set group =>   1
Atom  11C    basis set group =>   1
Atom  12C    basis set group =>   1
Atom  13H    basis set group =>   2
Atom  14H    basis set group =>   2
Atom  15H    basis set group =>   2
Atom  16H    basis set group =>   2
Atom  17H    basis set group =>   2
Atom  18C    basis set group =>   1
Atom  19C    basis set group =>   1
Atom  20C    basis set group =>   1
Atom  21C    basis set group =>   1
Atom  22H    basis set group =>   2
Atom  23C    basis set group =>   1
Atom  24H    basis set group =>   2
Atom  25C    basis set group =>   1
Atom  26H    basis set group =>   2
Atom  27H    basis set group =>   2
Atom  28H    basis set group =>   2
Atom  29O    basis set group =>   3
Atom  30O    basis set group =>   3
Atom  31C    basis set group =>   1
Atom  32C    basis set group =>   1
Atom  33C    basis set group =>   1
Atom  34C    basis set group =>   1
Atom  35H    basis set group =>   2
Atom  36H    basis set group =>   2
Atom  37H    basis set group =>   2
Atom  38C    basis set group =>   1
Atom  39C    basis set group =>   1
Atom  40C    basis set group =>   1
Atom  41C    basis set group =>   1
Atom  42C    basis set group =>   1
Atom  43C    basis set group =>   1
Atom  44H    basis set group =>   2
Atom  45C    basis set group =>   1
Atom  46H    basis set group =>   2
Atom  47C    basis set group =>   1
Atom  48H    basis set group =>   2
Atom  49H    basis set group =>   2
Atom  50H    basis set group =>   2
---------------------------------
AUXILIARY/J BASIS SET INFORMATION
---------------------------------
There are 3 groups of distinct atoms

 Group   1 Type C   : 12s5p4d2f1g contracted to 6s4p3d1f1g pattern {711111/2111/211/2/1}
 Group   2 Type H   : 5s2p1d contracted to 3s1p1d pattern {311/2/1}
 Group   3 Type O   : 12s5p4d2f1g contracted to 6s4p3d1f1g pattern {711111/2111/211/2/1}

Atom   0C    basis set group =>   1
Atom   1C    basis set group =>   1
Atom   2C    basis set group =>   1
Atom   3C    basis set group =>   1
Atom   4C    basis set group =>   1
Atom   5C    basis set group =>   1
Atom   6C    basis set group =>   1
Atom   7C    basis set group =>   1
Atom   8C    basis set group =>   1
Atom   9C    basis set group =>   1
Atom  10C    basis set group =>   1
Atom  11C    basis set group =>   1
Atom  12C    basis set group =>   1
Atom  13H    basis set group =>   2
Atom  14H    basis set group =>   2
Atom  15H    basis set group =>   2
Atom  16H    basis set group =>   2
Atom  17H    basis set group =>   2
Atom  18C    basis set group =>   1
Atom  19C    basis set group =>   1
Atom  20C    basis set group =>   1
Atom  21C    basis set group =>   1
Atom  22H    basis set group =>   2
Atom  23C    basis set group =>   1
Atom  24H    basis set group =>   2
Atom  25C    basis set group =>   1
Atom  26H    basis set group =>   2
Atom  27H    basis set group =>   2
Atom  28H    basis set group =>   2
Atom  29O    basis set group =>   3
Atom  30O    basis set group =>   3
Atom  31C    basis set group =>   1
Atom  32C    basis set group =>   1
Atom  33C    basis set group =>   1
Atom  34C    basis set group =>   1
Atom  35H    basis set group =>   2
Atom  36H    basis set group =>   2
Atom  37H    basis set group =>   2
Atom  38C    basis set group =>   1
Atom  39C    basis set group =>   1
Atom  40C    basis set group =>   1
Atom  41C    basis set group =>   1
Atom  42C    basis set group =>   1
Atom  43C    basis set group =>   1
Atom  44H    basis set group =>   2
Atom  45C    basis set group =>   1
Atom  46H    basis set group =>   2
Atom  47C    basis set group =>   1
Atom  48H    basis set group =>   2
Atom  49H    basis set group =>   2
Atom  50H    basis set group =>   2
---------------------------------
AUXILIARY/C BASIS SET INFORMATION
---------------------------------
There are 3 groups of distinct atoms

 Group   1 Type C   : 8s6p5d3f1g contracted to 8s6p4d3f1g pattern {11111111/111111/2111/111/1}
 Group   2 Type H   : 4s3p2d contracted to 4s2p1d pattern {1111/21/2}
 Group   3 Type O   : 8s6p5d3f1g contracted to 8s6p4d3f1g pattern {11111111/111111/2111/111/1}

Atom   0C    basis set group =>   1
Atom   1C    basis set group =>   1
Atom   2C    basis set group =>   1
Atom   3C    basis set group =>   1
Atom   4C    basis set group =>   1
Atom   5C    basis set group =>   1
Atom   6C    basis set group =>   1
Atom   7C    basis set group =>   1
Atom   8C    basis set group =>   1
Atom   9C    basis set group =>   1
Atom  10C    basis set group =>   1
Atom  11C    basis set group =>   1
Atom  12C    basis set group =>   1
Atom  13H    basis set group =>   2
Atom  14H    basis set group =>   2
Atom  15H    basis set group =>   2
Atom  16H    basis set group =>   2
Atom  17H    basis set group =>   2
Atom  18C    basis set group =>   1
Atom  19C    basis set group =>   1
Atom  20C    basis set group =>   1
Atom  21C    basis set group =>   1
Atom  22H    basis set group =>   2
Atom  23C    basis set group =>   1
Atom  24H    basis set group =>   2
Atom  25C    basis set group =>   1
Atom  26H    basis set group =>   2
Atom  27H    basis set group =>   2
Atom  28H    basis set group =>   2
Atom  29O    basis set group =>   3
Atom  30O    basis set group =>   3
Atom  31C    basis set group =>   1
Atom  32C    basis set group =>   1
Atom  33C    basis set group =>   1
Atom  34C    basis set group =>   1
Atom  35H    basis set group =>   2
Atom  36H    basis set group =>   2
Atom  37H    basis set group =>   2
Atom  38C    basis set group =>   1
Atom  39C    basis set group =>   1
Atom  40C    basis set group =>   1
Atom  41C    basis set group =>   1
Atom  42C    basis set group =>   1
Atom  43C    basis set group =>   1
Atom  44H    basis set group =>   2
Atom  45C    basis set group =>   1
Atom  46H    basis set group =>   2
Atom  47C    basis set group =>   1
Atom  48H    basis set group =>   2
Atom  49H    basis set group =>   2
Atom  50H    basis set group =>   2


           ************************************************************
           *        Program running with 6 parallel MPI-processes     *
           *              working on a common directory               *
           ************************************************************
------------------------------------------------------------------------------
                           ORCA GTO INTEGRAL CALCULATION
                           -- RI-GTO INTEGRALS CHOSEN --
------------------------------------------------------------------------------
------------------------------------------------------------------------------
                   ___                                                        
                  /   \      - P O W E R E D   B Y -                         
                 /     \                                                     
                 |  |  |   _    _      __       _____    __    __             
                 |  |  |  | |  | |    /  \     |  _  \  |  |  /  |          
                  \  \/   | |  | |   /    \    | | | |  |  | /  /          
                 / \  \   | |__| |  /  /\  \   | |_| |  |  |/  /          
                |  |  |   |  __  | /  /__\  \  |    /   |      \           
                |  |  |   | |  | | |   __   |  |    \   |  |\   \          
                \     /   | |  | | |  |  |  |  | |\  \  |  | \   \       
                 \___/    |_|  |_| |__|  |__|  |_| \__\ |__|  \__/        
                                                                              
                      - O R C A' S   B I G   F R I E N D -                    
                                      &                                       
                       - I N T E G R A L  F E E D E R -                       
                                                                              
 v1 FN, 2020, v2 2021                                                         
------------------------------------------------------------------------------


Reading SHARK input file NCE_3_M06L_def2TZVP_coords.SHARKINP.tmp ... ok
----------------------
SHARK INTEGRAL PACKAGE
----------------------

Number of atoms                             ...     51
Number of basis functions                   ...   1131
Number of shells                            ...    435
Maximum angular momentum                    ...      3
Integral batch strategy                     ... SHARK/LIBINT Hybrid
RI-J (if used) integral strategy            ... SPLIT-RIJ (Revised 2003 algorithm where possible)
Printlevel                                  ...      1
Contraction scheme used                     ... SEGMENTED contraction
Coulomb Range Separation                    ... NOT USED
Exchange Range Separation                   ... NOT USED
Finite Nucleus Model                        ... NOT USED
Auxiliary Coulomb fitting basis             ... AVAILABLE
   # of basis functions in Aux-J            ...   1815
   # of shells in Aux-J                     ...    585
   Maximum angular momentum in Aux-J        ...      4
Auxiliary J/K fitting basis                 ... NOT available
Auxiliary Correlation fitting basis         ... AVAILABLE
   # of basis functions in Aux-C            ...   2778
   # of shells in Aux-C                     ...    852
   Maximum angular momentum in Aux-C        ...      4
Auxiliary 'external' fitting basis          ... NOT available
Integral threshold                          ...     2.500000e-11
Primitive cut-off                           ...     2.500000e-12
Primitive pair pre-selection threshold      ...     2.500000e-12

Calculating pre-screening integrals         ... done (  0.1 sec) Dimension = 435
Organizing shell pair data                  ... done (  1.1 sec)
Shell pair information
Total number of shell pairs                 ...     94830
Shell pairs after pre-screening             ...     49966
Total number of primitive shell pairs       ...    296076
Primitive shell pairs kept                  ...    101654
          la=0 lb=0:  11905 shell pairs
          la=1 lb=0:  14317 shell pairs
          la=1 lb=1:   4289 shell pairs
          la=2 lb=0:   7213 shell pairs
          la=2 lb=1:   4387 shell pairs
          la=2 lb=2:   1129 shell pairs
          la=3 lb=0:   3370 shell pairs
          la=3 lb=1:   2076 shell pairs
          la=3 lb=2:   1019 shell pairs
          la=3 lb=3:    261 shell pairs

Calculating one electron integrals          ... done (  0.1 sec)
Calculating RI/J V-Matrix + Cholesky decomp.... done (  0.2 sec)
Calculating RI/C V-Matrix + Cholesky decomp.... done (  0.5 sec)
Calculating Nuclear repulsion               ... done (  0.0 sec) ENN=   2790.830113273611 Eh

SHARK setup successfully completed in   2.7 seconds

Maximum memory used throughout the entire GTOINT-calculation: 98.8 MB


           ************************************************************
           *        Program running with 6 parallel MPI-processes     *
           *              working on a common directory               *
           ************************************************************
-------------------------------------------------------------------------------
                                 ORCA SCF
-------------------------------------------------------------------------------

------------
SCF SETTINGS
------------
Hamiltonian:
 Density Functional     Method          .... DFT(GTOs)
 Exchange Functional    Exchange        .... PBE
   PBE kappa parameter   XKappa         ....  0.804000
   PBE mue parameter    XMuePBE         ....  0.219520
 Correlation Functional Correlation     .... PBE
   PBE beta parameter  CBetaPBE         ....  0.066725
 LDA part of GGA corr.  LDAOpt          .... PW91-LDA
 Gradients option       PostSCFGGA      .... off
 Hybrid DFT is turned on
   Fraction HF Exchange ScalHFX         ....  0.690000
   Scaling of DF-GGA-X  ScalDFX         ....  0.310000
   Scaling of DF-GGA-C  ScalDFC         ....  0.670000
   Scaling of DF-LDA-C  ScalLDAC        ....  0.670000
   Perturbative correction              ....  0.330000
   Density functional embedding theory  .... OFF
 RI-approximation to the Coulomb term is turned on
   Number of AuxJ basis functions       .... 1815
   RIJ-COSX (HFX calculated with COS-X)).... on


General Settings:
 Integral files         IntName         .... NCE_3_M06L_def2TZVP_coords
 Hartree-Fock type      HFTyp           .... RHF
 Total Charge           Charge          ....    0
 Multiplicity           Mult            ....    1
 Number of Electrons    NEL             ....  220
 Basis Dimension        Dim             .... 1131
 Nuclear Repulsion      ENuc            ....   2790.8301132736 Eh

Convergence Acceleration:
 DIIS                   CNVDIIS         .... on
   Start iteration      DIISMaxIt       ....    12
   Startup error        DIISStart       ....  0.200000
   # of expansion vecs  DIISMaxEq       ....     5
   Bias factor          DIISBfac        ....   1.050
   Max. coefficient     DIISMaxC        ....  10.000
 Trust-Rad. Augm. Hess. CNVTRAH         .... auto
   Auto Start mean grad. ratio tolernc. ....  1.125000
   Auto Start start iteration           ....    20
   Auto Start num. interpolation iter.  ....    10
   Max. Number of Micro iterations      ....    16
   Max. Number of Macro iterations      .... Maxiter - #DIIS iter
   Number of Davidson start vectors     ....     2
   Converg. threshold I  (grad. norm)   ....   1.000e-05
   Converg. threshold II (energy diff.) ....   1.000e-08
   Grad. Scal. Fac. for Micro threshold ....   0.100
   Minimum threshold for Micro iter.    ....   0.010
   NR start threshold (gradient norm)   ....   0.001
   Initial trust radius                 ....   0.400
   Minimum AH scaling param. (alpha)    ....   1.000
   Maximum AH scaling param. (alpha)    .... 1000.000
   Orbital update algorithm             .... Taylor
   White noise on init. David. guess    .... on
   Maximum white noise                  ....   0.010
   Quad. conv. algorithm                .... NR
 SOSCF                  CNVSOSCF        .... on
   Start iteration      SOSCFMaxIt      ....   150
   Startup grad/error   SOSCFStart      ....  0.003300
 Level Shifting         CNVShift        .... on
   Level shift para.    LevelShift      ....    0.2500
   Turn off err/grad.   ShiftErr        ....    0.0010
 Zerner damping         CNVZerner       .... off
 Static damping         CNVDamp         .... on
   Fraction old density DampFac         ....    0.7000
   Max. Damping (<1)    DampMax         ....    0.9800
   Min. Damping (>=0)   DampMin         ....    0.0000
   Turn off err/grad.   DampErr         ....    0.1000
 Fernandez-Rico         CNVRico         .... off

SCF Procedure:
 Maximum # iterations   MaxIter         ....   125
 SCF integral mode      SCFMode         .... Direct
   Integral package                     .... SHARK and LIBINT hybrid scheme
 Reset frequency        DirectResetFreq ....    20
 Integral Threshold     Thresh          ....  2.500e-11 Eh
 Primitive CutOff       TCut            ....  2.500e-12 Eh

Convergence Tolerance:
 Convergence Check Mode ConvCheckMode   .... Total+1el-Energy
 Convergence forced     ConvForced      .... 1
 Energy Change          TolE            ....  1.000e-08 Eh
 1-El. energy change                    ....  1.000e-05 Eh
 Orbital Gradient       TolG            ....  1.000e-05
 Orbital Rotation angle TolX            ....  1.000e-05
 DIIS Error             TolErr          ....  5.000e-07


Diagonalization of the overlap matrix:
Smallest eigenvalue                        ... 2.563e-06
Time for diagonalization                   ...    0.260 sec
Threshold for overlap eigenvalues          ... 1.000e-08
Number of eigenvalues below threshold      ... 0
Time for construction of square roots      ...    0.206 sec
Total time needed                          ...    0.471 sec

Time for model grid setup =    0.583 sec

------------------------------
INITIAL GUESS: MODEL POTENTIAL
------------------------------
Loading Hartree-Fock densities                     ... done
Calculating cut-offs                               ... done
Initializing the effective Hamiltonian             ... done
Setting up the integral package (SHARK)            ... done
Starting the Coulomb interaction                   ... done (   1.0 sec)
Reading the grid                                   ... done
Mapping shells                                     ... done
Starting the XC term evaluation                    ... done (   0.6 sec)
  promolecular density results
     # of electrons  =    219.972374879
     EX              =   -180.261727040
     EC              =     -2.726811948
     EX+EC           =   -182.988538988
Transforming the Hamiltonian                       ... done (   0.2 sec)
Diagonalizing the Hamiltonian                      ... done (   0.2 sec)
Back transforming the eigenvectors                 ... done (   0.1 sec)
Now organizing SCF variables                       ... done
                      ------------------
                      INITIAL GUESS DONE (   2.8 sec)
                      ------------------
-------------------
DFT GRID GENERATION
-------------------

General Integration Accuracy     IntAcc      ... 4.388
Radial Grid Type                 RadialGrid  ... OptM3 with GC (2021)
Angular Grid (max. ang.)         AngularGrid ... 4 (Lebedev-302)
Angular grid pruning method      GridPruning ... 4 (adaptive)
Weight generation scheme         WeightScheme... Becke
Basis function cutoff            BFCut       ... 1.0000e-11
Integration weight cutoff        WCut        ... 1.0000e-14
Angular grids for H and He will be reduced by one unit
Partially contracted basis set               ... off
Rotationally invariant grid construction     ... off

Total number of grid points                  ...   254089
Total number of batches                      ...     4001
Average number of points per batch           ...       63
Average number of grid points per atom       ...     4982
Time for grid setup =    2.171 sec

--------------------
COSX GRID GENERATION
--------------------

GRIDX 1
-------
General Integration Accuracy     IntAcc      ... 3.816
Radial Grid Type                 RadialGrid  ... OptM3 with GC (2021)
Angular Grid (max. ang.)         AngularGrid ... 1 (Lebedev-50)
Angular grid pruning method      GridPruning ... 4 (adaptive)
Weight generation scheme         WeightScheme... Becke
Basis function cutoff            BFCut       ... 1.0000e-11
Integration weight cutoff        WCut        ... 1.0000e-14
Angular grids for H and He will be reduced by one unit
Partially contracted basis set               ... on
Rotationally invariant grid construction     ... off

Total number of grid points                  ...    32310
Total number of batches                      ...      529
Average number of points per batch           ...       61
Average number of grid points per atom       ...      634
UseSFitting                                  ... on

GRIDX 2
-------
General Integration Accuracy     IntAcc      ... 4.020
Radial Grid Type                 RadialGrid  ... OptM3 with GC (2021)
Angular Grid (max. ang.)         AngularGrid ... 2 (Lebedev-110)
Angular grid pruning method      GridPruning ... 4 (adaptive)
Weight generation scheme         WeightScheme... Becke
Basis function cutoff            BFCut       ... 1.0000e-11
Integration weight cutoff        WCut        ... 1.0000e-14
Angular grids for H and He will be reduced by one unit
Partially contracted basis set               ... on
Rotationally invariant grid construction     ... off

Total number of grid points                  ...    71018
Total number of batches                      ...     1134
Average number of points per batch           ...       62
Average number of grid points per atom       ...     1393
UseSFitting                                  ... on

GRIDX 3
-------
General Integration Accuracy     IntAcc      ... 4.338
Radial Grid Type                 RadialGrid  ... OptM3 with GC (2021)
Angular Grid (max. ang.)         AngularGrid ... 3 (Lebedev-194)
Angular grid pruning method      GridPruning ... 4 (adaptive)
Weight generation scheme         WeightScheme... Becke
Basis function cutoff            BFCut       ... 1.0000e-11
Integration weight cutoff        WCut        ... 1.0000e-14
Angular grids for H and He will be reduced by one unit
Partially contracted basis set               ... on
Rotationally invariant grid construction     ... off

Total number of grid points                  ...   155788
Total number of batches                      ...     2459
Average number of points per batch           ...       63
Average number of grid points per atom       ...     3055
UseSFitting                                  ... on

Time for X-Grid setup             =    4.832 sec


--------------------
CPCM SOLVATION MODEL
--------------------
CPCM parameters:
  Epsilon                                         ...      35.6880
  Refrac                                          ...       1.3442
  Rsolv                                           ...       1.3000
  Surface type                                    ... GAUSSIAN VDW
  Epsilon function type                           ...         CPCM
Solvent:                                     ... ACETONITRILE
SMD-CDS solvent descriptors:
  Soln                                       ...    1.3442
  Soln25                                     ...    1.3416
  Sola                                       ...    0.0700
  Solb                                       ...    0.3200
  Solg                                       ...   41.2500
  Solc                                       ...    0.0000
  Solh                                       ...    0.0000
Radii:
 Radius for C  used is    3.4960 Bohr (=   1.8500 Ang.)
 Radius for H  used is    2.2677 Bohr (=   1.2000 Ang.)
 Radius for O  used is    4.0969 Bohr (=   2.1680 Ang.)
Calculating surface                               ...        done! (  0.0s)
GEPOL surface points                              ...         2833
GEPOL Volume                                      ...    2964.9891
GEPOL Surface-area                                ...    1568.6245
Calculating surface distance matrix               ...        done! (  0.1s)
Performing Cholesky decomposition & store         ...        done! (  0.4s)
Overall time for CPCM initialization              ...                 0.5s
--------------
SCF ITERATIONS
--------------
ITER       Energy         Delta-E        Max-DP      RMS-DP      [F,P]     Damp
               ***  Starting incremental Fock matrix formation  ***
  0  -1338.5781015150   0.000000000000 0.14278084  0.00070256  0.2760483 0.7000
  1  -1338.8513858227  -0.273284307700 0.07325035  0.00056513  0.1472751 0.7000
                               ***Turning on DIIS***
  2  -1339.0085989052  -0.157213082483 0.14746757  0.00124574  0.0686990 0.0000
  3  -1339.2988636554  -0.290264750204 0.06424049  0.00040213  0.0570824 0.0000
  4  -1339.3224773452  -0.023613689765 0.01203650  0.00011164  0.0163466 0.0000
  5  -1339.3236022142  -0.001124868986 0.01377895  0.00007336  0.0102183 0.0000
                      *** Initiating the SOSCF procedure ***
                           *** Shutting down DIIS ***
                      *** Re-Reading the Fockian *** 
                      *** Removing any level shift *** 
ITER      Energy       Delta-E        Grad      Rot      Max-DP    RMS-DP
  6  -1339.32387391  -0.0002716949  0.000857  0.000857  0.003851  0.000026
               *** Restarting incremental Fock matrix formation ***
  7  -1339.32387295   0.0000009614  0.000570  0.001947  0.020908  0.000205
  8  -1339.32389547  -0.0000225245  0.000195  0.001254  0.006188  0.000065
  9  -1339.32389949  -0.0000040218  0.000116  0.000217  0.005740  0.000056
 10  -1339.32390081  -0.0000013163  0.000032  0.000085  0.000733  0.000006
 11  -1339.32390089  -0.0000000803  0.000012  0.000034  0.000282  0.000003
 12  -1339.32390092  -0.0000000301  0.000006  0.000026  0.000431  0.000003
 13  -1339.32390090   0.0000000191  0.000003  0.000017  0.000164  0.000002
                  ***Gradient check signals convergence***
              ***Rediagonalizing the Fockian in SOSCF/NRSCF***

               *****************************************************
               *                     SUCCESS                       *
               *           SCF CONVERGED AFTER  14 CYCLES          *
               *****************************************************

Old exchange energy                            =   -126.942630282 Eh
New exchange energy                            =   -126.942547628 Eh
Exchange energy change after final integration =      0.000082653 Eh
Total energy after final integration           =  -1339.323818281 Eh
Final COS-X integration done in                =    69.188 sec

SMD CDS free energy correction energy :                -7.81584     Kcal/mol
Total Energy after SMD CDS correction =             -1339.336273621 Eh

----------------
TOTAL SCF ENERGY
----------------

Total Energy       :        -1339.33627362 Eh          -36445.19284 eV

Components:
Nuclear Repulsion  :         2790.83011327 Eh           75942.34822 eV
Electronic Energy  :        -4130.16638689 Eh         -112387.54106 eV
One Electron Energy:        -7365.06303715 Eh         -200413.55407 eV
Two Electron Energy:         3234.89665026 Eh           88026.01301 eV
Max COSX asymmetry :            0.00000481 Eh               0.00013 eV
CPCM Dielectric    :           -0.03498107 Eh              -0.95188 eV
SMD CDS (Gcds)     :           -0.01245534 Eh              -0.33893 eV

Virial components:
Potential Energy   :        -2673.31113903 Eh          -72744.49435 eV
Kinetic Energy     :         1333.97486541 Eh           36299.30151 eV
Virial Ratio       :            2.00401912


DFT components:
N(Alpha)           :      109.999910872487 electrons
N(Beta)            :      109.999910872487 electrons
N(Total)           :      219.999821744973 electrons
E(X)               :      -56.808029507926 Eh       
E(C)               :       -4.964844393259 Eh       
E(XC)              :      -61.772873901185 Eh       
DFET-embed. en.    :        0.000000000000 Eh       
CPCM Solvation Model Properties:
Surface-charge          :           -0.07062906
Charge-correction       :            0.00014596 Eh               0.00397 eV
Free-energy (cav+disp)  :           -0.01245534 Eh              -0.33893 eV

---------------
SCF CONVERGENCE
---------------

  Last Energy change         ...   -3.3012e-08  Tolerance :   1.0000e-08
  Last MAX-Density change    ...    2.2204e-15  Tolerance :   1.0000e-07
  Last RMS-Density change    ...    1.2817e-17  Tolerance :   5.0000e-09
  Last Orbital Gradient      ...    8.4688e-07  Tolerance :   1.0000e-05
  Last Orbital Rotation      ...    3.9064e-06  Tolerance :   1.0000e-05

             **** THE GBW FILE WAS UPDATED (NCE_3_M06L_def2TZVP_coords.gbw) ****
             **** DENSITY NCE_3_M06L_def2TZVP_coords.scfp WAS UPDATED ****
             **** ENERGY FILE WAS UPDATED (NCE_3_M06L_def2TZVP_coords.en.tmp) ****
             **** THE GBW FILE WAS UPDATED (NCE_3_M06L_def2TZVP_coords.gbw) ****
             **** DENSITY NCE_3_M06L_def2TZVP_coords.scfp WAS UPDATED ****
----------------
ORBITAL ENERGIES
----------------

  NO   OCC          E(Eh)            E(eV) 
   0   2.0000     -20.073950      -546.2399 
   1   2.0000     -19.994377      -544.0747 
   2   2.0000     -10.977129      -298.7029 
   3   2.0000     -10.905577      -296.7558 
   4   2.0000     -10.865344      -295.6610 
   5   2.0000     -10.863651      -295.6150 
   6   2.0000     -10.858426      -295.4728 
   7   2.0000     -10.856030      -295.4076 
   8   2.0000     -10.853954      -295.3511 
   9   2.0000     -10.849905      -295.2409 
  10   2.0000     -10.847171      -295.1665 
  11   2.0000     -10.845393      -295.1181 
  12   2.0000     -10.836284      -294.8703 
  13   2.0000     -10.836179      -294.8674 
  14   2.0000     -10.836013      -294.8629 
  15   2.0000     -10.835804      -294.8572 
  16   2.0000     -10.832048      -294.7550 
  17   2.0000     -10.831838      -294.7493 
  18   2.0000     -10.831773      -294.7475 
  19   2.0000     -10.831088      -294.7289 
  20   2.0000     -10.831032      -294.7274 
  21   2.0000     -10.829883      -294.6961 
  22   2.0000     -10.828997      -294.6720 
  23   2.0000     -10.826926      -294.6156 
  24   2.0000     -10.826880      -294.6144 
  25   2.0000     -10.825984      -294.5900 
  26   2.0000     -10.824665      -294.5541 
  27   2.0000     -10.824431      -294.5477 
  28   2.0000     -10.819997      -294.4271 
  29   2.0000     -10.819866      -294.4235 
  30   2.0000     -10.818989      -294.3997 
  31   2.0000     -10.818823      -294.3951 
  32   2.0000     -10.817749      -294.3659 
  33   2.0000      -1.359594       -36.9964 
  34   2.0000      -1.261956       -34.3396 
  35   2.0000      -1.102688       -30.0057 
  36   2.0000      -1.079459       -29.3736 
  37   2.0000      -1.067863       -29.0580 
  38   2.0000      -1.058001       -28.7897 
  39   2.0000      -1.040373       -28.3100 
  40   2.0000      -1.000541       -27.2261 
  41   2.0000      -0.982712       -26.7409 
  42   2.0000      -0.965044       -26.2602 
  43   2.0000      -0.950888       -25.8750 
  44   2.0000      -0.940839       -25.6015 
  45   2.0000      -0.932513       -25.3750 
  46   2.0000      -0.928820       -25.2745 
  47   2.0000      -0.924121       -25.1466 
  48   2.0000      -0.909851       -24.7583 
  49   2.0000      -0.888197       -24.1691 
  50   2.0000      -0.839665       -22.8484 
  51   2.0000      -0.815078       -22.1794 
  52   2.0000      -0.799066       -21.7437 
  53   2.0000      -0.779203       -21.2032 
  54   2.0000      -0.769158       -20.9299 
  55   2.0000      -0.762106       -20.7380 
  56   2.0000      -0.759146       -20.6574 
  57   2.0000      -0.752827       -20.4855 
  58   2.0000      -0.728379       -19.8202 
  59   2.0000      -0.717781       -19.5318 
  60   2.0000      -0.701149       -19.0792 
  61   2.0000      -0.671670       -18.2771 
  62   2.0000      -0.660274       -17.9670 
  63   2.0000      -0.656953       -17.8766 
  64   2.0000      -0.634731       -17.2719 
  65   2.0000      -0.622413       -16.9367 
  66   2.0000      -0.615333       -16.7441 
  67   2.0000      -0.610511       -16.6129 
  68   2.0000      -0.603419       -16.4199 
  69   2.0000      -0.594032       -16.1644 
  70   2.0000      -0.586106       -15.9488 
  71   2.0000      -0.582667       -15.8552 
  72   2.0000      -0.580441       -15.7946 
  73   2.0000      -0.574073       -15.6213 
  74   2.0000      -0.573905       -15.6167 
  75   2.0000      -0.555065       -15.1041 
  76   2.0000      -0.551549       -15.0084 
  77   2.0000      -0.549310       -14.9475 
  78   2.0000      -0.542899       -14.7730 
  79   2.0000      -0.536355       -14.5950 
  80   2.0000      -0.531955       -14.4752 
  81   2.0000      -0.528938       -14.3931 
  82   2.0000      -0.519079       -14.1248 
  83   2.0000      -0.511017       -13.9055 
  84   2.0000      -0.508181       -13.8283 
  85   2.0000      -0.507674       -13.8145 
  86   2.0000      -0.490980       -13.3602 
  87   2.0000      -0.487418       -13.2633 
  88   2.0000      -0.471176       -12.8214 
  89   2.0000      -0.464881       -12.6501 
  90   2.0000      -0.462804       -12.5935 
  91   2.0000      -0.462700       -12.5907 
  92   2.0000      -0.456516       -12.4224 
  93   2.0000      -0.451087       -12.2747 
  94   2.0000      -0.449116       -12.2211 
  95   2.0000      -0.445112       -12.1121 
  96   2.0000      -0.441875       -12.0240 
  97   2.0000      -0.427928       -11.6445 
  98   2.0000      -0.406741       -11.0680 
  99   2.0000      -0.406163       -11.0523 
 100   2.0000      -0.376074       -10.2335 
 101   2.0000      -0.366595        -9.9755 
 102   2.0000      -0.355578        -9.6758 
 103   2.0000      -0.328857        -8.9487 
 104   2.0000      -0.324726        -8.8362 
 105   2.0000      -0.320178        -8.7125 
 106   2.0000      -0.317247        -8.6327 
 107   2.0000      -0.311694        -8.4816 
 108   2.0000      -0.294763        -8.0209 
 109   2.0000      -0.262675        -7.1477 
 110   0.0000      -0.019874        -0.5408 
 111   0.0000      -0.009243        -0.2515 
 112   0.0000       0.030456         0.8287 
 113   0.0000       0.052531         1.4294 
 114   0.0000       0.056648         1.5415 
 115   0.0000       0.059883         1.6295 
 116   0.0000       0.062884         1.7112 
 117   0.0000       0.074485         2.0269 
 118   0.0000       0.090211         2.4548 
 119   0.0000       0.114451         3.1144 
 120   0.0000       0.115305         3.1376 
 121   0.0000       0.125088         3.4038 
 122   0.0000       0.125117         3.4046 
 123   0.0000       0.127505         3.4696 
 124   0.0000       0.131194         3.5700 
 125   0.0000       0.134599         3.6626 
 126   0.0000       0.137252         3.7348 
 127   0.0000       0.143250         3.8980 
 128   0.0000       0.151633         4.1261 
 129   0.0000       0.151873         4.1327 
 130   0.0000       0.156208         4.2506 
 131   0.0000       0.163518         4.4496 
 132   0.0000       0.167321         4.5530 
 133   0.0000       0.172192         4.6856 
 134   0.0000       0.175193         4.7672 
 135   0.0000       0.177590         4.8325 
 136   0.0000       0.177822         4.8388 
 137   0.0000       0.179357         4.8805 
 138   0.0000       0.184100         5.0096 
 139   0.0000       0.187500         5.1021 
 140   0.0000       0.193152         5.2559 
 141   0.0000       0.198526         5.4022 
 142   0.0000       0.205767         5.5992 
 143   0.0000       0.209684         5.7058 
 144   0.0000       0.212217         5.7747 
 145   0.0000       0.213746         5.8163 
 146   0.0000       0.228219         6.2102 
 147   0.0000       0.231613         6.3025 
 148   0.0000       0.237873         6.4728 
 149   0.0000       0.242097         6.5878 
 150   0.0000       0.245043         6.6680 
 151   0.0000       0.249945         6.8013 
 152   0.0000       0.250522         6.8170 
 153   0.0000       0.260940         7.1005 
 154   0.0000       0.262329         7.1383 
 155   0.0000       0.263500         7.1702 
 156   0.0000       0.264947         7.2096 
 157   0.0000       0.269421         7.3313 
 158   0.0000       0.270601         7.3634 
 159   0.0000       0.276975         7.5369 
 160   0.0000       0.278528         7.5791 
 161   0.0000       0.281874         7.6702 
 162   0.0000       0.284378         7.7383 
 163   0.0000       0.285448         7.7674 
 164   0.0000       0.290258         7.8983 
 165   0.0000       0.292153         7.9499 
 166   0.0000       0.293423         7.9844 
 167   0.0000       0.296113         8.0576 
 168   0.0000       0.302201         8.2233 
 169   0.0000       0.307443         8.3660 
 170   0.0000       0.311314         8.4713 
 171   0.0000       0.311658         8.4807 
 172   0.0000       0.314358         8.5541 
 173   0.0000       0.315892         8.5959 
 174   0.0000       0.319616         8.6972 
 175   0.0000       0.323039         8.7903 
 176   0.0000       0.323871         8.8130 
 177   0.0000       0.327391         8.9088 
 178   0.0000       0.332759         9.0548 
 179   0.0000       0.337059         9.1718 
 180   0.0000       0.340267         9.2591 
 181   0.0000       0.340997         9.2790 
 182   0.0000       0.347259         9.4494 
 183   0.0000       0.350674         9.5423 
 184   0.0000       0.356574         9.7029 
 185   0.0000       0.357696         9.7334 
 186   0.0000       0.360730         9.8160 
 187   0.0000       0.361282         9.8310 
 188   0.0000       0.365333         9.9412 
 189   0.0000       0.370313        10.0767 
 190   0.0000       0.372403        10.1336 
 191   0.0000       0.374142        10.1809 
 192   0.0000       0.375574        10.2199 
 193   0.0000       0.385086        10.4787 
 194   0.0000       0.388387        10.5685 
 195   0.0000       0.391172        10.6443 
 196   0.0000       0.396462        10.7883 
 197   0.0000       0.405100        11.0233 
 198   0.0000       0.405132        11.0242 
 199   0.0000       0.406113        11.0509 
 200   0.0000       0.413162        11.2427 
 201   0.0000       0.414662        11.2835 
 202   0.0000       0.420501        11.4424 
 203   0.0000       0.422728        11.5030 
 204   0.0000       0.425882        11.5888 
 205   0.0000       0.426838        11.6149 
 206   0.0000       0.429287        11.6815 
 207   0.0000       0.433103        11.7853 
 208   0.0000       0.433686        11.8012 
 209   0.0000       0.435471        11.8498 
 210   0.0000       0.436900        11.8887 
 211   0.0000       0.444764        12.1027 
 212   0.0000       0.448444        12.2028 
 213   0.0000       0.451328        12.2812 
 214   0.0000       0.453796        12.3484 
 215   0.0000       0.463360        12.6087 
 216   0.0000       0.466623        12.6975 
 217   0.0000       0.472277        12.8513 
 218   0.0000       0.473938        12.8965 
 219   0.0000       0.477890        13.0040 
 220   0.0000       0.480036        13.0624 
 221   0.0000       0.483732        13.1630 
 222   0.0000       0.484130        13.1738 
 223   0.0000       0.484703        13.1895 
 224   0.0000       0.487697        13.2709 
 225   0.0000       0.490707        13.3528 
 226   0.0000       0.490837        13.3563 
 227   0.0000       0.497581        13.5399 
 228   0.0000       0.499618        13.5953 
 229   0.0000       0.501807        13.6549 
 230   0.0000       0.502690        13.6789 
 231   0.0000       0.504436        13.7264 
 232   0.0000       0.507044        13.7974 
 233   0.0000       0.510059        13.8794 
 234   0.0000       0.510349        13.8873 
 235   0.0000       0.511269        13.9123 
 236   0.0000       0.520071        14.1519 
 237   0.0000       0.527681        14.3589 
 238   0.0000       0.527898        14.3648 
 239   0.0000       0.536177        14.5901 
 240   0.0000       0.537425        14.6241 
 241   0.0000       0.542124        14.7519 
 242   0.0000       0.543596        14.7920 
 243   0.0000       0.550107        14.9692 
 244   0.0000       0.552233        15.0270 
 245   0.0000       0.555252        15.1092 
 246   0.0000       0.560183        15.2434 
 247   0.0000       0.561065        15.2673 
 248   0.0000       0.565877        15.3983 
 249   0.0000       0.574107        15.6222 
 250   0.0000       0.576665        15.6919 
 251   0.0000       0.580870        15.8063 
 252   0.0000       0.586254        15.9528 
 253   0.0000       0.588019        16.0008 
 254   0.0000       0.589942        16.0531 
 255   0.0000       0.592583        16.1250 
 256   0.0000       0.595450        16.2030 
 257   0.0000       0.598551        16.2874 
 258   0.0000       0.599339        16.3089 
 259   0.0000       0.599625        16.3166 
 260   0.0000       0.603844        16.4314 
 261   0.0000       0.606302        16.4983 
 262   0.0000       0.606605        16.5066 
 263   0.0000       0.615343        16.7443 
 264   0.0000       0.617424        16.8010 
 265   0.0000       0.618883        16.8407 
 266   0.0000       0.622455        16.9378 
 267   0.0000       0.628626        17.1058 
 268   0.0000       0.630339        17.1524 
 269   0.0000       0.634737        17.2721 
 270   0.0000       0.640142        17.4192 
 271   0.0000       0.655558        17.8386 
 272   0.0000       0.658866        17.9287 
 273   0.0000       0.664526        18.0827 
 274   0.0000       0.665249        18.1023 
 275   0.0000       0.670585        18.2475 
 276   0.0000       0.672432        18.2978 
 277   0.0000       0.678288        18.4571 
 278   0.0000       0.690586        18.7918 
 279   0.0000       0.693997        18.8846 
 280   0.0000       0.703945        19.1553 
 281   0.0000       0.710866        19.3437 
 282   0.0000       0.721790        19.6409 
 283   0.0000       0.725427        19.7399 
 284   0.0000       0.729984        19.8639 
 285   0.0000       0.736528        20.0419 
 286   0.0000       0.737468        20.0675 
 287   0.0000       0.739012        20.1095 
 288   0.0000       0.740113        20.1395 
 289   0.0000       0.747578        20.3426 
 290   0.0000       0.751840        20.4586 
 291   0.0000       0.757983        20.6258 
 292   0.0000       0.758144        20.6301 
 293   0.0000       0.764135        20.7932 
 294   0.0000       0.766210        20.8496 
 295   0.0000       0.769432        20.9373 
 296   0.0000       0.771710        20.9993 
 297   0.0000       0.773890        21.0586 
 298   0.0000       0.782713        21.2987 
 299   0.0000       0.783132        21.3101 
 300   0.0000       0.786566        21.4036 
 301   0.0000       0.791481        21.5373 
 302   0.0000       0.793668        21.5968 
 303   0.0000       0.798568        21.7302 
 304   0.0000       0.800386        21.7796 
 305   0.0000       0.802402        21.8345 
 306   0.0000       0.807445        21.9717 
 307   0.0000       0.810827        22.0637 
 308   0.0000       0.818114        22.2620 
 309   0.0000       0.821970        22.3669 
 310   0.0000       0.825849        22.4725 
 311   0.0000       0.827644        22.5213 
 312   0.0000       0.832847        22.6629 
 313   0.0000       0.834276        22.7018 
 314   0.0000       0.836443        22.7608 
 315   0.0000       0.839374        22.8405 
 316   0.0000       0.840847        22.8806 
 317   0.0000       0.844227        22.9726 
 318   0.0000       0.845896        23.0180 
 319   0.0000       0.848968        23.1016 
 320   0.0000       0.850952        23.1556 
 321   0.0000       0.854613        23.2552 
 322   0.0000       0.861198        23.4344 
 323   0.0000       0.861351        23.4386 
 324   0.0000       0.866663        23.5831 
 325   0.0000       0.874129        23.7862 
 326   0.0000       0.879453        23.9311 
 327   0.0000       0.881807        23.9952 
 328   0.0000       0.882131        24.0040 
 329   0.0000       0.893175        24.3045 
 330   0.0000       0.894619        24.3438 
 331   0.0000       0.903725        24.5916 
 332   0.0000       0.904689        24.6178 
 333   0.0000       0.910032        24.7632 
 334   0.0000       0.914532        24.8857 
 335   0.0000       0.916583        24.9415 
 336   0.0000       0.917382        24.9632 
 337   0.0000       0.921930        25.0870 
 338   0.0000       0.925185        25.1756 
 339   0.0000       0.927187        25.2300 
 340   0.0000       0.947085        25.7715 
 341   0.0000       0.952629        25.9224 
 342   0.0000       0.954882        25.9837 
 343   0.0000       0.957820        26.0636 
 344   0.0000       0.958490        26.0818 
 345   0.0000       0.960769        26.1438 
 346   0.0000       0.966144        26.2901 
 347   0.0000       0.970510        26.4089 
 348   0.0000       0.970600        26.4114 
 349   0.0000       0.973718        26.4962 
 350   0.0000       0.982969        26.7480 
 351   0.0000       0.984864        26.7995 
 352   0.0000       0.984953        26.8019 
 353   0.0000       0.989076        26.9141 
 354   0.0000       0.991817        26.9887 
 355   0.0000       0.996923        27.1276 
 356   0.0000       1.002780        27.2870 
 357   0.0000       1.004735        27.3402 
 358   0.0000       1.013413        27.5764 
 359   0.0000       1.015765        27.6404 
 360   0.0000       1.019249        27.7352 
 361   0.0000       1.019374        27.7386 
 362   0.0000       1.026370        27.9290 
 363   0.0000       1.033939        28.1349 
 364   0.0000       1.036548        28.2059 
 365   0.0000       1.044099        28.4114 
 366   0.0000       1.055338        28.7172 
 367   0.0000       1.064069        28.9548 
 368   0.0000       1.069139        29.0928 
 369   0.0000       1.070328        29.1251 
 370   0.0000       1.088727        29.6258 
 371   0.0000       1.095825        29.8189 
 372   0.0000       1.103823        30.0366 
 373   0.0000       1.105306        30.0769 
 374   0.0000       1.109251        30.1842 
 375   0.0000       1.118793        30.4439 
 376   0.0000       1.124261        30.5927 
 377   0.0000       1.129790        30.7431 
 378   0.0000       1.135356        30.8946 
 379   0.0000       1.139917        31.0187 
 380   0.0000       1.145268        31.1643 
 381   0.0000       1.151315        31.3289 
 382   0.0000       1.163497        31.6604 
 383   0.0000       1.166835        31.7512 
 384   0.0000       1.168268        31.7902 
 385   0.0000       1.177908        32.0525 
 386   0.0000       1.184250        32.2251 
 387   0.0000       1.190555        32.3967 
 388   0.0000       1.196989        32.5717 
 389   0.0000       1.200798        32.6754 
 390   0.0000       1.204600        32.7788 
 391   0.0000       1.212050        32.9816 
 392   0.0000       1.218817        33.1657 
 393   0.0000       1.222041        33.2534 
 394   0.0000       1.227538        33.4030 
 395   0.0000       1.241322        33.7781 
 396   0.0000       1.253571        34.1114 
 397   0.0000       1.256249        34.1843 
 398   0.0000       1.256889        34.2017 
 399   0.0000       1.262907        34.3654 
 400   0.0000       1.265101        34.4251 
 401   0.0000       1.269501        34.5449 
 402   0.0000       1.281353        34.8674 
 403   0.0000       1.281474        34.8707 
 404   0.0000       1.283458        34.9247 
 405   0.0000       1.301148        35.4060 
 406   0.0000       1.306941        35.5637 
 407   0.0000       1.310443        35.6590 
 408   0.0000       1.322264        35.9806 
 409   0.0000       1.330327        36.2000 
 410   0.0000       1.331322        36.2271 
 411   0.0000       1.336595        36.3706 
 412   0.0000       1.342615        36.5344 
 413   0.0000       1.345981        36.6260 
 414   0.0000       1.349199        36.7136 
 415   0.0000       1.353246        36.8237 
 416   0.0000       1.359136        36.9840 
 417   0.0000       1.363800        37.1109 
 418   0.0000       1.370933        37.3050 
 419   0.0000       1.371401        37.3177 
 420   0.0000       1.376305        37.4512 
 421   0.0000       1.378018        37.4978 
 422   0.0000       1.386970        37.7414 
 423   0.0000       1.388744        37.7896 
 424   0.0000       1.390388        37.8344 
 425   0.0000       1.399818        38.0910 
 426   0.0000       1.402474        38.1633 
 427   0.0000       1.408983        38.3404 
 428   0.0000       1.415630        38.5212 
 429   0.0000       1.424602        38.7654 
 430   0.0000       1.426754        38.8239 
 431   0.0000       1.433259        39.0010 
 432   0.0000       1.444742        39.3134 
 433   0.0000       1.450484        39.4697 
 434   0.0000       1.451890        39.5079 
 435   0.0000       1.454599        39.5817 
 436   0.0000       1.461520        39.7700 
 437   0.0000       1.470543        40.0155 
 438   0.0000       1.471197        40.0333 
 439   0.0000       1.475821        40.1591 
 440   0.0000       1.494257        40.6608 
 441   0.0000       1.496338        40.7174 
 442   0.0000       1.496523        40.7225 
 443   0.0000       1.508687        41.0535 
 444   0.0000       1.514650        41.2157 
 445   0.0000       1.530510        41.6473 
 446   0.0000       1.537260        41.8310 
 447   0.0000       1.537782        41.8452 
 448   0.0000       1.542564        41.9753 
 449   0.0000       1.546924        42.0939 
 450   0.0000       1.561068        42.4788 
 451   0.0000       1.562678        42.5226 
 452   0.0000       1.564998        42.5857 
 453   0.0000       1.568954        42.6934 
 454   0.0000       1.576110        42.8881 
 455   0.0000       1.584808        43.1248 
 456   0.0000       1.588873        43.2354 
 457   0.0000       1.594480        43.3880 
 458   0.0000       1.598622        43.5007 
 459   0.0000       1.605766        43.6951 
 460   0.0000       1.610706        43.8295 
 461   0.0000       1.615432        43.9581 
 462   0.0000       1.618125        44.0314 
 463   0.0000       1.622131        44.1404 
 464   0.0000       1.624038        44.1923 
 465   0.0000       1.629466        44.3400 
 466   0.0000       1.638852        44.5954 
 467   0.0000       1.641068        44.6557 
 468   0.0000       1.651609        44.9426 
 469   0.0000       1.654323        45.0164 
 470   0.0000       1.656175        45.0668 
 471   0.0000       1.658288        45.1243 
 472   0.0000       1.660016        45.1713 
 473   0.0000       1.664283        45.2874 
 474   0.0000       1.668998        45.4157 
 475   0.0000       1.675622        45.5960 
 476   0.0000       1.681861        45.7658 
 477   0.0000       1.682092        45.7721 
 478   0.0000       1.686011        45.8787 
 479   0.0000       1.686046        45.8797 
 480   0.0000       1.692185        46.0467 
 481   0.0000       1.702954        46.3397 
 482   0.0000       1.704502        46.3819 
 483   0.0000       1.720475        46.8165 
 484   0.0000       1.721257        46.8378 
 485   0.0000       1.730990        47.1026 
 486   0.0000       1.741656        47.3929 
 487   0.0000       1.742580        47.4180 
 488   0.0000       1.745198        47.4893 
 489   0.0000       1.748045        47.5667 
 490   0.0000       1.752962        47.7005 
 491   0.0000       1.761765        47.9401 
 492   0.0000       1.768196        48.1151 
 493   0.0000       1.768348        48.1192 
 494   0.0000       1.775683        48.3188 
 495   0.0000       1.777623        48.3716 
 496   0.0000       1.787176        48.6315 
 497   0.0000       1.796116        48.8748 
 498   0.0000       1.802617        49.0517 
 499   0.0000       1.809353        49.2350 
 500   0.0000       1.810766        49.2735 
 501   0.0000       1.814304        49.3697 
 502   0.0000       1.826531        49.7024 
 503   0.0000       1.828133        49.7460 
 504   0.0000       1.842405        50.1344 
 505   0.0000       1.843034        50.1515 
 506   0.0000       1.850478        50.3541 
 507   0.0000       1.851332        50.3773 
 508   0.0000       1.855394        50.4878 
 509   0.0000       1.856072        50.5063 
 510   0.0000       1.862178        50.6724 
 511   0.0000       1.865381        50.7596 
 512   0.0000       1.871977        50.9391 
 513   0.0000       1.872940        50.9653 
 514   0.0000       1.873363        50.9768 
 515   0.0000       1.881363        51.1945 
 516   0.0000       1.888386        51.3856 
 517   0.0000       1.891063        51.4584 
 518   0.0000       1.897901        51.6445 
 519   0.0000       1.898814        51.6694 
 520   0.0000       1.901158        51.7331 
 521   0.0000       1.902540        51.7707 
 522   0.0000       1.913255        52.0623 
 523   0.0000       1.924452        52.3670 
 524   0.0000       1.928257        52.4705 
 525   0.0000       1.930866        52.5415 
 526   0.0000       1.941158        52.8216 
 527   0.0000       1.942655        52.8623 
 528   0.0000       1.955453        53.2106 
 529   0.0000       1.957976        53.2792 
 530   0.0000       1.967367        53.5348 
 531   0.0000       1.970881        53.6304 
 532   0.0000       1.980374        53.8887 
 533   0.0000       1.991341        54.1872 
 534   0.0000       1.998576        54.3840 
 535   0.0000       1.998933        54.3937 
 536   0.0000       2.014257        54.8107 
 537   0.0000       2.018459        54.9251 
 538   0.0000       2.021499        55.0078 
 539   0.0000       2.034532        55.3624 
 540   0.0000       2.036174        55.4071 
 541   0.0000       2.042125        55.5691 
 542   0.0000       2.050274        55.7908 
 543   0.0000       2.052106        55.8406 
[...]
   104a -> 113a  :     0.018699 
   104a -> 116a  :     0.024949 
   105a -> 110a  :     0.015059 
   105a -> 111a  :     0.276426 
   105a -> 112a  :     0.018730 
   105a -> 113a  :     0.022860 
   105a -> 116a  :     0.115100 
   105a -> 117a  :     0.012189 
   107a -> 115a  :     0.345343 

STATE 17:  E=   0.208867 au      5.684 eV    45841.1 cm**-1 <S**2> =   0.000000
    99a -> 110a  :     0.011935 
   100a -> 110a  :     0.029256 
   100a -> 111a  :     0.016338 
   102a -> 110a  :     0.032016 
   102a -> 111a  :     0.111363 
   103a -> 114a  :     0.091779 
   104a -> 110a  :     0.039278 
   104a -> 111a  :     0.087417 
   104a -> 112a  :     0.013915 
   104a -> 113a  :     0.015406 
   104a -> 116a  :     0.012680 
   105a -> 111a  :     0.106914 
   106a -> 110a  :     0.049436 
   106a -> 112a  :     0.058400 
   106a -> 113a  :     0.014532 
   108a -> 111a  :     0.011613 
   108a -> 112a  :     0.018967 
   108a -> 116a  :     0.011402 
   108a -> 117a  :     0.028459 
   109a -> 112a  :     0.011242 
   109a -> 113a  :     0.030357 
   109a -> 116a  :     0.011273 
   109a -> 118a  :     0.100632 

STATE 18:  E=   0.233476 au      6.353 eV    51242.2 cm**-1 <S**2> =   0.000000
    95a -> 121a  :     0.011161 
    99a -> 121a  :     0.052900 
    99a -> 123a  :     0.030949 
   101a -> 110a  :     0.014429 
   106a -> 121a  :     0.033919 
   106a -> 123a  :     0.019661 
   108a -> 121a  :     0.152608 
   108a -> 123a  :     0.088177 
   108a -> 124a  :     0.011577 
   109a -> 121a  :     0.274346 
   109a -> 123a  :     0.152505 
   109a -> 124a  :     0.019609 

STATE 19:  E=   0.197977 au      5.387 eV    43451.0 cm**-1 <S**2> =   0.000000
    99a -> 111a  :     0.010397 
   100a -> 110a  :     0.037906 
   100a -> 111a  :     0.070223 
   102a -> 111a  :     0.037238 
   104a -> 110a  :     0.010686 
   104a -> 111a  :     0.328944 
   105a -> 110a  :     0.012821 
   105a -> 111a  :     0.044167 
   106a -> 110a  :     0.011558 
   106a -> 111a  :     0.146207 
   108a -> 111a  :     0.014508 
   108a -> 117a  :     0.017189 
   108a -> 118a  :     0.013913 
   109a -> 113a  :     0.031002 
   109a -> 116a  :     0.027194 
   109a -> 118a  :     0.040190 

STATE 20:  E=   0.195354 au      5.316 eV    42875.3 cm**-1 <S**2> =   0.000000
    98a -> 110a  :     0.025345 
    98a -> 111a  :     0.120009 
    98a -> 117a  :     0.015428 
    98a -> 122a  :     0.022263 
   104a -> 115a  :     0.015182 
   105a -> 115a  :     0.044142 
   107a -> 110a  :     0.355250 
   107a -> 111a  :     0.266392 
   107a -> 112a  :     0.038758 
   107a -> 116a  :     0.017164 

STATE 21:  E=   0.203962 au      5.550 eV    44764.6 cm**-1 <S**2> =   0.000000
   100a -> 110a  :     0.053402 
   100a -> 111a  :     0.060962 
   102a -> 111a  :     0.024043 
   102a -> 112a  :     0.025763 
   104a -> 110a  :     0.018542 
   105a -> 110a  :     0.019891 
   105a -> 116a  :     0.014355 
   106a -> 111a  :     0.300353 
   108a -> 111a  :     0.118477 
   108a -> 117a  :     0.031329 
   108a -> 118a  :     0.038677 
   109a -> 111a  :     0.031501 
   109a -> 112a  :     0.065874 
   109a -> 116a  :     0.030384 
   109a -> 117a  :     0.019076 
   109a -> 118a  :     0.038783 

STATE 22:  E=   0.216379 au      5.888 eV    47489.7 cm**-1 <S**2> =   0.000000
   102a -> 114a  :     0.014232 
   103a -> 110a  :     0.262034 
   103a -> 111a  :     0.038757 
   103a -> 112a  :     0.085421 
   106a -> 114a  :     0.058066 
   108a -> 114a  :     0.167503 
   109a -> 114a  :     0.321345 

STATE 23:  E=   0.230482 au      6.272 eV    50585.0 cm**-1 <S**2> =   0.000000
    99a -> 110a  :     0.025573 
   100a -> 110a  :     0.011070 
   102a -> 110a  :     0.021664 
   102a -> 112a  :     0.031431 
   102a -> 113a  :     0.010632 
   103a -> 114a  :     0.323588 
   104a -> 113a  :     0.134272 
   104a -> 116a  :     0.045242 
   105a -> 113a  :     0.097151 
   105a -> 116a  :     0.014046 
   106a -> 113a  :     0.056150 
   106a -> 116a  :     0.026060 
   106a -> 118a  :     0.011533 
   108a -> 118a  :     0.013378 
   109a -> 117a  :     0.011961 

STATE 24:  E=   0.209473 au      5.700 eV    45973.9 cm**-1 <S**2> =   0.000000
   100a -> 110a  :     0.100719 
   100a -> 111a  :     0.061133 
   100a -> 112a  :     0.040685 
   102a -> 110a  :     0.042193 
   102a -> 111a  :     0.014959 
   102a -> 112a  :     0.026328 
   102a -> 118a  :     0.014333 
   104a -> 110a  :     0.097511 
   104a -> 113a  :     0.032052 
   104a -> 118a  :     0.015208 
   105a -> 110a  :     0.070784 
   105a -> 111a  :     0.043633 
   105a -> 113a  :     0.029634 
   106a -> 112a  :     0.023329 
   106a -> 116a  :     0.017104 
   106a -> 117a  :     0.029223 
   106a -> 118a  :     0.010817 
   107a -> 115a  :     0.045672 
   108a -> 111a  :     0.010976 
   108a -> 112a  :     0.048913 
   108a -> 113a  :     0.031761 
   108a -> 117a  :     0.019978 
   109a -> 117a  :     0.010752 
   109a -> 118a  :     0.017846 

STATE 25:  E=   0.211511 au      5.755 eV    46421.2 cm**-1 <S**2> =   0.000000
   100a -> 110a  :     0.098343 
   100a -> 111a  :     0.192011 
   100a -> 112a  :     0.022173 
   102a -> 110a  :     0.140047 
   103a -> 114a  :     0.046063 
   106a -> 110a  :     0.011422 
   107a -> 115a  :     0.010317 
   108a -> 112a  :     0.019335 
   108a -> 113a  :     0.022675 
   108a -> 118a  :     0.014849 
   109a -> 113a  :     0.012697 
   109a -> 116a  :     0.145719 
   109a -> 117a  :     0.096005 
   109a -> 118a  :     0.029770 

STATE 26:  E=   0.218255 au      5.939 eV    47901.4 cm**-1 <S**2> =   0.000000
   100a -> 115a  :     0.028671 
   108a -> 115a  :     0.222247 
   109a -> 115a  :     0.708566 

STATE 27:  E=   0.210058 au      5.716 eV    46102.5 cm**-1 <S**2> =   0.000000
   100a -> 111a  :     0.023342 
   104a -> 110a  :     0.096940 
   104a -> 111a  :     0.109523 
   104a -> 112a  :     0.015686 
   104a -> 113a  :     0.011674 
   105a -> 110a  :     0.339730 
   105a -> 111a  :     0.066147 
   105a -> 112a  :     0.043909 
   106a -> 110a  :     0.038243 
   106a -> 117a  :     0.013112 
   107a -> 115a  :     0.045684 
   108a -> 111a  :     0.024118 
   108a -> 112a  :     0.027420 
   108a -> 113a  :     0.012799 
   109a -> 118a  :     0.011820 

STATE 28:  E=   0.232556 au      6.328 eV    51040.2 cm**-1 <S**2> =   0.000000
    99a -> 110a  :     0.038262 
   100a -> 110a  :     0.020438 
   100a -> 111a  :     0.039004 
   100a -> 112a  :     0.043773 
   101a -> 121a  :     0.011459 
   102a -> 110a  :     0.019778 
   103a -> 114a  :     0.099751 
   104a -> 112a  :     0.031924 
   104a -> 116a  :     0.055815 
   105a -> 113a  :     0.074578 
   105a -> 116a  :     0.010076 
   105a -> 117a  :     0.016854 
   106a -> 111a  :     0.010064 
   106a -> 113a  :     0.035956 
   106a -> 117a  :     0.014291 
   107a -> 115a  :     0.028515 
   108a -> 111a  :     0.015673 
   108a -> 112a  :     0.100742 
   108a -> 113a  :     0.050824 
   108a -> 118a  :     0.038802 
   108a -> 122a  :     0.017023 
   109a -> 110a  :     0.010114 
   109a -> 118a  :     0.041677 

STATE 29:  E=   0.217817 au      5.927 eV    47805.2 cm**-1 <S**2> =   0.000000
    99a -> 110a  :     0.015243 
    99a -> 112a  :     0.017987 
   100a -> 110a  :     0.066537 
   100a -> 111a  :     0.014163 
   102a -> 110a  :     0.260436 
   102a -> 111a  :     0.059153 
   104a -> 112a  :     0.034972 
   106a -> 110a  :     0.046948 
   106a -> 113a  :     0.021824 
   106a -> 117a  :     0.011935 
   108a -> 111a  :     0.017565 
   108a -> 112a  :     0.084241 
   108a -> 113a  :     0.030674 
   109a -> 116a  :     0.018807 
   109a -> 117a  :     0.053006 
   109a -> 118a  :     0.100073 
   109a -> 122a  :     0.013122 

STATE 30:  E=   0.223700 au      6.087 eV    49096.5 cm**-1 <S**2> =   0.000000
   100a -> 111a  :     0.045956 
   102a -> 111a  :     0.032958 
   108a -> 113a  :     0.041711 
   108a -> 116a  :     0.028494 
   108a -> 117a  :     0.086988 
   108a -> 118a  :     0.020242 
   109a -> 113a  :     0.070903 
   109a -> 116a  :     0.312486 
   109a -> 117a  :     0.200911 
   109a -> 118a  :     0.046269 


-------------------------
TD-DFT-EXCITATION SPECTRA
-------------------------

Center of mass = ( -0.0028, -0.0175,  0.0000)
Calculating the Dipole integrals                  ... done
Transforming integrals                            ... done
Calculating the Linear Momentum integrals         ... done
Transforming integrals                            ... done
Calculating angular momentum integrals            ... done
Transforming integrals                            ... done

-----------------------------------------------------------------------------
         ABSORPTION SPECTRUM VIA TRANSITION ELECTRIC DIPOLE MOMENTS
-----------------------------------------------------------------------------
State   Energy    Wavelength  fosc         T2        TX        TY        TZ  
        (cm-1)      (nm)                 (au**2)    (au)      (au)      (au) 
-----------------------------------------------------------------------------
   1   29696.7    336.7   1.352091525  14.98902  -3.72368   1.05982  -0.00001
   2   28202.5    354.6   0.355983824   4.15545  -1.99017  -0.44120   0.00000
   3   33752.1    296.3   0.530216818   5.17164   2.27407  -0.01575  -0.00003
   4   34148.0    292.8   0.030408842   0.29316  -0.17033   0.51396  -0.00002
   5   35121.2    284.7   0.000022340   0.00021   0.00007  -0.00001  -0.01447
   6   38193.5    261.8   0.409459109   3.52937   1.33321  -1.32360   0.00004
   7   42889.7    233.2   0.000000007   0.00000   0.00000  -0.00000   0.00023
   8   37381.0    267.5   0.004996362   0.04400  -0.03012  -0.20759   0.00000
   9   39336.9    254.2   0.201560384   1.68687   0.55849   1.17258   0.00001
  10   39563.4    252.8   0.001339096   0.01114   0.00005  -0.00003   0.10556
  11   42224.9    236.8   0.340927872   2.65809   1.57738  -0.41228   0.00002
  12   43423.1    230.3   0.266202109   2.01821   0.71092  -1.22996  -0.00002
  13   41068.2    243.5   0.062242099   0.49895   0.21159  -0.67393   0.00004
  14   43313.2    230.9   0.176134652   1.33875   0.53686  -1.02496   0.00004
  15   41678.8    239.9   0.001634861   0.01291   0.00017  -0.00009  -0.11364
  16   46070.9    217.1   0.020162312   0.14408  -0.31114  -0.21742  -0.00006
  17   45841.1    218.1   0.113107441   0.81229  -0.43220  -0.79088   0.00002
  18   51242.2    195.2   0.000002453   0.00002  -0.00112  -0.00211   0.00317
  19   43451.0    230.1   0.067940313   0.51476   0.54967  -0.46111  -0.00007
  20   42875.3    233.2   0.010983319   0.08433   0.00014   0.00021   0.29040
  21   44764.6    223.4   0.188305842   1.38486  -0.23770  -1.15254   0.00005
  22   47489.7    210.6   0.335872185   2.32836  -0.17074  -1.51631   0.00001
  23   50585.0    197.7   0.910125817   5.92318   2.43218   0.08756  -0.00002
  24   45973.9    217.5   0.177389746   1.27026  -0.68131  -0.89782   0.00004
  25   46421.2    215.4   0.042175828   0.29910  -0.23000  -0.49619   0.00004
  26   47901.4    208.8   0.002074534   0.01426  -0.00010  -0.00010  -0.11941
  27   46102.5    216.9   0.003988459   0.02848  -0.14141   0.09212  -0.00000
  28   51040.2    195.9   0.235278833   1.51756   0.55679   1.09888   0.00013
  29   47805.2    209.2   0.009412533   0.06482  -0.23703   0.09294   0.00003
  30   49096.5    203.7   0.003407454   0.02285   0.08608   0.12424   0.00146

-----------------------------------------------------------------------------
         ABSORPTION SPECTRUM VIA TRANSITION VELOCITY DIPOLE MOMENTS
-----------------------------------------------------------------------------
State   Energy    Wavelength   fosc        P2         PX        PY        PZ  
        (cm-1)      (nm)                 (au**2)     (au)      (au)      (au) 
-----------------------------------------------------------------------------
   1   29696.7    336.7   1.435838211   0.29142   0.51894  -0.14872   0.00000
   2   28202.5    354.6   0.478345984   0.09220   0.29620   0.06685  -0.00000
   3   33752.1    296.3   0.612198654   0.14122  -0.37579   0.00118   0.00000
   4   34148.0    292.8   0.041489936   0.00968   0.03283  -0.09277   0.00000
   5   35121.2    284.7   0.000001434   0.00000  -0.00001   0.00000   0.00059
   6   38193.5    261.8   0.486219048   0.12692  -0.25312   0.25070  -0.00001
   7   42889.7    233.2   0.000000238   0.00000  -0.00000   0.00000  -0.00026
   8   37381.0    267.5   0.006208498   0.00159   0.00566   0.03942  -0.00000
   9   39336.9    254.2   0.250145671   0.06725  -0.11132  -0.23422  -0.00000
  10   39563.4    252.8   0.001902600   0.00051  -0.00001   0.00001  -0.02268
  11   42224.9    236.8   0.421890514   0.12175  -0.33827   0.08560  -0.00000
  12   43423.1    230.3   0.319988827   0.09496  -0.15188   0.26813   0.00000
  13   41068.2    243.5   0.085355571   0.02396  -0.04498   0.14810  -0.00001
  14   43313.2    230.9   0.218612381   0.06471  -0.11709   0.22584  -0.00001
  15   41678.8    239.9   0.002676284   0.00076  -0.00004   0.00002   0.02761
  16   46070.9    217.1   0.022237210   0.00700   0.06884   0.04757   0.00001
  17   45841.1    218.1   0.134362967   0.04210   0.09939   0.17949  -0.00001
  18   51242.2    195.2   0.000002120   0.00000   0.00026   0.00048  -0.00067
  19   43451.0    230.1   0.091392820   0.02714  -0.12499   0.10732   0.00001
  20   42875.3    233.2   0.014913550   0.00437  -0.00003  -0.00005  -0.06611
  21   44764.6    223.4   0.246928088   0.07555   0.05601   0.26909  -0.00001
  22   47489.7    210.6   0.406038168   0.13179   0.04083   0.36072  -0.00000
  23   50585.0    197.7   0.975807567   0.33736  -0.58046  -0.02075   0.00000
  24   45973.9    217.5   0.233255455   0.07329   0.16442   0.21508  -0.00001
  25   46421.2    215.4   0.054429998   0.01727   0.05509   0.11931  -0.00001
  26   47901.4    208.8   0.002878082   0.00094   0.00002   0.00002   0.03070
  27   46102.5    216.9   0.005403083   0.00170   0.03460  -0.02248   0.00000
  28   51040.2    195.9   0.283619774   0.09894  -0.14196  -0.28068  -0.00004
  29   47805.2    209.2   0.013246636   0.00433   0.06057  -0.02567  -0.00001
  30   49096.5    203.7   0.004886061   0.00164  -0.02297  -0.03334  -0.00037

-------------------------------------------------------------------
                             CD SPECTRUM
-------------------------------------------------------------------
State  Energy     Wavelength     R         MX        MY        MZ   
       (cm-1)       (nm)     (1e40*cgs)   (au)      (au)      (au)  
-------------------------------------------------------------------
   1   29696.7    336.7     -0.00194  -0.00001  -0.00004   0.15989
   2   28202.5    354.6      0.00277  -0.00000  -0.00000   0.77553
   3   33752.1    296.3      0.00856   0.00000   0.00002  -0.45705
   4   34148.0    292.8      0.00240  -0.00000   0.00002   0.20145
   5   35121.2    284.7      0.00134   0.05994   0.08851   0.00002
   6   38193.5    261.8      0.02378  -0.00000  -0.00003   0.53205
   7   42889.7    233.2      0.00004   0.02404   0.00075  -0.00001
   8   37381.0    267.5      0.00014  -0.00000  -0.00000  -0.28275
   9   39336.9    254.2     -0.02631  -0.00000  -0.00004  -0.90871
  10   39563.4    252.8     -0.00414  -0.07589   0.19726   0.00001
  11   42224.9    236.8     -0.00166  -0.00000   0.00004   0.98582
  12   43423.1    230.3      0.03589   0.00000  -0.00006  -0.04827
  13   41068.2    243.5     -0.03270   0.00003   0.00010  -0.18170
  14   43313.2    230.9     -0.03812   0.00001   0.00008  -0.13911
  15   41678.8    239.9      0.00936  -0.11076  -0.36884  -0.00007
  16   46070.9    217.1      0.00066   0.00003  -0.00009   0.17547
  17   45841.1    218.1     -0.00805  -0.00002   0.00005   0.79277
  18   51242.2    195.2      0.01309   0.00709  -0.01398   0.00194
  19   43451.0    230.1      0.03971   0.00006  -0.00007  -0.28153
  20   42875.3    233.2     -0.00837  -0.27509   0.21365  -0.00009
  21   44764.6    223.4     -0.00898  -0.00004   0.00003   0.09588
  22   47489.7    210.6     -0.00338  -0.00002  -0.00001  -3.13024
  23   50585.0    197.7      0.02791   0.00002   0.00003  -0.77735
  24   45973.9    217.5     -0.00106  -0.00001   0.00005   0.79830
  25   46421.2    215.4      0.00972  -0.00006   0.00006   0.79974
  26   47901.4    208.8     -0.01502   0.19448  -0.08123   0.00018
  27   46102.5    216.9     -0.00085   0.00001   0.00000   0.03623
  28   51040.2    195.9      0.02689  -0.00006   0.00012  -0.28497
  29   47805.2    209.2      0.00198  -0.00002   0.00008  -0.26850
  30   49096.5    203.7     -0.04788  -0.00093   0.00192  -0.17769

Total run time:    35292.733 sec

           *** ORCA-CIS/TD-DFT FINISHED WITHOUT ERROR ***

Maximum memory used throughout the entire CIS-calculation: 5777.2 MB

-----------------------
CIS/TD-DFT TOTAL ENERGY
-----------------------

    E(SCF)  =  -1339.336273621 Eh
    DE(CIS) =      0.135308226 Eh (Root  1)
    ----------------------------- ---------
    E(tot)  =  -1339.200965395 Eh


-------------------------   --------------------
FINAL SINGLE POINT ENERGY     -1339.200965395207
-------------------------   --------------------


                            ***************************************
                            *     ORCA property calculations      *
                            ***************************************


  WARNING: The energy has been calculated at the MP2 level but the densities
           used in the property calculations are still SCF densities
           MP2 response densities have not been calculated 
           use %mp2 Density relaxed end
           or  %mp2 Density unrelaxed end

                                    ---------------------
                                    Active property flags
                                    ---------------------
   (+) Dipole Moment


------------------------------------------------------------------------------
                       ORCA ELECTRIC PROPERTIES CALCULATION
------------------------------------------------------------------------------

Dipole Moment Calculation                       ... on
Quadrupole Moment Calculation                   ... off
Polarizability Calculation                      ... off
GBWName                                         ... NCE_3_M06L_def2TZVP_coords.gbw
Electron density                                ... NCE_3_M06L_def2TZVP_coords.scfp
The origin for moment calculation is the CENTER OF MASS  = (-0.002840, -0.017493  0.000001)

-------------
DIPOLE MOMENT
-------------
                                X             Y             Z
Electronic contribution:     -0.59070      -1.23398       0.00011
Nuclear contribution   :      0.62476       3.84855      -0.00016
                        -----------------------------------------
Total Dipole Moment    :      0.03407       2.61457      -0.00005
                        -----------------------------------------
Magnitude (a.u.)       :      2.61479
Magnitude (Debye)      :      6.64628



--------------------
Rotational spectrum 
--------------------
 
Rotational constants in cm-1:     0.010488     0.001567     0.001383 
Rotational constants in MHz :   314.420507    46.965772    41.449328 

 Dipole components along the rotational axes: 
x,y,z [a.u.] :     0.033691     2.614577    -0.000026 
x,y,z [Debye]:     0.085636     6.645728    -0.000065 

 

Timings for individual modules:

Sum of individual times         ...    37024.437 sec (= 617.074 min)
GTO integral calculation        ...        3.060 sec (=   0.051 min)   0.0 %
SCF iterations                  ...      534.765 sec (=   8.913 min)   1.4 %
MP2 module                      ...     1192.153 sec (=  19.869 min)   3.2 %
CIS module                      ...    35294.459 sec (= 588.241 min)  95.3 %
                             ****ORCA TERMINATED NORMALLY****
TOTAL RUN TIME: 0 days 10 hours 17 minutes 9 seconds 539 msec
