 Entering Gaussian System, Link 0=g09
 Input=/home/png4rjv/fotokatalizis/benchmark/OPCs/NCE_3_M062X_def2TZVP.gjf
 Output=/home/png4rjv/fotokatalizis/benchmark/OPCs/NCE_3_M062X_def2TZVP.log
 Initial command:
 /opt/nce/packages/global/g09/l1.exe "/home/png4rjv/fotokatalizis/benchmark/OPCs/NCE_3_M062X_def2TZVP/Gau-39920.inp" -scrdir="/home/png4rjv/fotokatalizis/benchmark/OPCs/NCE_3_M062X_def2TZVP/"
 Default is to use a total of  12 processors:
                               12 via shared-memory
                                1 via Linda
 Entering Link 1 = /opt/nce/packages/global/g09/l1.exe PID=     39921.
  
 Copyright (c) 1988,1990,1992,1993,1995,1998,2003,2009,2015,
            Gaussian, Inc.  All Rights Reserved.
  
 This is part of the Gaussian(R) 09 program.  It is based on
 the Gaussian(R) 03 system (copyright 2003, Gaussian, Inc.),
 the Gaussian(R) 98 system (copyright 1998, Gaussian, Inc.),
 the Gaussian(R) 94 system (copyright 1995, Gaussian, Inc.),
 the Gaussian 92(TM) system (copyright 1992, Gaussian, Inc.),
 the Gaussian 90(TM) system (copyright 1990, Gaussian, Inc.),
 the Gaussian 88(TM) system (copyright 1988, Gaussian, Inc.),
 the Gaussian 86(TM) system (copyright 1986, Carnegie Mellon
 University), and the Gaussian 82(TM) system (copyright 1983,
 Carnegie Mellon University). Gaussian is a federally registered
 trademark of Gaussian, Inc.
  
 This software contains proprietary and confidential information,
 including trade secrets, belonging to Gaussian, Inc.
  
 This software is provided under written license and may be
 used, copied, transmitted, or stored only in accord with that
 written license.
  
 The following legend is applicable only to US Government
 contracts under FAR:
  
                    RESTRICTED RIGHTS LEGEND
  
 Use, reproduction and disclosure by the US Government is
 subject to restrictions as set forth in subparagraphs (a)
 and (c) of the Commercial Computer Software - Restricted
 Rights clause in FAR 52.227-19.
  
 Gaussian, Inc.
 340 Quinnipiac St., Bldg. 40, Wallingford CT 06492
  
  
 ---------------------------------------------------------------
 Warning -- This program may not be used in any manner that
 competes with the business of Gaussian, Inc. or will provide
 assistance to any competitor of Gaussian, Inc.  The licensee
 of this program is prohibited from giving any competitor of
 Gaussian, Inc. access to this program.  By using this program,
 the user acknowledges that Gaussian, Inc. is engaged in the
 business of creating and licensing software in the field of
 computational chemistry and represents and warrants to the
 licensee that it is not a competitor of Gaussian, Inc. and that
 it will not use this program in any manner prohibited above.
 ---------------------------------------------------------------
  

 Cite this work as:
 Gaussian 09, Revision E.01,
 M. J. Frisch, G. W. Trucks, H. B. Schlegel, G. E. Scuseria, 
 M. A. Robb, J. R. Cheeseman, G. Scalmani, V. Barone, B. Mennucci, 
 G. A. Petersson, H. Nakatsuji, M. Caricato, X. Li, H. P. Hratchian, 
 A. F. Izmaylov, J. Bloino, G. Zheng, J. L. Sonnenberg, M. Hada, 
 M. Ehara, K. Toyota, R. Fukuda, J. Hasegawa, M. Ishida, T. Nakajima, 
 Y. Honda, O. Kitao, H. Nakai, T. Vreven, J. A. Montgomery, Jr., 
 J. E. Peralta, F. Ogliaro, M. Bearpark, J. J. Heyd, E. Brothers, 
 K. N. Kudin, V. N. Staroverov, T. Keith, R. Kobayashi, J. Normand, 
 K. Raghavachari, A. Rendell, J. C. Burant, S. S. Iyengar, J. Tomasi, 
 M. Cossi, N. Rega, J. M. Millam, M. Klene, J. E. Knox, J. B. Cross, 
 V. Bakken, C. Adamo, J. Jaramillo, R. Gomperts, R. E. Stratmann, 
 O. Yazyev, A. J. Austin, R. Cammi, C. Pomelli, J. W. Ochterski, 
 R. L. Martin, K. Morokuma, V. G. Zakrzewski, G. A. Voth, 
 P. Salvador, J. J. Dannenberg, S. Dapprich, A. D. Daniels, 
 O. Farkas, J. B. Foresman, J. V. Ortiz, J. Cioslowski, 
 and D. J. Fox, Gaussian, Inc., Wallingford CT, 2013.
 
 ******************************************
 Gaussian 09:  ES64L-G09RevE.01 30-Nov-2015
                23-Feb-2021 
 ******************************************
 %chk=cp.chk
 Default route:  MaxDisk=500GB
 ----------------------------------------------------------------------
 #p m062x/def2TZVP opt freq=noraman nosymm int=ultrafine scrf=(SMD,solv
 ent=Acetonitrile)
 ----------------------------------------------------------------------
 1/14=-1,18=20,19=15,26=4,38=1/1,3;
 2/9=110,12=2,15=1,17=6,18=5,40=1/2;
 3/5=44,7=101,11=2,16=1,25=1,30=1,70=32201,71=1,72=2,74=-55,75=-5/1,2,3;
 4//1;
 5/5=2,38=5,53=2/2;
 6/7=2,8=2,9=2,10=2,28=1/1;
 7/30=1/1,2,3,16;
 1/14=-1,18=20,19=15,26=4/3(2);
 2/9=110,15=1/2;
 99//99;
 2/9=110,15=1/2;
 3/5=44,7=101,11=2,16=1,25=1,30=1,70=32205,71=1,72=2,74=-55,75=-5/1,2,3;
 4/5=5,16=3,69=1/1;
 5/5=2,38=5,53=2/2;
 7/30=1/1,2,3,16;
 1/14=-1,18=20,19=15,26=4/3(-5);
 2/9=110,15=1/2;
 6/7=2,8=2,9=2,10=2,19=2,28=1/1;
 99/9=1/99;
 Leave Link    1 at Tue Feb 23 01:44:07 2021, MaxMem=           0 cpu:         1.9
 (Enter /opt/nce/packages/global/g09/l101.exe)
 -----
 Title
 -----
 Symbolic Z-matrix:
 Charge =  0 Multiplicity = 1
 C                     5.22431   3.78773  -0.00001 
 C                     3.85226   3.6795   -0.00001 
 C                     3.22243   2.40223   0.00001 
 C                     4.03518   1.22012   0.00003 
 C                     5.4529    1.37089   0.00002 
 C                     6.03129   2.62119   0.00001 
 C                     1.81753   2.27406   0.00001 
 C                     3.40575  -0.06442   0.00004 
 C                     2.00957  -0.15217   0.00006 
 C                     1.19775   1.03538   0.00004 
 C                    -0.25946   0.89257   0.00003 
 C                    -0.80578  -0.40192   0.00005 
 C                     1.35998  -1.49127   0.00012 
 H                     1.22237   3.18746  -0.00002 
 H                     5.69664   4.77289  -0.00002 
 H                     3.22348   4.5733   -0.00002 
 H                     6.07735   0.47797   0.00003 
 H                     7.11937   2.71699   0.00001 
 C                     4.29589  -1.2642    0. 
 C                     4.74633  -1.81064  -1.20858 
 C                     4.74644  -1.81071   1.20852 
 C                     5.62192  -2.89767  -1.2084 
 H                     4.39981  -1.38363  -2.15242 
 C                     5.62202  -2.89773   1.2082 
 H                     4.39999  -1.38374   2.15241 
 C                     6.06081  -3.44571  -0.00014 
 H                     5.9615   -3.32009  -2.15722 
 H                     5.9617   -3.32022   2.15695 
 H                     6.74455  -4.29788  -0.00017 
 O                     1.91882  -2.55371   0.00018 
 O                    -0.01586  -1.51219   0.00011 
 C                    -1.16781   1.97142  -0.00006 
 C                    -2.18149  -0.62772   0.00004 
 C                    -3.07111   0.45835  -0.00003 
 C                    -2.5383    1.77025  -0.00009 
 H                    -3.21995   2.62165  -0.00018 
 H                    -0.78924   2.99376  -0.00013 
 H                    -2.54507  -1.65505   0.0001 
 C                    -4.47871   0.24503  -0.00007 
 C                    -5.68485   0.06699  -0.00004 
 C                    -7.09459  -0.14606  -0.00002 
 C                    -7.98648   0.94766   0.00002 
 C                    -7.62184  -1.4552   -0.00005 
 C                    -9.3634    0.73372   0.00004 
 H                    -7.58297   1.96185   0.00004 
 C                    -9.00025  -1.65923  -0.00003 
 H                    -6.93558  -2.30395  -0.00009 
 C                    -9.87539  -0.56801   0.00001 
 H                    -10.04354   1.58878   0.00007 
 H                    -9.39597  -2.67759  -0.00006 
 H                    -10.95549  -0.73193   0.00002 
 
 NAtoms=     51 NQM=       51 NQMF=       0 NMMI=      0 NMMIF=      0
                NMic=       0 NMicF=      0.
                    Isotopes and Nuclear Properties:
 (Nuclear quadrupole moments (NQMom) in fm**2, nuclear magnetic moments (NMagM)
  in nuclear magnetons)

  Atom         1           2           3           4           5           6           7           8           9          10
 IAtWgt=          12          12          12          12          12          12          12          12          12          12
 AtmWgt=  12.0000000  12.0000000  12.0000000  12.0000000  12.0000000  12.0000000  12.0000000  12.0000000  12.0000000  12.0000000
 NucSpn=           0           0           0           0           0           0           0           0           0           0
 AtZEff=   0.0000000   0.0000000   0.0000000   0.0000000   0.0000000   0.0000000   0.0000000   0.0000000   0.0000000   0.0000000
 NQMom=    0.0000000   0.0000000   0.0000000   0.0000000   0.0000000   0.0000000   0.0000000   0.0000000   0.0000000   0.0000000
 NMagM=    0.0000000   0.0000000   0.0000000   0.0000000   0.0000000   0.0000000   0.0000000   0.0000000   0.0000000   0.0000000
 AtZNuc=   6.0000000   6.0000000   6.0000000   6.0000000   6.0000000   6.0000000   6.0000000   6.0000000   6.0000000   6.0000000

  Atom        11          12          13          14          15          16          17          18          19          20
 IAtWgt=          12          12          12           1           1           1           1           1          12          12
 AtmWgt=  12.0000000  12.0000000  12.0000000   1.0078250   1.0078250   1.0078250   1.0078250   1.0078250  12.0000000  12.0000000
 NucSpn=           0           0           0           1           1           1           1           1           0           0
 AtZEff=   0.0000000   0.0000000   0.0000000   0.0000000   0.0000000   0.0000000   0.0000000   0.0000000   0.0000000   0.0000000
 NQMom=    0.0000000   0.0000000   0.0000000   0.0000000   0.0000000   0.0000000   0.0000000   0.0000000   0.0000000   0.0000000
 NMagM=    0.0000000   0.0000000   0.0000000   2.7928460   2.7928460   2.7928460   2.7928460   2.7928460   0.0000000   0.0000000
 AtZNuc=   6.0000000   6.0000000   6.0000000   1.0000000   1.0000000   1.0000000   1.0000000   1.0000000   6.0000000   6.0000000

  Atom        21          22          23          24          25          26          27          28          29          30
 IAtWgt=          12          12           1          12           1          12           1           1           1          16
 AtmWgt=  12.0000000  12.0000000   1.0078250  12.0000000   1.0078250  12.0000000   1.0078250   1.0078250   1.0078250  15.9949146
 NucSpn=           0           0           1           0           1           0           1           1           1           0
 AtZEff=   0.0000000   0.0000000   0.0000000   0.0000000   0.0000000   0.0000000   0.0000000   0.0000000   0.0000000   0.0000000
 NQMom=    0.0000000   0.0000000   0.0000000   0.0000000   0.0000000   0.0000000   0.0000000   0.0000000   0.0000000   0.0000000
 NMagM=    0.0000000   0.0000000   2.7928460   0.0000000   2.7928460   0.0000000   2.7928460   2.7928460   2.7928460   0.0000000
 AtZNuc=   6.0000000   6.0000000   1.0000000   6.0000000   1.0000000   6.0000000   1.0000000   1.0000000   1.0000000   8.0000000

  Atom        31          32          33          34          35          36          37          38          39          40
 IAtWgt=          16          12          12          12          12           1           1           1          12          12
 AtmWgt=  15.9949146  12.0000000  12.0000000  12.0000000  12.0000000   1.0078250   1.0078250   1.0078250  12.0000000  12.0000000
 NucSpn=           0           0           0           0           0           1           1           1           0           0
 AtZEff=   0.0000000   0.0000000   0.0000000   0.0000000   0.0000000   0.0000000   0.0000000   0.0000000   0.0000000   0.0000000
 NQMom=    0.0000000   0.0000000   0.0000000   0.0000000   0.0000000   0.0000000   0.0000000   0.0000000   0.0000000   0.0000000
 NMagM=    0.0000000   0.0000000   0.0000000   0.0000000   0.0000000   2.7928460   2.7928460   2.7928460   0.0000000   0.0000000
 AtZNuc=   8.0000000   6.0000000   6.0000000   6.0000000   6.0000000   1.0000000   1.0000000   1.0000000   6.0000000   6.0000000

  Atom        41          42          43          44          45          46          47          48          49          50
 IAtWgt=          12          12          12          12           1          12           1          12           1           1
 AtmWgt=  12.0000000  12.0000000  12.0000000  12.0000000   1.0078250  12.0000000   1.0078250  12.0000000   1.0078250   1.0078250
 NucSpn=           0           0           0           0           1           0           1           0           1           1
 AtZEff=   0.0000000   0.0000000   0.0000000   0.0000000   0.0000000   0.0000000   0.0000000   0.0000000   0.0000000   0.0000000
 NQMom=    0.0000000   0.0000000   0.0000000   0.0000000   0.0000000   0.0000000   0.0000000   0.0000000   0.0000000   0.0000000
 NMagM=    0.0000000   0.0000000   0.0000000   0.0000000   2.7928460   0.0000000   2.7928460   0.0000000   2.7928460   2.7928460
 AtZNuc=   6.0000000   6.0000000   6.0000000   6.0000000   1.0000000   6.0000000   1.0000000   6.0000000   1.0000000   1.0000000

  Atom        51
 IAtWgt=           1
 AtmWgt=   1.0078250
 NucSpn=           1
 AtZEff=   0.0000000
 NQMom=    0.0000000
 NMagM=    2.7928460
 AtZNuc=   1.0000000
 Leave Link  101 at Tue Feb 23 01:44:07 2021, MaxMem=  5242880000 cpu:         5.3
 (Enter /opt/nce/packages/global/g09/l103.exe)

 GradGradGradGradGradGradGradGradGradGradGradGradGradGradGradGradGradGrad
 Berny optimization.
 Initialization pass.
                           ----------------------------
                           !    Initial Parameters    !
                           ! (Angstroms and Degrees)  !
 --------------------------                            --------------------------
 ! Name  Definition              Value          Derivative Info.                !
 --------------------------------------------------------------------------------
 ! R1    R(1,2)                  1.3763         estimate D2E/DX2                !
 ! R2    R(1,6)                  1.4185         estimate D2E/DX2                !
 ! R3    R(1,15)                 1.0925         estimate D2E/DX2                !
 ! R4    R(2,3)                  1.4241         estimate D2E/DX2                !
 ! R5    R(2,16)                 1.0928         estimate D2E/DX2                !
 ! R6    R(3,4)                  1.4346         estimate D2E/DX2                !
 ! R7    R(3,7)                  1.4107         estimate D2E/DX2                !
 ! R8    R(4,5)                  1.4257         estimate D2E/DX2                !
 ! R9    R(4,8)                  1.4305         estimate D2E/DX2                !
 ! R10   R(5,6)                  1.3776         estimate D2E/DX2                !
 ! R11   R(5,17)                 1.0896         estimate D2E/DX2                !
 ! R12   R(6,18)                 1.0923         estimate D2E/DX2                !
 ! R13   R(7,10)                 1.3851         estimate D2E/DX2                !
 ! R14   R(7,14)                 1.0902         estimate D2E/DX2                !
 ! R15   R(8,9)                  1.3989         estimate D2E/DX2                !
 ! R16   R(8,19)                 1.4939         estimate D2E/DX2                !
 ! R17   R(9,10)                 1.4385         estimate D2E/DX2                !
 ! R18   R(9,13)                 1.4883         estimate D2E/DX2                !
 ! R19   R(10,11)                1.4642         estimate D2E/DX2                !
 ! R20   R(11,12)                1.405          estimate D2E/DX2                !
 ! R21   R(11,32)                1.4103         estimate D2E/DX2                !
 ! R22   R(12,31)                1.3626         estimate D2E/DX2                !
 ! R23   R(12,33)                1.3941         estimate D2E/DX2                !
 ! R24   R(13,30)                1.2004         estimate D2E/DX2                !
 ! R25   R(13,31)                1.376          estimate D2E/DX2                !
 ! R26   R(19,20)                1.4008         estimate D2E/DX2                !
 ! R27   R(19,21)                1.4008         estimate D2E/DX2                !
 ! R28   R(20,22)                1.3958         estimate D2E/DX2                !
 ! R29   R(20,23)                1.0924         estimate D2E/DX2                !
 ! R30   R(21,24)                1.3958         estimate D2E/DX2                !
 ! R31   R(21,25)                1.0924         estimate D2E/DX2                !
 ! R32   R(22,26)                1.3974         estimate D2E/DX2                !
 ! R33   R(22,27)                1.0927         estimate D2E/DX2                !
 ! R34   R(24,26)                1.3975         estimate D2E/DX2                !
 ! R35   R(24,28)                1.0927         estimate D2E/DX2                !
 ! R36   R(26,29)                1.0926         estimate D2E/DX2                !
 ! R37   R(32,35)                1.3852         estimate D2E/DX2                !
 ! R38   R(32,37)                1.0902         estimate D2E/DX2                !
 ! R39   R(33,34)                1.4039         estimate D2E/DX2                !
 ! R40   R(33,38)                1.0898         estimate D2E/DX2                !
 ! R41   R(34,35)                1.416          estimate D2E/DX2                !
 ! R42   R(34,39)                1.4237         estimate D2E/DX2                !
 ! R43   R(35,36)                1.0907         estimate D2E/DX2                !
 ! R44   R(39,40)                1.2192         estimate D2E/DX2                !
 ! R45   R(40,41)                1.4257         estimate D2E/DX2                !
 ! R46   R(41,42)                1.4113         estimate D2E/DX2                !
 ! R47   R(41,43)                1.4113         estimate D2E/DX2                !
 ! R48   R(42,44)                1.3934         estimate D2E/DX2                !
 ! R49   R(42,45)                1.0915         estimate D2E/DX2                !
 ! R50   R(43,46)                1.3934         estimate D2E/DX2                !
 ! R51   R(43,47)                1.0915         estimate D2E/DX2                !
 ! R52   R(44,48)                1.3988         estimate D2E/DX2                !
 ! R53   R(44,49)                1.0926         estimate D2E/DX2                !
 ! R54   R(46,48)                1.3988         estimate D2E/DX2                !
 ! R55   R(46,50)                1.0925         estimate D2E/DX2                !
 ! R56   R(48,51)                1.0925         estimate D2E/DX2                !
 ! A1    A(2,1,6)              120.1643         estimate D2E/DX2                !
 ! A2    A(2,1,15)             120.1254         estimate D2E/DX2                !
 ! A3    A(6,1,15)             119.7103         estimate D2E/DX2                !
 ! A4    A(1,2,3)              120.7583         estimate D2E/DX2                !
 ! A5    A(1,2,16)             120.6157         estimate D2E/DX2                !
 ! A6    A(3,2,16)             118.626          estimate D2E/DX2                !
 ! A7    A(2,3,4)              119.2417         estimate D2E/DX2                !
 ! A8    A(2,3,7)              121.4608         estimate D2E/DX2                !
 ! A9    A(4,3,7)              119.2975         estimate D2E/DX2                !
 ! A10   A(3,4,5)              118.4398         estimate D2E/DX2                !
 ! A11   A(3,4,8)              119.3847         estimate D2E/DX2                !
 ! A12   A(5,4,8)              122.1755         estimate D2E/DX2                !
 ! A13   A(4,5,6)              120.8955         estimate D2E/DX2                !
 ! A14   A(4,5,17)             118.8964         estimate D2E/DX2                !
 ! A15   A(6,5,17)             120.2081         estimate D2E/DX2                !
 ! A16   A(1,6,5)              120.5004         estimate D2E/DX2                !
 ! A17   A(1,6,18)             119.6427         estimate D2E/DX2                !
 ! A18   A(5,6,18)             119.8569         estimate D2E/DX2                !
 ! A19   A(3,7,10)             121.7937         estimate D2E/DX2                !
 ! A20   A(3,7,14)             117.8751         estimate D2E/DX2                !
 ! A21   A(10,7,14)            120.3312         estimate D2E/DX2                !
 ! A22   A(4,8,9)              119.7016         estimate D2E/DX2                !
 ! A23   A(4,8,19)             117.3222         estimate D2E/DX2                !
 ! A24   A(9,8,19)             122.9763         estimate D2E/DX2                !
 ! A25   A(8,9,10)             120.7604         estimate D2E/DX2                !
 ! A26   A(8,9,13)             119.4741         estimate D2E/DX2                !
 ! A27   A(10,9,13)            119.7655         estimate D2E/DX2                !
 ! A28   A(7,10,9)             119.0621         estimate D2E/DX2                !
 ! A29   A(7,10,11)            122.1784         estimate D2E/DX2                !
 ! A30   A(9,10,11)            118.7595         estimate D2E/DX2                !
 ! A31   A(10,11,12)           118.4786         estimate D2E/DX2                !
 ! A32   A(10,11,32)           124.4985         estimate D2E/DX2                !
 ! A33   A(12,11,32)           117.0228         estimate D2E/DX2                !
 ! A34   A(11,12,31)           121.6881         estimate D2E/DX2                !
 ! A35   A(11,12,33)           122.2025         estimate D2E/DX2                !
 ! A36   A(31,12,33)           116.1094         estimate D2E/DX2                !
 ! A37   A(9,13,30)            126.3782         estimate D2E/DX2                !
 ! A38   A(9,13,31)            116.7487         estimate D2E/DX2                !
 ! A39   A(30,13,31)           116.8731         estimate D2E/DX2                !
 ! A40   A(8,19,20)            120.326          estimate D2E/DX2                !
 ! A41   A(8,19,21)            120.3282         estimate D2E/DX2                !
 ! A42   A(20,19,21)           119.2582         estimate D2E/DX2                !
 ! A43   A(19,20,22)           120.3587         estimate D2E/DX2                !
 ! A44   A(19,20,23)           119.4054         estimate D2E/DX2                !
 ! A45   A(22,20,23)           120.234          estimate D2E/DX2                !
 ! A46   A(19,21,24)           120.3584         estimate D2E/DX2                !
 ! A47   A(19,21,25)           119.4047         estimate D2E/DX2                !
 ! A48   A(24,21,25)           120.2351         estimate D2E/DX2                !
 ! A49   A(20,22,26)           120.168          estimate D2E/DX2                !
 ! A50   A(20,22,27)           119.7289         estimate D2E/DX2                !
 ! A51   A(26,22,27)           120.103          estimate D2E/DX2                !
 ! A52   A(21,24,26)           120.1683         estimate D2E/DX2                !
 ! A53   A(21,24,28)           119.7304         estimate D2E/DX2                !
 ! A54   A(26,24,28)           120.1012         estimate D2E/DX2                !
 ! A55   A(22,26,24)           119.6837         estimate D2E/DX2                !
 ! A56   A(22,26,29)           120.1593         estimate D2E/DX2                !
 ! A57   A(24,26,29)           120.1569         estimate D2E/DX2                !
 ! A58   A(12,31,13)           124.5596         estimate D2E/DX2                !
 ! A59   A(11,32,35)           121.7451         estimate D2E/DX2                !
 ! A60   A(11,32,37)           119.5848         estimate D2E/DX2                !
 ! A61   A(35,32,37)           118.6702         estimate D2E/DX2                !
 ! A62   A(12,33,34)           120.0002         estimate D2E/DX2                !
 ! A63   A(12,33,38)           118.8104         estimate D2E/DX2                !
 ! A64   A(34,33,38)           121.1894         estimate D2E/DX2                !
 ! A65   A(33,34,35)           118.5745         estimate D2E/DX2                !
 ! A66   A(33,34,39)           120.7038         estimate D2E/DX2                !
 ! A67   A(35,34,39)           120.7216         estimate D2E/DX2                !
 ! A68   A(32,35,34)           120.4549         estimate D2E/DX2                !
 ! A69   A(32,35,36)           120.3308         estimate D2E/DX2                !
 ! A70   A(34,35,36)           119.2144         estimate D2E/DX2                !
 ! A71   A(40,41,42)           120.602          estimate D2E/DX2                !
 ! A72   A(40,41,43)           120.5312         estimate D2E/DX2                !
 ! A73   A(42,41,43)           118.8668         estimate D2E/DX2                !
 ! A74   A(41,42,44)           120.3642         estimate D2E/DX2                !
 ! A75   A(41,42,45)           119.1079         estimate D2E/DX2                !
 ! A76   A(44,42,45)           120.528          estimate D2E/DX2                !
 ! A77   A(41,43,46)           120.3569         estimate D2E/DX2                !
 ! A78   A(41,43,47)           119.1053         estimate D2E/DX2                !
 ! A79   A(46,43,47)           120.5377         estimate D2E/DX2                !
 ! A80   A(42,44,48)           120.3025         estimate D2E/DX2                !
 ! A81   A(42,44,49)           119.668          estimate D2E/DX2                !
 ! A82   A(48,44,49)           120.0295         estimate D2E/DX2                !
 ! A83   A(43,46,48)           120.3093         estimate D2E/DX2                !
 ! A84   A(43,46,50)           119.6554         estimate D2E/DX2                !
 ! A85   A(48,46,50)           120.0353         estimate D2E/DX2                !
 ! A86   A(44,48,46)           119.8003         estimate D2E/DX2                !
 ! A87   A(44,48,51)           120.1003         estimate D2E/DX2                !
 ! A88   A(46,48,51)           120.0994         estimate D2E/DX2                !
 ! A89   L(34,39,40,36,-1)     179.7793         estimate D2E/DX2                !
 ! A90   L(39,40,41,47,-1)     179.8028         estimate D2E/DX2                !
 ! A91   L(34,39,40,36,-2)     180.0034         estimate D2E/DX2                !
 ! A92   L(39,40,41,47,-2)     180.0004         estimate D2E/DX2                !
 ! D1    D(6,1,2,3)              0.0            estimate D2E/DX2                !
 ! D2    D(6,1,2,16)           180.0            estimate D2E/DX2                !
 ! D3    D(15,1,2,3)          -180.0            estimate D2E/DX2                !
 ! D4    D(15,1,2,16)            0.0            estimate D2E/DX2                !
 ! D5    D(2,1,6,5)              0.0002         estimate D2E/DX2                !
 ! D6    D(2,1,6,18)          -179.9999         estimate D2E/DX2                !
 ! D7    D(15,1,6,5)          -179.9998         estimate D2E/DX2                !
 ! D8    D(15,1,6,18)            0.0001         estimate D2E/DX2                !
 ! D9    D(1,2,3,4)             -0.0001         estimate D2E/DX2                !
 ! D10   D(1,2,3,7)           -179.9997         estimate D2E/DX2                !
 ! D11   D(16,2,3,4)           179.9999         estimate D2E/DX2                !
 ! D12   D(16,2,3,7)             0.0003         estimate D2E/DX2                !
 ! D13   D(2,3,4,5)              0.0            estimate D2E/DX2                !
 ! D14   D(2,3,4,8)           -180.0            estimate D2E/DX2                !
 ! D15   D(7,3,4,5)            179.9996         estimate D2E/DX2                !
 ! D16   D(7,3,4,8)             -0.0004         estimate D2E/DX2                !
 ! D17   D(2,3,7,10)          -179.9994         estimate D2E/DX2                !
 ! D18   D(2,3,7,14)             0.0003         estimate D2E/DX2                !
 ! D19   D(4,3,7,10)             0.001          estimate D2E/DX2                !
 ! D20   D(4,3,7,14)          -179.9993         estimate D2E/DX2                !
 ! D21   D(3,4,5,6)              0.0001         estimate D2E/DX2                !
 ! D22   D(3,4,5,17)          -179.9998         estimate D2E/DX2                !
 ! D23   D(8,4,5,6)           -179.9998         estimate D2E/DX2                !
 ! D24   D(8,4,5,17)             0.0002         estimate D2E/DX2                !
 ! D25   D(3,4,8,9)             -0.0004         estimate D2E/DX2                !
 ! D26   D(3,4,8,19)           179.9976         estimate D2E/DX2                !
 ! D27   D(5,4,8,9)            179.9995         estimate D2E/DX2                !
 ! D28   D(5,4,8,19)            -0.0024         estimate D2E/DX2                !
 ! D29   D(4,5,6,1)             -0.0002         estimate D2E/DX2                !
 ! D30   D(4,5,6,18)           179.9998         estimate D2E/DX2                !
 ! D31   D(17,5,6,1)           179.9997         estimate D2E/DX2                !
 ! D32   D(17,5,6,18)           -0.0003         estimate D2E/DX2                !
 ! D33   D(3,7,10,9)            -0.0007         estimate D2E/DX2                !
 ! D34   D(3,7,10,11)         -179.9998         estimate D2E/DX2                !
 ! D35   D(14,7,10,9)          179.9995         estimate D2E/DX2                !
 ! D36   D(14,7,10,11)           0.0004         estimate D2E/DX2                !
 ! D37   D(4,8,9,10)             0.0007         estimate D2E/DX2                !
 ! D38   D(4,8,9,13)          -179.998          estimate D2E/DX2                !
 ! D39   D(19,8,9,10)         -179.9972         estimate D2E/DX2                !
 ! D40   D(19,8,9,13)            0.0041         estimate D2E/DX2                !
 ! D41   D(4,8,19,20)          -88.2848         estimate D2E/DX2                !
 ! D42   D(4,8,19,21)           88.2857         estimate D2E/DX2                !
 ! D43   D(9,8,19,20)           91.7132         estimate D2E/DX2                !
 ! D44   D(9,8,19,21)          -91.7163         estimate D2E/DX2                !
 ! D45   D(8,9,10,7)            -0.0002         estimate D2E/DX2                !
 ! D46   D(8,9,10,11)          179.999          estimate D2E/DX2                !
 ! D47   D(13,9,10,7)          179.9985         estimate D2E/DX2                !
 ! D48   D(13,9,10,11)          -0.0023         estimate D2E/DX2                !
 ! D49   D(8,9,13,30)            0.0012         estimate D2E/DX2                !
 ! D50   D(8,9,13,31)         -179.9993         estimate D2E/DX2                !
 ! D51   D(10,9,13,30)        -179.9975         estimate D2E/DX2                !
 ! D52   D(10,9,13,31)           0.002          estimate D2E/DX2                !
 ! D53   D(7,10,11,12)         179.9997         estimate D2E/DX2                !
 ! D54   D(7,10,11,32)           0.0026         estimate D2E/DX2                !
 ! D55   D(9,10,11,12)           0.0006         estimate D2E/DX2                !
 ! D56   D(9,10,11,32)        -179.9966         estimate D2E/DX2                !
 ! D57   D(10,11,12,31)          0.0015         estimate D2E/DX2                !
 ! D58   D(10,11,12,33)       -179.9998         estimate D2E/DX2                !
 ! D59   D(32,11,12,31)        179.9989         estimate D2E/DX2                !
 ! D60   D(32,11,12,33)         -0.0025         estimate D2E/DX2                !
 ! D61   D(10,11,32,35)        179.9989         estimate D2E/DX2                !
 ! D62   D(10,11,32,37)          0.0002         estimate D2E/DX2                !
 ! D63   D(12,11,32,35)          0.0017         estimate D2E/DX2                !
 ! D64   D(12,11,32,37)       -179.997          estimate D2E/DX2                !
 ! D65   D(11,12,31,13)         -0.002          estimate D2E/DX2                !
 ! D66   D(33,12,31,13)        179.9993         estimate D2E/DX2                !
 ! D67   D(11,12,33,34)          0.0014         estimate D2E/DX2                !
 ! D68   D(11,12,33,38)       -179.9975         estimate D2E/DX2                !
 ! D69   D(31,12,33,34)       -179.9999         estimate D2E/DX2                !
 ! D70   D(31,12,33,38)          0.0012         estimate D2E/DX2                !
 ! D71   D(9,13,31,12)           0.0002         estimate D2E/DX2                !
 ! D72   D(30,13,31,12)        179.9997         estimate D2E/DX2                !
 ! D73   D(8,19,20,22)         177.3602         estimate D2E/DX2                !
 ! D74   D(8,19,20,23)          -3.1372         estimate D2E/DX2                !
 ! D75   D(21,19,20,22)          0.7532         estimate D2E/DX2                !
 ! D76   D(21,19,20,23)       -179.7442         estimate D2E/DX2                !
 ! D77   D(8,19,21,24)        -177.3601         estimate D2E/DX2                !
 ! D78   D(8,19,21,25)           3.1374         estimate D2E/DX2                !
 ! D79   D(20,19,21,24)         -0.7531         estimate D2E/DX2                !
 ! D80   D(20,19,21,25)        179.7443         estimate D2E/DX2                !
 ! D81   D(19,20,22,26)         -0.2854         estimate D2E/DX2                !
 ! D82   D(19,20,22,27)        179.5884         estimate D2E/DX2                !
 ! D83   D(23,20,22,26)       -179.7838         estimate D2E/DX2                !
 ! D84   D(23,20,22,27)          0.0899         estimate D2E/DX2                !
 ! D85   D(19,21,24,26)          0.2852         estimate D2E/DX2                !
 ! D86   D(19,21,24,28)       -179.5882         estimate D2E/DX2                !
 ! D87   D(25,21,24,26)        179.7836         estimate D2E/DX2                !
 ! D88   D(25,21,24,28)         -0.0898         estimate D2E/DX2                !
 ! D89   D(20,22,26,24)         -0.19           estimate D2E/DX2                !
 ! D90   D(20,22,26,29)        179.8744         estimate D2E/DX2                !
 ! D91   D(27,22,26,24)        179.9367         estimate D2E/DX2                !
 ! D92   D(27,22,26,29)          0.0011         estimate D2E/DX2                !
 ! D93   D(21,24,26,22)          0.1901         estimate D2E/DX2                !
 ! D94   D(21,24,26,29)       -179.8743         estimate D2E/DX2                !
 ! D95   D(28,24,26,22)       -179.9369         estimate D2E/DX2                !
 ! D96   D(28,24,26,29)         -0.0013         estimate D2E/DX2                !
 ! D97   D(11,32,35,34)          0.0001         estimate D2E/DX2                !
 ! D98   D(11,32,35,36)       -179.999          estimate D2E/DX2                !
 ! D99   D(37,32,35,34)        179.9988         estimate D2E/DX2                !
 ! D100  D(37,32,35,36)         -0.0003         estimate D2E/DX2                !
 ! D101  D(12,33,34,35)          0.0005         estimate D2E/DX2                !
 ! D102  D(12,33,34,39)        179.9986         estimate D2E/DX2                !
 ! D103  D(38,33,34,35)        179.9994         estimate D2E/DX2                !
 ! D104  D(38,33,34,39)         -0.0024         estimate D2E/DX2                !
 ! D105  D(33,34,35,32)         -0.0013         estimate D2E/DX2                !
 ! D106  D(33,34,35,36)        179.9979         estimate D2E/DX2                !
 ! D107  D(39,34,35,32)       -179.9994         estimate D2E/DX2                !
 ! D108  D(39,34,35,36)         -0.0002         estimate D2E/DX2                !
 ! D109  D(33,34,41,42)        179.995          estimate D2E/DX2                !
 ! D110  D(33,34,41,43)         -0.0044         estimate D2E/DX2                !
 ! D111  D(35,34,41,42)         -0.0049         estimate D2E/DX2                !
 ! D112  D(35,34,41,43)        179.9957         estimate D2E/DX2                !
 ! D113  D(40,41,42,44)        180.0            estimate D2E/DX2                !
 ! D114  D(40,41,42,45)         -0.0001         estimate D2E/DX2                !
 ! D115  D(43,41,42,44)          0.0002         estimate D2E/DX2                !
 ! D116  D(43,41,42,45)       -179.9999         estimate D2E/DX2                !
 ! D117  D(40,41,43,46)       -179.9998         estimate D2E/DX2                !
 ! D118  D(40,41,43,47)         -0.0002         estimate D2E/DX2                !
 ! D119  D(42,41,43,46)         -0.0001         estimate D2E/DX2                !
 ! D120  D(42,41,43,47)        179.9996         estimate D2E/DX2                !
 ! D121  D(41,42,44,48)         -0.0003         estimate D2E/DX2                !
 ! D122  D(41,42,44,49)        179.9999         estimate D2E/DX2                !
 ! D123  D(45,42,44,48)        179.9998         estimate D2E/DX2                !
 ! D124  D(45,42,44,49)          0.0            estimate D2E/DX2                !
 ! D125  D(41,43,46,48)          0.0            estimate D2E/DX2                !
 ! D126  D(41,43,46,50)        179.9998         estimate D2E/DX2                !
 ! D127  D(47,43,46,48)       -179.9997         estimate D2E/DX2                !
 ! D128  D(47,43,46,50)          0.0002         estimate D2E/DX2                !
 ! D129  D(42,44,48,46)          0.0002         estimate D2E/DX2                !
 ! D130  D(42,44,48,51)       -179.9999         estimate D2E/DX2                !
 ! D131  D(49,44,48,46)       -180.0            estimate D2E/DX2                !
 ! D132  D(49,44,48,51)         -0.0001         estimate D2E/DX2                !
 ! D133  D(43,46,48,44)          0.0            estimate D2E/DX2                !
 ! D134  D(43,46,48,51)       -179.9999         estimate D2E/DX2                !
 ! D135  D(50,46,48,44)       -179.9999         estimate D2E/DX2                !
 ! D136  D(50,46,48,51)          0.0002         estimate D2E/DX2                !
 --------------------------------------------------------------------------------
 Trust Radius=3.00D-01 FncErr=1.00D-07 GrdErr=1.00D-06
 Number of steps in this run=    294 maximum allowed number of steps=    306.
 GradGradGradGradGradGradGradGradGradGradGradGradGradGradGradGradGradGrad

 Leave Link  103 at Tue Feb 23 01:44:07 2021, MaxMem=  5242880000 cpu:         0.2
 (Enter /opt/nce/packages/global/g09/l202.exe)
 Symmetry turned off by external request.
 Stoichiometry    C31H18O2
 Framework group  C1[X(C31H18O2)]
 Deg. of freedom   147
 Full point group                 C1      NOp   1
                          Input orientation:                          
 ---------------------------------------------------------------------
 Center     Atomic      Atomic             Coordinates (Angstroms)
 Number     Number       Type             X           Y           Z
 ---------------------------------------------------------------------
      1          6           0        5.224308    3.787725   -0.000006
      2          6           0        3.852256    3.679499   -0.000005
      3          6           0        3.222427    2.402230    0.000012
      4          6           0        4.035179    1.220116    0.000026
      5          6           0        5.452899    1.370885    0.000023
      6          6           0        6.031286    2.621188    0.000010
      7          6           0        1.817526    2.274063    0.000007
      8          6           0        3.405748   -0.064419    0.000043
      9          6           0        2.009568   -0.152171    0.000055
     10          6           0        1.197750    1.035379    0.000035
     11          6           0       -0.259462    0.892567    0.000026
     12          6           0       -0.805776   -0.401917    0.000050
     13          6           0        1.359983   -1.491267    0.000118
     14          1           0        1.222371    3.187457   -0.000016
     15          1           0        5.696644    4.772891   -0.000019
     16          1           0        3.223481    4.573300   -0.000017
     17          1           0        6.077354    0.477968    0.000030
     18          1           0        7.119372    2.716991    0.000011
     19          6           0        4.295892   -1.264195    0.000002
     20          6           0        4.746333   -1.810639   -1.208575
     21          6           0        4.746441   -1.810705    1.208518
     22          6           0        5.621922   -2.897670   -1.208398
     23          1           0        4.399806   -1.383628   -2.152423
     24          6           0        5.622024   -2.897726    1.208200
     25          1           0        4.399987   -1.383735    2.152411
     26          6           0        6.060807   -3.445713   -0.000138
     27          1           0        5.961500   -3.320092   -2.157216
     28          1           0        5.961702   -3.320222    2.156949
     29          1           0        6.744553   -4.297875   -0.000167
     30          8           0        1.918821   -2.553705    0.000182
     31          8           0       -0.015856   -1.512185    0.000112
     32          6           0       -1.167806    1.971419   -0.000063
     33          6           0       -2.181494   -0.627722    0.000040
     34          6           0       -3.071112    0.458351   -0.000025
     35          6           0       -2.538298    1.770245   -0.000090
     36          1           0       -3.219948    2.621645   -0.000175
     37          1           0       -0.789237    2.993762   -0.000134
     38          1           0       -2.545073   -1.655050    0.000101
     39          6           0       -4.478714    0.245030   -0.000065
     40          6           0       -5.684846    0.066991   -0.000041
     41          6           0       -7.094587   -0.146063   -0.000022
     42          6           0       -7.986481    0.947661    0.000018
     43          6           0       -7.621842   -1.455199   -0.000048
     44          6           0       -9.363402    0.733718    0.000036
     45          1           0       -7.582966    1.961851    0.000036
     46          6           0       -9.000247   -1.659231   -0.000033
     47          1           0       -6.935580   -2.303947   -0.000086
     48          6           0       -9.875393   -0.568006    0.000009
     49          1           0      -10.043542    1.588775    0.000069
     50          1           0       -9.395971   -2.677592   -0.000056
     51          1           0      -10.955487   -0.731928    0.000022
 ---------------------------------------------------------------------
 Rotational constants (GHZ):      0.3103014      0.0464419      0.0409777
 Leave Link  202 at Tue Feb 23 01:44:07 2021, MaxMem=  5242880000 cpu:         0.1
 (Enter /opt/nce/packages/global/g09/l301.exe)
 Standard basis: def2TZVP (5D, 7F)
 Ernie: Thresh=  0.10000D-02 Tol=  0.10000D-05 Strict=F.
  1131 basis functions,  1827 primitive gaussians,  1296 cartesian basis functions
   110 alpha electrons      110 beta electrons
       nuclear repulsion energy      2773.5838448630 Hartrees.
 IExCor= 4336 DFT=T Ex+Corr=M062X ExCW=0 ScaHFX=  0.540000
 ScaDFX=  1.000000  1.000000  1.000000  1.000000 ScalE2=  1.000000  1.000000
 IRadAn=      5 IRanWt=     -1 IRanGd=            0 ICorTp=0 IEmpDi=  4
 NAtoms=   51 NActive=   51 NUniq=   51 SFac= 1.00D+00 NAtFMM=   60 NAOKFM=F Big=F
 Integral buffers will be    131072 words long.
 Raffenetti 2 integral format.
 Two-electron integral symmetry is turned off.
 ------------------------------------------------------------------------------
 Polarizable Continuum Model (PCM)
 =================================
 Model                : PCM (using non-symmetric T matrix).
 Atomic radii         : SMD-Coulomb.
 Polarization charges : Total charges.
 Charge compensation  : None.
 Solution method      : On-the-fly selection.
 Cavity type          : VdW (van der Waals Surface) (Alpha=1.000).
 Cavity algorithm     : GePol (No added spheres)
                        Default sphere list used, NSphG=   51.
                        Lebedev-Laikov grids with approx.  5.0 points / Ang**2.
                        Smoothing algorithm: York/Karplus (Gamma=1.0000).
                        Polarization charges: spherical gaussians, with
                                              point-specific exponents (IZeta= 3).
                        Self-potential: point-specific (ISelfS= 7).
                        Self-field    : sphere-specific E.n sum rule (ISelfD= 2).
 1st derivatives      : Analytical E(r).r(x)/FMM algorithm (CHGder, D1EAlg=3).
                        Cavity 1st derivative terms included.
 Solvent              : Acetonitrile, Eps=  35.688000 Eps(inf)=   1.806874
 ------------------------------------------------------------------------------
 GePol: Number of generator spheres                  =      51
 GePol: Total number of spheres                      =      51
 GePol: Number of exposed spheres                    =      51 (100.00%)
 GePol: Number of points                             =    4115
 GePol: Average weight of points                     =       0.11
 GePol: Minimum weight of points                     =   0.83D-11
 GePol: Maximum weight of points                     =    0.21559
 GePol: Number of points with low weight             =     243
 GePol: Fraction of low-weight points (<1% of avg)   =       5.91%
 GePol: Cavity surface area                          =    447.441 Ang**2
 GePol: Cavity volume                                =    446.088 Ang**3
 ------------------------------------------------------------------------------
 Atomic radii for non-electrostatic terms: SMD-CDS.
 ------------------------------------------------------------------------------
 PCM non-electrostatic energy =        -0.0121544802 Hartrees.
 Nuclear repulsion after PCM non-electrostatic terms =     2773.5716903829 Hartrees.
 Leave Link  301 at Tue Feb 23 01:44:08 2021, MaxMem=  5242880000 cpu:         2.4
 (Enter /opt/nce/packages/global/g09/l302.exe)
 NPDir=0 NMtPBC=     1 NCelOv=     1 NCel=       1 NClECP=     1 NCelD=      1
         NCelK=      1 NCelE2=     1 NClLst=     1 CellRange=     0.0.
 One-electron integrals computed using PRISM.
   1 Symmetry operations used in ECPInt.
 ECPInt:  NShTT=   94830 NPrTT=  296076 LenC2=   66296 LenP2D=  140417.
 LDataN:  DoStor=T MaxTD1= 6 Len=  172
 NBasis=  1131 RedAO= T EigKep=  2.80D-06  NBF=  1131
 NBsUse=  1131 1.00D-06 EigRej= -1.00D+00 NBFU=  1131
 Precomputing XC quadrature grid using
 IXCGrd= 4 IRadAn=           5 IRanWt=          -1 IRanGd=           0 AccXCQ= 0.00D+00.
 Generated NRdTot=       0 NPtTot=           0 NUsed=           0 NTot=          32
 NSgBfM=  1167  1167  1167  1167  1167 MxSgAt=    51 MxSgA2=    51.
 Leave Link  302 at Tue Feb 23 01:44:10 2021, MaxMem=  5242880000 cpu:        32.2
 (Enter /opt/nce/packages/global/g09/l303.exe)
 DipDrv:  MaxL=1.
 Leave Link  303 at Tue Feb 23 01:44:11 2021, MaxMem=  5242880000 cpu:         3.1
 (Enter /opt/nce/packages/global/g09/l401.exe)
 ExpMin= 9.52D-02 ExpMax= 2.70D+04 ExpMxC= 9.22D+02 IAcc=3 IRadAn=         5 AccDes= 0.00D+00
 Harris functional with IExCor= 1009 and IRadAn=       5 diagonalized for initial guess.
 HarFok:  IExCor= 1009 AccDes= 0.00D+00 IRadAn=         5 IDoV= 1 UseB2=F ITyADJ=14
 ICtDFT=  3500011 ScaDFX=  1.000000  1.000000  1.000000  1.000000
 FoFCou: FMM=F IPFlag=           0 FMFlag=      100000 FMFlg1=           0
         NFxFlg=           0 DoJE=T BraDBF=F KetDBF=T FulRan=T
         wScrn=  0.000000 ICntrl=     500 IOpCl=  0 I1Cent=   200000004 NGrid=           0
         NMat0=    1 NMatS0=      1 NMatT0=    0 NMatD0=    1 NMtDS0=    0 NMtDT0=    0
 Symmetry not used in FoFCou.
 Harris En= -1341.89720556220    
 JPrj=0 DoOrth=F DoCkMO=F.
 Leave Link  401 at Tue Feb 23 01:44:21 2021, MaxMem=  5242880000 cpu:       117.3
 (Enter /opt/nce/packages/global/g09/l502.exe)
 Closed shell SCF:
 Using DIIS extrapolation, IDIIS=  1040.
 Two-electron integral symmetry not used.
 IVT=     5080828 IEndB=     5080828 NGot=  5242880000 MDV=  5239496725
 LenX=  5239496725 LenY=  5237815813
 Requested convergence on RMS density matrix=1.00D-08 within 128 cycles.
 Requested convergence on MAX density matrix=1.00D-06.
 Requested convergence on             energy=1.00D-06.
 No special actions if energy rises.
 Fock matrices will be formed incrementally for  20 cycles.

 Cycle   1  Pass 1  IDiag  1:
 FoFJK:  IHMeth= 1 ICntrl=       0 DoSepK=F KAlg= 0 I1Cent=   0 FoldK=F
 IRaf= 580000000 NMat=   1 IRICut=       1 DoRegI=T DoRafI=F ISym2E= 0.
 FoFCou: FMM=F IPFlag=           0 FMFlag=      100000 FMFlg1=           0
         NFxFlg=           0 DoJE=F BraDBF=F KetDBF=F FulRan=T
         wScrn=  0.000000 ICntrl=       0 IOpCl=  0 I1Cent=           0 NGrid=           0
         NMat0=    1 NMatS0=      1 NMatT0=    0 NMatD0=    1 NMtDS0=    0 NMtDT0=    0
 Symmetry not used in FoFCou.
 Inv3:  Mode=1 IEnd=    50799675.
 Iteration    1 A*A^-1 deviation from unit magnitude is 7.55D-15 for   4095.
 Iteration    1 A*A^-1 deviation from orthogonality  is 2.82D-15 for   2855   2445.
 Iteration    1 A^-1*A deviation from unit magnitude is 7.55D-15 for   4095.
 Iteration    1 A^-1*A deviation from orthogonality  is 1.83D-07 for   1693   1689.
 Iteration    2 A*A^-1 deviation from unit magnitude is 2.55D-15 for   2614.
 Iteration    2 A*A^-1 deviation from orthogonality  is 2.43D-15 for   1612    635.
 Iteration    2 A^-1*A deviation from unit magnitude is 9.99D-16 for    455.
 Iteration    2 A^-1*A deviation from orthogonality  is 4.16D-16 for   4109   1029.
 E= -1341.86726882396    
 DIIS: error= 2.47D-02 at cycle   1 NSaved=   1.
 NSaved= 1 IEnMin= 1 EnMin= -1341.86726882396     IErMin= 1 ErrMin= 2.47D-02
 ErrMax= 2.47D-02  0.00D+00 EMaxC= 1.00D-01 BMatC= 8.53D-01 BMatP= 8.53D-01
 IDIUse=3 WtCom= 7.53D-01 WtEn= 2.47D-01
 Coeff-Com:  0.100D+01
 Coeff-En:   0.100D+01
 Coeff:      0.100D+01
 Gap=     0.211 Goal=   None    Shift=    0.000
 GapD=    0.211 DampG=1.000 DampE=0.500 DampFc=0.5000 IDamp=-1.
 Damping current iteration by 5.00D-01
 RMSDP=2.48D-03 MaxDP=2.54D-01              OVMax= 1.67D-01

 Cycle   2  Pass 1  IDiag  1:
 RMSU=  1.23D-03    CP:  9.67D-01
 E= -1342.21737850453     Delta-E=       -0.350109680569 Rises=F Damp=T
 DIIS: error= 6.46D-03 at cycle   2 NSaved=   2.
 NSaved= 2 IEnMin= 2 EnMin= -1342.21737850453     IErMin= 2 ErrMin= 6.46D-03
 ErrMax= 6.46D-03  0.00D+00 EMaxC= 1.00D-01 BMatC= 9.01D-02 BMatP= 8.53D-01
 IDIUse=3 WtCom= 9.35D-01 WtEn= 6.46D-02
 Coeff-Com: -0.157D+00 0.116D+01
 Coeff-En:   0.000D+00 0.100D+01
 Coeff:     -0.147D+00 0.115D+01
 Gap=     0.214 Goal=   None    Shift=    0.000
 RMSDP=1.12D-03 MaxDP=1.07D-01 DE=-3.50D-01 OVMax= 1.18D-01

 Cycle   3  Pass 1  IDiag  1:
 RMSU=  1.07D-03    CP:  9.04D-01  1.02D+00
 E= -1342.51256790258     Delta-E=       -0.295189398048 Rises=F Damp=F
 DIIS: error= 6.72D-03 at cycle   3 NSaved=   3.
 NSaved= 3 IEnMin= 3 EnMin= -1342.51256790258     IErMin= 2 ErrMin= 6.46D-03
 ErrMax= 6.72D-03  0.00D+00 EMaxC= 1.00D-01 BMatC= 6.05D-02 BMatP= 9.01D-02
 IDIUse=3 WtCom= 9.33D-01 WtEn= 6.72D-02
 Coeff-Com: -0.159D+00 0.585D+00 0.573D+00
 Coeff-En:   0.000D+00 0.000D+00 0.100D+01
 Coeff:     -0.148D+00 0.546D+00 0.602D+00
 Gap=     0.202 Goal=   None    Shift=    0.000
 RMSDP=4.54D-04 MaxDP=5.50D-02 DE=-2.95D-01 OVMax= 5.12D-02

 Cycle   4  Pass 1  IDiag  1:
 RMSU=  3.43D-04    CP:  9.07D-01  1.18D+00  8.00D-01
 E= -1342.55364356726     Delta-E=       -0.041075664679 Rises=F Damp=F
 DIIS: error= 2.06D-03 at cycle   4 NSaved=   4.
 NSaved= 4 IEnMin= 4 EnMin= -1342.55364356726     IErMin= 4 ErrMin= 2.06D-03
 ErrMax= 2.06D-03  0.00D+00 EMaxC= 1.00D-01 BMatC= 7.01D-03 BMatP= 6.05D-02
 IDIUse=3 WtCom= 9.79D-01 WtEn= 2.06D-02
 Coeff-Com: -0.487D-01 0.127D+00 0.298D+00 0.624D+00
 Coeff-En:   0.000D+00 0.000D+00 0.506D-01 0.949D+00
 Coeff:     -0.477D-01 0.124D+00 0.293D+00 0.630D+00
 Gap=     0.202 Goal=   None    Shift=    0.000
 RMSDP=1.62D-04 MaxDP=2.68D-02 DE=-4.11D-02 OVMax= 1.37D-02

 Cycle   5  Pass 1  IDiag  1:
 RMSU=  7.38D-05    CP:  9.03D-01  1.11D+00  8.65D-01  7.38D-01
 E= -1342.55868614010     Delta-E=       -0.005042572840 Rises=F Damp=F
 DIIS: error= 4.03D-04 at cycle   5 NSaved=   5.
 NSaved= 5 IEnMin= 5 EnMin= -1342.55868614010     IErMin= 5 ErrMin= 4.03D-04
 ErrMax= 4.03D-04  0.00D+00 EMaxC= 1.00D-01 BMatC= 2.52D-04 BMatP= 7.01D-03
 IDIUse=3 WtCom= 9.96D-01 WtEn= 4.03D-03
 Coeff-Com: -0.118D-01 0.226D-01 0.918D-01 0.266D+00 0.631D+00
 Coeff-En:   0.000D+00 0.000D+00 0.000D+00 0.000D+00 0.100D+01
 Coeff:     -0.118D-01 0.225D-01 0.915D-01 0.265D+00 0.633D+00
 Gap=     0.202 Goal=   None    Shift=    0.000
 RMSDP=3.12D-05 MaxDP=3.17D-03 DE=-5.04D-03 OVMax= 3.40D-03

 Cycle   6  Pass 1  IDiag  1:
 RMSU=  2.21D-05    CP:  9.03D-01  1.12D+00  8.55D-01  7.35D-01  8.90D-01
 E= -1342.55889220954     Delta-E=       -0.000206069443 Rises=F Damp=F
 DIIS: error= 1.22D-04 at cycle   6 NSaved=   6.
 NSaved= 6 IEnMin= 6 EnMin= -1342.55889220954     IErMin= 6 ErrMin= 1.22D-04
 ErrMax= 1.22D-04  0.00D+00 EMaxC= 1.00D-01 BMatC= 2.30D-05 BMatP= 2.52D-04
 IDIUse=3 WtCom= 9.99D-01 WtEn= 1.22D-03
 Coeff-Com: -0.166D-02 0.126D-02 0.169D-01 0.630D-01 0.276D+00 0.645D+00
 Coeff-En:   0.000D+00 0.000D+00 0.000D+00 0.000D+00 0.000D+00 0.100D+01
 Coeff:     -0.166D-02 0.125D-02 0.169D-01 0.630D-01 0.275D+00 0.645D+00
 Gap=     0.202 Goal=   None    Shift=    0.000
 RMSDP=9.21D-06 MaxDP=8.48D-04 DE=-2.06D-04 OVMax= 1.34D-03

 Cycle   7  Pass 1  IDiag  1:
 RMSU=  8.40D-06    CP:  9.03D-01  1.12D+00  8.56D-01  7.33D-01  9.11D-01
                    CP:  9.54D-01
 E= -1342.55891408741     Delta-E=       -0.000021877867 Rises=F Damp=F
 DIIS: error= 4.90D-05 at cycle   7 NSaved=   7.
 NSaved= 7 IEnMin= 7 EnMin= -1342.55891408741     IErMin= 7 ErrMin= 4.90D-05
 ErrMax= 4.90D-05  0.00D+00 EMaxC= 1.00D-01 BMatC= 2.80D-06 BMatP= 2.30D-05
 IDIUse=1 WtCom= 1.00D+00 WtEn= 0.00D+00
 Coeff-Com:  0.121D-02-0.316D-02-0.660D-02-0.145D-01 0.241D-01 0.267D+00
 Coeff-Com:  0.732D+00
 Coeff:      0.121D-02-0.316D-02-0.660D-02-0.145D-01 0.241D-01 0.267D+00
 Coeff:      0.732D+00
 Gap=     0.202 Goal=   None    Shift=    0.000
 RMSDP=4.55D-06 MaxDP=4.72D-04 DE=-2.19D-05 OVMax= 6.26D-04

 Cycle   8  Pass 1  IDiag  1:
 RMSU=  2.93D-06    CP:  9.03D-01  1.12D+00  8.57D-01  7.34D-01  9.39D-01
                    CP:  9.99D-01  1.02D+00
 E= -1342.55891720779     Delta-E=       -0.000003120379 Rises=F Damp=F
 DIIS: error= 2.39D-05 at cycle   8 NSaved=   8.
 NSaved= 8 IEnMin= 8 EnMin= -1342.55891720779     IErMin= 8 ErrMin= 2.39D-05
 ErrMax= 2.39D-05  0.00D+00 EMaxC= 1.00D-01 BMatC= 4.10D-07 BMatP= 2.80D-06
 IDIUse=1 WtCom= 1.00D+00 WtEn= 0.00D+00
 Coeff-Com:  0.768D-03-0.166D-02-0.473D-02-0.146D-01-0.222D-01 0.371D-01
 Coeff-Com:  0.316D+00 0.690D+00
 Coeff:      0.768D-03-0.166D-02-0.473D-02-0.146D-01-0.222D-01 0.371D-01
 Coeff:      0.316D+00 0.690D+00
 Gap=     0.202 Goal=   None    Shift=    0.000
 RMSDP=1.33D-06 MaxDP=1.47D-04 DE=-3.12D-06 OVMax= 2.03D-04

 Cycle   9  Pass 1  IDiag  1:
 RMSU=  8.81D-07    CP:  9.03D-01  1.12D+00  8.57D-01  7.32D-01  9.44D-01
                    CP:  1.01D+00  1.09D+00  1.07D+00
 E= -1342.55891769508     Delta-E=       -0.000000487295 Rises=F Damp=F
 DIIS: error= 7.95D-06 at cycle   9 NSaved=   9.
 NSaved= 9 IEnMin= 9 EnMin= -1342.55891769508     IErMin= 9 ErrMin= 7.95D-06
 ErrMax= 7.95D-06  0.00D+00 EMaxC= 1.00D-01 BMatC= 6.22D-08 BMatP= 4.10D-07
 IDIUse=1 WtCom= 1.00D+00 WtEn= 0.00D+00
 Coeff-Com:  0.209D-03-0.394D-03-0.126D-02-0.512D-02-0.127D-01-0.141D-01
 Coeff-Com:  0.583D-01 0.316D+00 0.659D+00
 Coeff:      0.209D-03-0.394D-03-0.126D-02-0.512D-02-0.127D-01-0.141D-01
 Coeff:      0.583D-01 0.316D+00 0.659D+00
 Gap=     0.202 Goal=   None    Shift=    0.000
 RMSDP=5.89D-07 MaxDP=5.48D-05 DE=-4.87D-07 OVMax= 8.19D-05

 Cycle  10  Pass 1  IDiag  1:
 RMSU=  3.41D-07    CP:  9.03D-01  1.12D+00  8.57D-01  7.31D-01  9.45D-01
                    CP:  1.01D+00  1.12D+00  1.12D+00  1.10D+00
 E= -1342.55891776621     Delta-E=       -0.000000071129 Rises=F Damp=F
 DIIS: error= 3.57D-06 at cycle  10 NSaved=  10.
 NSaved=10 IEnMin=10 EnMin= -1342.55891776621     IErMin=10 ErrMin= 3.57D-06
 ErrMax= 3.57D-06  0.00D+00 EMaxC= 1.00D-01 BMatC= 7.84D-09 BMatP= 6.22D-08
 IDIUse=1 WtCom= 1.00D+00 WtEn= 0.00D+00
 Coeff-Com: -0.474D-04 0.122D-03 0.377D-03 0.494D-03-0.858D-03-0.120D-01
 Coeff-Com: -0.307D-01 0.589D-03 0.263D+00 0.779D+00
 Coeff:     -0.474D-04 0.122D-03 0.377D-03 0.494D-03-0.858D-03-0.120D-01
 Coeff:     -0.307D-01 0.589D-03 0.263D+00 0.779D+00
 Gap=     0.202 Goal=   None    Shift=    0.000
 RMSDP=2.69D-07 MaxDP=3.21D-05 DE=-7.11D-08 OVMax= 4.96D-05

 Cycle  11  Pass 1  IDiag  1:
 RMSU=  1.29D-07    CP:  9.03D-01  1.12D+00  8.57D-01  7.31D-01  9.45D-01
                    CP:  1.01D+00  1.12D+00  1.16D+00  1.17D+00  1.08D+00
 E= -1342.55891777690     Delta-E=       -0.000000010689 Rises=F Damp=F
 DIIS: error= 1.07D-06 at cycle  11 NSaved=  11.
 NSaved=11 IEnMin=11 EnMin= -1342.55891777690     IErMin=11 ErrMin= 1.07D-06
 ErrMax= 1.07D-06  0.00D+00 EMaxC= 1.00D-01 BMatC= 1.63D-09 BMatP= 7.84D-09
 IDIUse=1 WtCom= 1.00D+00 WtEn= 0.00D+00
 Coeff-Com: -0.475D-04 0.107D-03 0.340D-03 0.824D-03 0.101D-02-0.485D-02
 Coeff-Com: -0.225D-01-0.396D-01 0.488D-01 0.396D+00 0.620D+00
 Coeff:     -0.475D-04 0.107D-03 0.340D-03 0.824D-03 0.101D-02-0.485D-02
 Coeff:     -0.225D-01-0.396D-01 0.488D-01 0.396D+00 0.620D+00
 Gap=     0.202 Goal=   None    Shift=    0.000
 RMSDP=1.04D-07 MaxDP=1.22D-05 DE=-1.07D-08 OVMax= 1.30D-05

 Cycle  12  Pass 1  IDiag  1:
 RMSU=  4.95D-08    CP:  9.03D-01  1.12D+00  8.57D-01  7.31D-01  9.45D-01
                    CP:  1.01D+00  1.12D+00  1.16D+00  1.19D+00  1.13D+00
                    CP:  1.08D+00
 E= -1342.55891777876     Delta-E=       -0.000000001858 Rises=F Damp=F
 DIIS: error= 2.91D-07 at cycle  12 NSaved=  12.
 NSaved=12 IEnMin=12 EnMin= -1342.55891777876     IErMin=12 ErrMin= 2.91D-07
 ErrMax= 2.91D-07  0.00D+00 EMaxC= 1.00D-01 BMatC= 9.82D-11 BMatP= 1.63D-09
 IDIUse=1 WtCom= 1.00D+00 WtEn= 0.00D+00
 Coeff-Com: -0.720D-05 0.145D-04 0.559D-04 0.180D-03 0.466D-03 0.145D-03
 Coeff-Com: -0.216D-02-0.128D-01-0.249D-01 0.149D-01 0.189D+00 0.835D+00
 Coeff:     -0.720D-05 0.145D-04 0.559D-04 0.180D-03 0.466D-03 0.145D-03
 Coeff:     -0.216D-02-0.128D-01-0.249D-01 0.149D-01 0.189D+00 0.835D+00
 Gap=     0.202 Goal=   None    Shift=    0.000
 RMSDP=3.72D-08 MaxDP=4.59D-06 DE=-1.86D-09 OVMax= 7.09D-06

 Cycle  13  Pass 1  IDiag  1:
 RMSU=  1.87D-08    CP:  9.03D-01  1.12D+00  8.57D-01  7.31D-01  9.45D-01
                    CP:  1.01D+00  1.12D+00  1.16D+00  1.19D+00  1.15D+00
                    CP:  1.17D+00  1.16D+00
 E= -1342.55891777891     Delta-E=       -0.000000000156 Rises=F Damp=F
 DIIS: error= 1.55D-07 at cycle  13 NSaved=  13.
 NSaved=13 IEnMin=13 EnMin= -1342.55891777891     IErMin=13 ErrMin= 1.55D-07
 ErrMax= 1.55D-07  0.00D+00 EMaxC= 1.00D-01 BMatC= 2.00D-11 BMatP= 9.82D-11
 IDIUse=1 WtCom= 1.00D+00 WtEn= 0.00D+00
 Coeff-Com:  0.142D-05-0.384D-05-0.497D-05 0.311D-05 0.142D-03 0.528D-03
 Coeff-Com:  0.120D-02-0.199D-02-0.165D-01-0.308D-01 0.263D-01 0.382D+00
 Coeff-Com:  0.639D+00
 Coeff:      0.142D-05-0.384D-05-0.497D-05 0.311D-05 0.142D-03 0.528D-03
 Coeff:      0.120D-02-0.199D-02-0.165D-01-0.308D-01 0.263D-01 0.382D+00
 Coeff:      0.639D+00
 Gap=     0.202 Goal=   None    Shift=    0.000
 RMSDP=1.09D-08 MaxDP=1.11D-06 DE=-1.56D-10 OVMax= 1.65D-06

 Cycle  14  Pass 1  IDiag  1:
 RMSU=  5.66D-09    CP:  9.03D-01  1.12D+00  8.57D-01  7.31D-01  9.45D-01
                    CP:  1.01D+00  1.12D+00  1.16D+00  1.19D+00  1.16D+00
                    CP:  1.18D+00  1.23D+00  1.07D+00
 E= -1342.55891777894     Delta-E=       -0.000000000030 Rises=F Damp=F
 DIIS: error= 5.18D-08 at cycle  14 NSaved=  14.
 NSaved=14 IEnMin=14 EnMin= -1342.55891777894     IErMin=14 ErrMin= 5.18D-08
 ErrMax= 5.18D-08  0.00D+00 EMaxC= 1.00D-01 BMatC= 1.86D-12 BMatP= 2.00D-11
 IDIUse=1 WtCom= 1.00D+00 WtEn= 0.00D+00
 Coeff-Com:  0.143D-05-0.318D-05-0.832D-05-0.239D-04-0.109D-04 0.114D-03
 Coeff-Com:  0.609D-03 0.120D-02-0.165D-02-0.113D-01-0.195D-01-0.155D-01
 Coeff-Com:  0.209D+00 0.837D+00
 Coeff:      0.143D-05-0.318D-05-0.832D-05-0.239D-04-0.109D-04 0.114D-03
 Coeff:      0.609D-03 0.120D-02-0.165D-02-0.113D-01-0.195D-01-0.155D-01
 Coeff:      0.209D+00 0.837D+00
 Gap=     0.202 Goal=   None    Shift=    0.000
 RMSDP=5.79D-09 MaxDP=7.51D-07 DE=-3.00D-11 OVMax= 1.11D-06

 Error on total polarization charges =  0.07371
 SCF Done:  E(RM062X) =  -1342.55891778     A.U. after   14 cycles
            NFock= 14  Conv=0.58D-08     -V/T= 2.0057
 KE= 1.335014624051D+03 PE=-8.666668320944D+03 EE= 3.215523088731D+03
 SMD-CDS (non-electrostatic) energy       (kcal/mol) =      -7.63
 (included in total energy above)
 Leave Link  502 at Tue Feb 23 02:15:46 2021, MaxMem=  5242880000 cpu:     22561.3
 (Enter /opt/nce/packages/global/g09/l601.exe)
 Copying SCF densities to generalized density rwf, IOpCl= 0 IROHF=0.

 **********************************************************************

            Population analysis using the SCF density.

 **********************************************************************

 Alpha  occ. eigenvalues --  -19.69556 -19.62482 -10.69272 -10.62603 -10.58446
 Alpha  occ. eigenvalues --  -10.58246 -10.57908 -10.57848 -10.57578 -10.57265
 Alpha  occ. eigenvalues --  -10.56816 -10.56753 -10.55985 -10.55873 -10.55754
 Alpha  occ. eigenvalues --  -10.55728 -10.55600 -10.55557 -10.55442 -10.55364
 Alpha  occ. eigenvalues --  -10.55358 -10.55214 -10.55142 -10.55085 -10.54981
 Alpha  occ. eigenvalues --  -10.54947 -10.54816 -10.54794 -10.54334 -10.54327
 Alpha  occ. eigenvalues --  -10.54256 -10.54246 -10.54135  -1.25593  -1.16761
 Alpha  occ. eigenvalues --   -1.00330  -0.98266  -0.97104  -0.96212  -0.94631
 Alpha  occ. eigenvalues --   -0.91004  -0.89396  -0.87769  -0.86878  -0.85573
 Alpha  occ. eigenvalues --   -0.84779  -0.84446  -0.84056  -0.82638  -0.80693
 Alpha  occ. eigenvalues --   -0.76810  -0.74101  -0.73405  -0.70922  -0.70064
 Alpha  occ. eigenvalues --   -0.69492  -0.69208  -0.68625  -0.66446  -0.65471
 Alpha  occ. eigenvalues --   -0.64077  -0.61417  -0.60364  -0.60041  -0.58138
 Alpha  occ. eigenvalues --   -0.57137  -0.56886  -0.56331  -0.55003  -0.54302
 Alpha  occ. eigenvalues --   -0.53418  -0.53300  -0.52728  -0.52352  -0.52216
 Alpha  occ. eigenvalues --   -0.50670  -0.50309  -0.50109  -0.49355  -0.48912
 Alpha  occ. eigenvalues --   -0.48472  -0.48345  -0.48047  -0.47526  -0.47274
 Alpha  occ. eigenvalues --   -0.46310  -0.46093  -0.44156  -0.43833  -0.43431
 Alpha  occ. eigenvalues --   -0.42394  -0.41993  -0.41831  -0.41384  -0.40913
 Alpha  occ. eigenvalues --   -0.40671  -0.40178  -0.38735  -0.38322  -0.37082
 Alpha  occ. eigenvalues --   -0.35799  -0.34280  -0.34151  -0.31679  -0.31284
 Alpha  occ. eigenvalues --   -0.30869  -0.30508  -0.29929  -0.28559  -0.25749
 Alpha virt. eigenvalues --   -0.05521  -0.04462  -0.00922   0.00968   0.01493
 Alpha virt. eigenvalues --    0.01855   0.01990   0.02947   0.04472   0.07443
 Alpha virt. eigenvalues --    0.07564   0.08093   0.08193   0.09266   0.09719
 Alpha virt. eigenvalues --    0.09997   0.10283   0.10932   0.11729   0.11757
 Alpha virt. eigenvalues --    0.12000   0.12232   0.12859   0.13191   0.13686
 Alpha virt. eigenvalues --    0.13994   0.14187   0.14341   0.14738   0.15080
 Alpha virt. eigenvalues --    0.15604   0.15626   0.16148   0.16822   0.17168
 Alpha virt. eigenvalues --    0.17325   0.18116   0.18647   0.19300   0.19760
 Alpha virt. eigenvalues --    0.19898   0.20651   0.20828   0.21582   0.21863
 Alpha virt. eigenvalues --    0.21933   0.22267   0.22532   0.22669   0.23076
 Alpha virt. eigenvalues --    0.23322   0.23361   0.23643   0.24254   0.24438
 Alpha virt. eigenvalues --    0.24695   0.24975   0.25457   0.25539   0.25935
 Alpha virt. eigenvalues --    0.26361   0.26376   0.26818   0.27251   0.27282
 Alpha virt. eigenvalues --    0.27480   0.27726   0.27734   0.28146   0.28462
 Alpha virt. eigenvalues --    0.28606   0.28853   0.29395   0.29724   0.30302
 Alpha virt. eigenvalues --    0.30480   0.30794   0.31112   0.31288   0.31395
 Alpha virt. eigenvalues --    0.31780   0.31850   0.32173   0.33505   0.33511
 Alpha virt. eigenvalues --    0.33838   0.33867   0.34343   0.34614   0.35327
 Alpha virt. eigenvalues --    0.36052   0.36098   0.36546   0.36592   0.37137
 Alpha virt. eigenvalues --    0.37332   0.37358   0.37516   0.37823   0.37989
 Alpha virt. eigenvalues --    0.38038   0.38731   0.38876   0.39293   0.39507
 Alpha virt. eigenvalues --    0.39609   0.40515   0.40742   0.41113   0.41503
 Alpha virt. eigenvalues --    0.41617   0.41923   0.42008   0.42292   0.42594
 Alpha virt. eigenvalues --    0.43071   0.43240   0.43248   0.43482   0.43786
 Alpha virt. eigenvalues --    0.44104   0.44349   0.44663   0.44714   0.44782
 Alpha virt. eigenvalues --    0.45041   0.45501   0.46426   0.46697   0.47349
 Alpha virt. eigenvalues --    0.47380   0.47592   0.47865   0.48467   0.48646
 Alpha virt. eigenvalues --    0.49541   0.50082   0.50210   0.50555   0.50683
 Alpha virt. eigenvalues --    0.51081   0.51511   0.52176   0.52336   0.52460
 Alpha virt. eigenvalues --    0.52847   0.52855   0.53133   0.53426   0.53635
 Alpha virt. eigenvalues --    0.53865   0.53966   0.54623   0.54777   0.54830
 Alpha virt. eigenvalues --    0.55030   0.55596   0.56270   0.56387   0.56524
 Alpha virt. eigenvalues --    0.57484   0.58802   0.59320   0.59398   0.60049
 Alpha virt. eigenvalues --    0.60313   0.60405   0.60888   0.61721   0.61935
 Alpha virt. eigenvalues --    0.63338   0.64247   0.64750   0.65539   0.65930
 Alpha virt. eigenvalues --    0.66258   0.66375   0.67163   0.67248   0.67391
 Alpha virt. eigenvalues --    0.67539   0.68132   0.68734   0.68809   0.68917
 Alpha virt. eigenvalues --    0.69449   0.69716   0.69915   0.70622   0.70783
 Alpha virt. eigenvalues --    0.71383   0.71468   0.71603   0.72323   0.72516
 Alpha virt. eigenvalues --    0.72793   0.72826   0.73298   0.73835   0.73847
 Alpha virt. eigenvalues --    0.74021   0.74311   0.74594   0.75230   0.75900
 Alpha virt. eigenvalues --    0.76270   0.76559   0.76594   0.77270   0.77457
 Alpha virt. eigenvalues --    0.77817   0.77887   0.78443   0.78968   0.79148
 Alpha virt. eigenvalues --    0.79360   0.79615   0.80194   0.81104   0.81517
 Alpha virt. eigenvalues --    0.82186   0.82204   0.83092   0.83146   0.83526
 Alpha virt. eigenvalues --    0.84090   0.84318   0.84476   0.84715   0.85083
 Alpha virt. eigenvalues --    0.86663   0.87526   0.87625   0.87742   0.88117
 Alpha virt. eigenvalues --    0.88212   0.88770   0.88966   0.89178   0.89181
 Alpha virt. eigenvalues --    0.90126   0.90409   0.90526   0.90595   0.91044
 Alpha virt. eigenvalues --    0.92162   0.92723   0.92918   0.93031   0.93386
 Alpha virt. eigenvalues --    0.93470   0.94023   0.94281   0.95358   0.95434
 Alpha virt. eigenvalues --    0.96204   0.97299   0.98210   0.98420   0.98445
 Alpha virt. eigenvalues --    1.00535   1.01172   1.02087   1.02302   1.03485
 Alpha virt. eigenvalues --    1.03501   1.03753   1.04543   1.05045   1.05075
 Alpha virt. eigenvalues --    1.05820   1.06271   1.06697   1.07692   1.08046
 Alpha virt. eigenvalues --    1.08532   1.09371   1.09732   1.10154   1.10688
 Alpha virt. eigenvalues --    1.11064   1.11976   1.12005   1.12834   1.13327
 Alpha virt. eigenvalues --    1.14470   1.15607   1.15989   1.16122   1.16510
 Alpha virt. eigenvalues --    1.16597   1.17167   1.18313   1.18569   1.18759
 Alpha virt. eigenvalues --    1.20052   1.20776   1.21158   1.22198   1.22603
 Alpha virt. eigenvalues --    1.23186   1.23931   1.24348   1.24525   1.25170
 Alpha virt. eigenvalues --    1.25232   1.25902   1.26369   1.26678   1.27188
 Alpha virt. eigenvalues --    1.27357   1.27766   1.28261   1.28956   1.28981
 Alpha virt. eigenvalues --    1.29322   1.29981   1.30789   1.31291   1.32146
 Alpha virt. eigenvalues --    1.32409   1.32433   1.34052   1.34076   1.34529
 Alpha virt. eigenvalues --    1.34757   1.35296   1.35974   1.36258   1.36628
 Alpha virt. eigenvalues --    1.38214   1.38497   1.38659   1.39925   1.40408
 Alpha virt. eigenvalues --    1.41042   1.41574   1.42113   1.42983   1.43279
 Alpha virt. eigenvalues --    1.43992   1.44463   1.45030   1.45617   1.46097
 Alpha virt. eigenvalues --    1.46963   1.47203   1.47647   1.47992   1.48596
 Alpha virt. eigenvalues --    1.49389   1.49973   1.50242   1.50388   1.50470
 Alpha virt. eigenvalues --    1.51417   1.52026   1.52097   1.53694   1.53744
 Alpha virt. eigenvalues --    1.53759   1.53926   1.54106   1.54431   1.55015
 Alpha virt. eigenvalues --    1.55832   1.55923   1.56280   1.56442   1.56812
 Alpha virt. eigenvalues --    1.56821   1.57874   1.58410   1.59834   1.59947
 Alpha virt. eigenvalues --    1.61034   1.61659   1.61766   1.62283   1.62660
 Alpha virt. eigenvalues --    1.62899   1.64155   1.64530   1.64613   1.65252
 Alpha virt. eigenvalues --    1.65474   1.66129   1.67195   1.67265   1.67869
 Alpha virt. eigenvalues --    1.68554   1.68646   1.69658   1.69914   1.71232
 Alpha virt. eigenvalues --    1.71404   1.72209   1.72238   1.72441   1.72546
 Alpha virt. eigenvalues --    1.73051   1.73299   1.73644   1.74008   1.74302
 Alpha virt. eigenvalues --    1.74799   1.75288   1.75555   1.75654   1.76058
 Alpha virt. eigenvalues --    1.77152   1.77482   1.77494   1.78449   1.79454
 Alpha virt. eigenvalues --    1.79850   1.80220   1.80829   1.81733   1.82469
 Alpha virt. eigenvalues --    1.83562   1.83629   1.84216   1.85575   1.86127
 Alpha virt. eigenvalues --    1.86929   1.87293   1.88708   1.88957   1.89394
 Alpha virt. eigenvalues --    1.90231   1.90718   1.90741   1.91736   1.93296
 Alpha virt. eigenvalues --    1.93411   1.93892   1.94931   1.95096   1.95654
 Alpha virt. eigenvalues --    1.97427   1.98039   1.98271   1.99007   2.00155
 Alpha virt. eigenvalues --    2.00231   2.01540   2.01914   2.02177   2.03021
 Alpha virt. eigenvalues --    2.03561   2.04249   2.05221   2.05466   2.05807
 Alpha virt. eigenvalues --    2.05842   2.07345   2.08231   2.09749   2.10107
 Alpha virt. eigenvalues --    2.10652   2.11192   2.12536   2.12891   2.12897
 Alpha virt. eigenvalues --    2.14135   2.14870   2.15216   2.15381   2.15538
 Alpha virt. eigenvalues --    2.16091   2.16866   2.18070   2.18181   2.18286
 Alpha virt. eigenvalues --    2.18478   2.19024   2.19247   2.19964   2.20217
 Alpha virt. eigenvalues --    2.21390   2.21757   2.21858   2.22287   2.23221
 Alpha virt. eigenvalues --    2.24173   2.24759   2.25294   2.26538   2.27129
 Alpha virt. eigenvalues --    2.27260   2.28042   2.28093   2.29382   2.30203
 Alpha virt. eigenvalues --    2.32261   2.32370   2.33067   2.33891   2.34688
 Alpha virt. eigenvalues --    2.35647   2.36375   2.36764   2.38393   2.38993
 Alpha virt. eigenvalues --    2.40263   2.40347   2.40533   2.43201   2.44243
 Alpha virt. eigenvalues --    2.44455   2.45977   2.46353   2.47841   2.48061
 Alpha virt. eigenvalues --    2.48372   2.48719   2.49699   2.50223   2.51478
 Alpha virt. eigenvalues --    2.51541   2.52213   2.52804   2.53156   2.54160
 Alpha virt. eigenvalues --    2.54203   2.55046   2.55466   2.56207   2.56687
 Alpha virt. eigenvalues --    2.57423   2.57906   2.59100   2.59582   2.60456
 Alpha virt. eigenvalues --    2.60675   2.61268   2.61637   2.62003   2.62045
 Alpha virt. eigenvalues --    2.62423   2.62789   2.63118   2.64154   2.64490
 Alpha virt. eigenvalues --    2.64585   2.65135   2.65853   2.66476   2.66930
 Alpha virt. eigenvalues --    2.66953   2.67285   2.67690   2.67929   2.68316
 Alpha virt. eigenvalues --    2.68553   2.68578   2.68820   2.69302   2.69805
 Alpha virt. eigenvalues --    2.70265   2.70663   2.71093   2.71317   2.71791
 Alpha virt. eigenvalues --    2.72169   2.73011   2.73465   2.73838   2.74242
 Alpha virt. eigenvalues --    2.74449   2.75245   2.75376   2.75647   2.75686
 Alpha virt. eigenvalues --    2.76304   2.77288   2.77364   2.78025   2.78795
 Alpha virt. eigenvalues --    2.78879   2.79633   2.79882   2.80002   2.80560
 Alpha virt. eigenvalues --    2.80731   2.80978   2.81561   2.81829   2.82232
 Alpha virt. eigenvalues --    2.82396   2.83391   2.83736   2.84141   2.84245
 Alpha virt. eigenvalues --    2.84747   2.85212   2.85218   2.85536   2.86261
 Alpha virt. eigenvalues --    2.86539   2.87682   2.87933   2.88410   2.88548
 Alpha virt. eigenvalues --    2.88857   2.88978   2.89475   2.89548   2.90210
 Alpha virt. eigenvalues --    2.90710   2.90718   2.91545   2.91562   2.92096
 Alpha virt. eigenvalues --    2.92285   2.93548   2.93679   2.94292   2.94666
 Alpha virt. eigenvalues --    2.95750   2.96847   2.97080   2.97287   2.97633
 Alpha virt. eigenvalues --    2.97824   2.98451   2.98483   2.98888   2.99128
 Alpha virt. eigenvalues --    2.99958   2.99996   3.00641   3.01566   3.01705
 Alpha virt. eigenvalues --    3.01802   3.02475   3.02564   3.02702   3.04252
 Alpha virt. eigenvalues --    3.04308   3.05087   3.05371   3.06537   3.06901
 Alpha virt. eigenvalues --    3.07183   3.07758   3.08703   3.09229   3.09711
 Alpha virt. eigenvalues --    3.09841   3.09875   3.10639   3.11081   3.11109
 Alpha virt. eigenvalues --    3.11724   3.11939   3.12498   3.13112   3.13598
 Alpha virt. eigenvalues --    3.13970   3.14128   3.14375   3.14553   3.14935
 Alpha virt. eigenvalues --    3.15023   3.15135   3.15701   3.15848   3.16551
 Alpha virt. eigenvalues --    3.17335   3.18016   3.18087   3.18586   3.19326
 Alpha virt. eigenvalues --    3.19814   3.20667   3.20780   3.21310   3.21367
 Alpha virt. eigenvalues --    3.21955   3.21959   3.22456   3.23420   3.23440
 Alpha virt. eigenvalues --    3.24224   3.25613   3.26030   3.26602   3.26631
 Alpha virt. eigenvalues --    3.26895   3.27501   3.27793   3.28144   3.28347
 Alpha virt. eigenvalues --    3.28792   3.30033   3.30040   3.30318   3.30567
 Alpha virt. eigenvalues --    3.30790   3.30860   3.31191   3.31802   3.32101
 Alpha virt. eigenvalues --    3.32442   3.33093   3.33354   3.34403   3.34872
 Alpha virt. eigenvalues --    3.35313   3.35385   3.36079   3.36733   3.36956
 Alpha virt. eigenvalues --    3.37202   3.37639   3.37740   3.37973   3.38228
 Alpha virt. eigenvalues --    3.38493   3.39048   3.39379   3.39636   3.40876
 Alpha virt. eigenvalues --    3.41056   3.41677   3.42070   3.42415   3.42745
 Alpha virt. eigenvalues --    3.43054   3.43331   3.44006   3.44386   3.44910
 Alpha virt. eigenvalues --    3.45313   3.45498   3.45944   3.46324   3.46600
 Alpha virt. eigenvalues --    3.47133   3.47257   3.47891   3.48341   3.48409
 Alpha virt. eigenvalues --    3.49050   3.49595   3.49610   3.50156   3.50378
 Alpha virt. eigenvalues --    3.51100   3.51370   3.51717   3.51858   3.52067
 Alpha virt. eigenvalues --    3.52668   3.52900   3.53432   3.53934   3.53936
 Alpha virt. eigenvalues --    3.54450   3.55961   3.56052   3.56968   3.58295
 Alpha virt. eigenvalues --    3.59571   3.59784   3.60127   3.60430   3.62031
 Alpha virt. eigenvalues --    3.63210   3.63216   3.64088   3.65107   3.65748
 Alpha virt. eigenvalues --    3.66200   3.66535   3.66872   3.67077   3.67443
 Alpha virt. eigenvalues --    3.67953   3.68942   3.69163   3.70138   3.70799
 Alpha virt. eigenvalues --    3.71716   3.72397   3.73635   3.73737   3.74466
 Alpha virt. eigenvalues --    3.74855   3.75207   3.76981   3.78882   3.78922
 Alpha virt. eigenvalues --    3.79095   3.80613   3.81733   3.83338   3.84932
 Alpha virt. eigenvalues --    3.86125   3.87114   3.87690   3.89183   3.89944
 Alpha virt. eigenvalues --    3.90110   3.90437   3.91616   3.92818   3.93447
 Alpha virt. eigenvalues --    3.93621   3.94246   3.95591   3.95767   3.96368
 Alpha virt. eigenvalues --    3.97741   3.97926   3.98815   4.01123   4.01160
 Alpha virt. eigenvalues --    4.01290   4.02088   4.02211   4.03019   4.04502
 Alpha virt. eigenvalues --    4.04539   4.05032   4.07224   4.08306   4.08904
 Alpha virt. eigenvalues --    4.09392   4.10392   4.10456   4.11061   4.11451
 Alpha virt. eigenvalues --    4.11926   4.12130   4.12726   4.13400   4.13507
 Alpha virt. eigenvalues --    4.13997   4.14321   4.15357   4.15567   4.16652
 Alpha virt. eigenvalues --    4.16668   4.16801   4.16856   4.17834   4.17967
 Alpha virt. eigenvalues --    4.18769   4.18827   4.19481   4.19747   4.20340
 Alpha virt. eigenvalues --    4.20693   4.21657   4.22610   4.23294   4.24229
 Alpha virt. eigenvalues --    4.24636   4.25274   4.26104   4.26744   4.26997
 Alpha virt. eigenvalues --    4.27679   4.28488   4.28734   4.29196   4.30579
 Alpha virt. eigenvalues --    4.31938   4.32417   4.33914   4.34920   4.36137
 Alpha virt. eigenvalues --    4.36478   4.39751   4.42210   4.42938   4.44174
 Alpha virt. eigenvalues --    4.45164   4.46228   4.46789   4.48243   4.49321
 Alpha virt. eigenvalues --    4.52992   4.53339   4.53386   4.55008   4.57089
 Alpha virt. eigenvalues --    4.57539   4.57979   4.58521   4.58909   4.60875
 Alpha virt. eigenvalues --    4.62444   4.63133   4.64943   4.65076   4.65587
 Alpha virt. eigenvalues --    4.65875   4.66832   4.67272   4.69815   4.70801
 Alpha virt. eigenvalues --    4.70919   4.71129   4.73174   4.74484   4.76451
 Alpha virt. eigenvalues --    4.76821   4.77496   4.78771   4.81447   4.82128
 Alpha virt. eigenvalues --    4.82355   4.83941   4.86087   4.87918   4.88959
 Alpha virt. eigenvalues --    4.90447   4.90961   4.91954   4.93872   4.97272
 Alpha virt. eigenvalues --    5.00255   5.02346   5.03824   5.04596   5.07736
 Alpha virt. eigenvalues --    5.08382   5.09656   5.12536   5.13208   5.13917
 Alpha virt. eigenvalues --    5.13956   5.15125   5.16335   5.17745   5.20059
 Alpha virt. eigenvalues --    5.20764   5.22090   5.22707   5.24536   5.25652
 Alpha virt. eigenvalues --    5.25791   5.30648   5.33336   5.33932   5.35099
 Alpha virt. eigenvalues --    5.37238   5.38018   5.41350   5.41869   5.46478
 Alpha virt. eigenvalues --    5.49371   5.50133   5.50509   5.52854   5.56318
 Alpha virt. eigenvalues --    5.56546   5.59840   5.63230   5.64600   5.65931
 Alpha virt. eigenvalues --    5.70862   5.75657   5.80631   5.81501   5.84918
 Alpha virt. eigenvalues --    5.88653   5.96691   6.11494   6.18452   6.31254
 Alpha virt. eigenvalues --    6.42058   6.43640   6.49001   6.58772   6.62711
 Alpha virt. eigenvalues --    6.81060   6.83724   6.86744   6.97987   7.11316
 Alpha virt. eigenvalues --    7.22394   7.37533   7.45038  22.25824  22.35279
 Alpha virt. eigenvalues --   22.40295  22.60063  22.64904  22.66772  22.67807
 Alpha virt. eigenvalues --   22.70020  22.72765  22.76548  22.76828  22.79353
 Alpha virt. eigenvalues --   22.82261  22.83419  22.86689  22.89791  22.93115
 Alpha virt. eigenvalues --   22.99264  22.99889  23.06757  23.10441  23.16209
 Alpha virt. eigenvalues --   23.25930  23.29807  23.30671  23.39726  23.54312
 Alpha virt. eigenvalues --   23.62075  23.85197  24.01965  24.31159  44.20060
 Alpha virt. eigenvalues --   44.64215
          Condensed to atoms (all electrons):
 Mulliken charges:
               1
     1  C   -0.156674
     2  C   -0.244212
     3  C    0.067877
     4  C    0.089859
     5  C   -0.238178
     6  C   -0.188899
     7  C   -0.278102
     8  C    0.109102
     9  C   -0.099683
    10  C    0.116603
    11  C    0.082956
    12  C    0.184637
    13  C    0.334726
    14  H    0.194678
    15  H    0.189215
    16  H    0.183230
    17  H    0.212556
    18  H    0.189928
    19  C   -0.097336
    20  C   -0.198933
    21  C   -0.198921
    22  C   -0.182416
    23  H    0.190346
    24  C   -0.182414
    25  H    0.190344
    26  C   -0.181653
    27  H    0.184707
    28  H    0.184707
    29  H    0.185610
    30  O   -0.325308
    31  O   -0.221126
    32  C   -0.241265
    33  C   -0.263250
    34  C    0.049186
    35  C   -0.212194
    36  H    0.196590
    37  H    0.200199
    38  H    0.203593
    39  C   -0.050561
    40  C   -0.020607
    41  C    0.038495
    42  C   -0.204489
    43  C   -0.204101
    44  C   -0.190517
    45  H    0.194591
    46  C   -0.190589
    47  H    0.194905
    48  C   -0.164166
    49  H    0.188867
    50  H    0.188910
    51  H    0.189176
 Sum of Mulliken charges =  -0.00000
 Mulliken charges with hydrogens summed into heavy atoms:
               1
     1  C    0.032541
     2  C   -0.060982
     3  C    0.067877
     4  C    0.089859
     5  C   -0.025622
     6  C    0.001029
     7  C   -0.083424
     8  C    0.109102
     9  C   -0.099683
    10  C    0.116603
    11  C    0.082956
    12  C    0.184637
[...]
 Alpha virt. eigenvalues --    0.68127   0.68718   0.69154   0.69260   0.69370
 Alpha virt. eigenvalues --    0.69835   0.70170   0.70266   0.71086   0.71398
 Alpha virt. eigenvalues --    0.71696   0.71803   0.72153   0.72790   0.73096
 Alpha virt. eigenvalues --    0.73222   0.73645   0.73935   0.74250   0.74580
 Alpha virt. eigenvalues --    0.74690   0.74762   0.75236   0.75961   0.76545
 Alpha virt. eigenvalues --    0.76795   0.76943   0.77075   0.77720   0.78013
 Alpha virt. eigenvalues --    0.78162   0.78375   0.78882   0.79526   0.79651
 Alpha virt. eigenvalues --    0.79942   0.79954   0.80719   0.81494   0.82035
 Alpha virt. eigenvalues --    0.82598   0.82812   0.83537   0.83601   0.83959
 Alpha virt. eigenvalues --    0.84632   0.84745   0.84789   0.85031   0.85519
 Alpha virt. eigenvalues --    0.87217   0.87805   0.88073   0.88171   0.88550
 Alpha virt. eigenvalues --    0.88574   0.89206   0.89508   0.89579   0.89756
 Alpha virt. eigenvalues --    0.90661   0.90942   0.91077   0.91126   0.91508
 Alpha virt. eigenvalues --    0.92534   0.93027   0.93102   0.93373   0.93905
 Alpha virt. eigenvalues --    0.93987   0.94400   0.94766   0.95812   0.95980
 Alpha virt. eigenvalues --    0.96397   0.97651   0.98607   0.98733   0.99067
 Alpha virt. eigenvalues --    1.00760   1.01405   1.02443   1.02718   1.03430
 Alpha virt. eigenvalues --    1.03843   1.04019   1.04837   1.05345   1.05381
 Alpha virt. eigenvalues --    1.06124   1.06564   1.07485   1.08135   1.08455
 Alpha virt. eigenvalues --    1.08885   1.09848   1.10348   1.10545   1.11050
 Alpha virt. eigenvalues --    1.11505   1.12464   1.12520   1.13349   1.13679
 Alpha virt. eigenvalues --    1.14888   1.16074   1.16423   1.16613   1.17020
 Alpha virt. eigenvalues --    1.17168   1.17724   1.18834   1.18926   1.19127
 Alpha virt. eigenvalues --    1.20591   1.21154   1.21670   1.22592   1.23246
 Alpha virt. eigenvalues --    1.23556   1.24349   1.24737   1.24906   1.25565
 Alpha virt. eigenvalues --    1.25678   1.26353   1.26808   1.27317   1.27691
 Alpha virt. eigenvalues --    1.28024   1.28060   1.28857   1.29466   1.29537
 Alpha virt. eigenvalues --    1.29971   1.30543   1.31313   1.31870   1.32617
 Alpha virt. eigenvalues --    1.32904   1.33097   1.34535   1.34777   1.34956
 Alpha virt. eigenvalues --    1.35299   1.36022   1.36488   1.36909   1.37301
 Alpha virt. eigenvalues --    1.38735   1.39088   1.39306   1.40337   1.41181
 Alpha virt. eigenvalues --    1.41675   1.42363   1.42910   1.43615   1.43988
 Alpha virt. eigenvalues --    1.44392   1.44904   1.45526   1.46300   1.46676
 Alpha virt. eigenvalues --    1.47583   1.47624   1.48288   1.48532   1.49040
 Alpha virt. eigenvalues --    1.49782   1.50528   1.50670   1.50930   1.51073
 Alpha virt. eigenvalues --    1.51976   1.52385   1.52768   1.53991   1.54148
 Alpha virt. eigenvalues --    1.54236   1.54319   1.54631   1.54795   1.55457
 Alpha virt. eigenvalues --    1.56279   1.56403   1.56808   1.56832   1.57222
 Alpha virt. eigenvalues --    1.57365   1.58646   1.58955   1.60320   1.60466
 Alpha virt. eigenvalues --    1.61636   1.62258   1.62532   1.62954   1.63183
 Alpha virt. eigenvalues --    1.63278   1.64658   1.64958   1.65253   1.65968
 Alpha virt. eigenvalues --    1.65989   1.66877   1.67544   1.68292   1.68447
 Alpha virt. eigenvalues --    1.69101   1.69409   1.70522   1.70628   1.71833
 Alpha virt. eigenvalues --    1.72073   1.72742   1.72761   1.72950   1.73223
 Alpha virt. eigenvalues --    1.73482   1.73853   1.74261   1.74473   1.74876
 Alpha virt. eigenvalues --    1.75384   1.76188   1.76402   1.76612   1.76887
 Alpha virt. eigenvalues --    1.77861   1.78121   1.78267   1.79357   1.80312
 Alpha virt. eigenvalues --    1.80709   1.80953   1.81470   1.82571   1.82918
 Alpha virt. eigenvalues --    1.84104   1.84190   1.84689   1.86196   1.86681
 Alpha virt. eigenvalues --    1.87470   1.88032   1.89320   1.89564   1.90155
 Alpha virt. eigenvalues --    1.90836   1.91439   1.91597   1.92477   1.93813
 Alpha virt. eigenvalues --    1.94437   1.94825   1.95710   1.95849   1.95958
 Alpha virt. eigenvalues --    1.98278   1.99009   1.99397   2.00052   2.00681
 Alpha virt. eigenvalues --    2.01405   2.02110   2.02575   2.02793   2.03900
 Alpha virt. eigenvalues --    2.04020   2.04260   2.06321   2.06461   2.06606
 Alpha virt. eigenvalues --    2.07168   2.08658   2.08895   2.10087   2.10850
 Alpha virt. eigenvalues --    2.11260   2.12373   2.13023   2.13656   2.13975
 Alpha virt. eigenvalues --    2.14854   2.15070   2.16211   2.16218   2.16492
 Alpha virt. eigenvalues --    2.17003   2.17632   2.18581   2.18972   2.19081
 Alpha virt. eigenvalues --    2.19573   2.19956   2.20507   2.21080   2.21512
 Alpha virt. eigenvalues --    2.22494   2.22781   2.23107   2.23572   2.24263
 Alpha virt. eigenvalues --    2.25047   2.25730   2.26267   2.27755   2.27830
 Alpha virt. eigenvalues --    2.28054   2.28805   2.29403   2.30358   2.31092
 Alpha virt. eigenvalues --    2.32941   2.32948   2.34121   2.34670   2.35996
 Alpha virt. eigenvalues --    2.36431   2.37350   2.38034   2.39416   2.40268
 Alpha virt. eigenvalues --    2.40945   2.41456   2.41459   2.44763   2.44951
 Alpha virt. eigenvalues --    2.45303   2.45794   2.47123   2.48627   2.48835
 Alpha virt. eigenvalues --    2.49241   2.49528   2.50408   2.51034   2.51935
 Alpha virt. eigenvalues --    2.52177   2.52766   2.53342   2.54027   2.54568
 Alpha virt. eigenvalues --    2.55060   2.55914   2.56702   2.57087   2.57747
 Alpha virt. eigenvalues --    2.58331   2.58731   2.60259   2.60931   2.61362
 Alpha virt. eigenvalues --    2.61872   2.62262   2.62421   2.62701   2.63313
 Alpha virt. eigenvalues --    2.63904   2.64006   2.64369   2.65258   2.65470
 Alpha virt. eigenvalues --    2.65900   2.66531   2.66764   2.67561   2.68003
 Alpha virt. eigenvalues --    2.68517   2.68579   2.68731   2.68903   2.69375
 Alpha virt. eigenvalues --    2.69422   2.69802   2.70016   2.70186   2.70954
 Alpha virt. eigenvalues --    2.71004   2.71513   2.71577   2.72573   2.72725
 Alpha virt. eigenvalues --    2.73576   2.73603   2.74306   2.74360   2.74839
 Alpha virt. eigenvalues --    2.75475   2.75482   2.76225   2.76553   2.76867
 Alpha virt. eigenvalues --    2.77443   2.77489   2.78265   2.78558   2.78831
 Alpha virt. eigenvalues --    2.80071   2.80494   2.80987   2.80989   2.81399
 Alpha virt. eigenvalues --    2.81672   2.82005   2.82330   2.82605   2.82804
 Alpha virt. eigenvalues --    2.83758   2.84372   2.84623   2.85105   2.85208
 Alpha virt. eigenvalues --    2.86052   2.86411   2.86501   2.87120   2.87125
 Alpha virt. eigenvalues --    2.87691   2.88903   2.88935   2.89234   2.89300
 Alpha virt. eigenvalues --    2.89731   2.89835   2.89953   2.90487   2.90736
 Alpha virt. eigenvalues --    2.90958   2.92001   2.92046   2.92841   2.92960
 Alpha virt. eigenvalues --    2.93692   2.94060   2.94586   2.94690   2.95781
 Alpha virt. eigenvalues --    2.96111   2.97151   2.97676   2.97781   2.98106
 Alpha virt. eigenvalues --    2.98261   2.98576   2.98817   2.99095   3.00089
 Alpha virt. eigenvalues --    3.00302   3.01203   3.01967   3.02072   3.02236
 Alpha virt. eigenvalues --    3.02423   3.02914   3.03707   3.03809   3.04726
 Alpha virt. eigenvalues --    3.05411   3.05845   3.06572   3.07027   3.07907
 Alpha virt. eigenvalues --    3.08209   3.08519   3.09516   3.09714   3.10050
 Alpha virt. eigenvalues --    3.10347   3.10574   3.11280   3.11488   3.11732
 Alpha virt. eigenvalues --    3.11983   3.12851   3.13429   3.13912   3.14636
 Alpha virt. eigenvalues --    3.14768   3.14993   3.15204   3.15480   3.15650
 Alpha virt. eigenvalues --    3.15783   3.16385   3.16502   3.16750   3.17394
 Alpha virt. eigenvalues --    3.18306   3.18423   3.18829   3.19340   3.20654
 Alpha virt. eigenvalues --    3.21206   3.21287   3.21451   3.22147   3.22478
 Alpha virt. eigenvalues --    3.22711   3.22975   3.23282   3.23907   3.24792
 Alpha virt. eigenvalues --    3.25293   3.26430   3.27131   3.27149   3.27251
 Alpha virt. eigenvalues --    3.27450   3.28904   3.28972   3.29311   3.29544
 Alpha virt. eigenvalues --    3.29767   3.30558   3.30711   3.31302   3.31535
 Alpha virt. eigenvalues --    3.31767   3.32137   3.32274   3.32543   3.32969
 Alpha virt. eigenvalues --    3.33528   3.34131   3.34310   3.35518   3.36145
 Alpha virt. eigenvalues --    3.36151   3.36374   3.37099   3.37256   3.37727
 Alpha virt. eigenvalues --    3.38329   3.38383   3.38805   3.38979   3.39280
 Alpha virt. eigenvalues --    3.39398   3.40049   3.40312   3.40718   3.41688
 Alpha virt. eigenvalues --    3.41860   3.42601   3.42910   3.43306   3.43941
 Alpha virt. eigenvalues --    3.44292   3.44459   3.44546   3.45485   3.46181
 Alpha virt. eigenvalues --    3.46234   3.46274   3.47039   3.47179   3.47638
 Alpha virt. eigenvalues --    3.48059   3.48397   3.48981   3.49715   3.50023
 Alpha virt. eigenvalues --    3.50133   3.50255   3.50797   3.51356   3.51624
 Alpha virt. eigenvalues --    3.52297   3.52769   3.53432   3.53521   3.53584
 Alpha virt. eigenvalues --    3.54290   3.54520   3.54754   3.55266   3.55739
 Alpha virt. eigenvalues --    3.55959   3.57702   3.57842   3.57856   3.59578
 Alpha virt. eigenvalues --    3.61021   3.61082   3.61397   3.61788   3.63206
 Alpha virt. eigenvalues --    3.63994   3.64349   3.65749   3.66155   3.66609
 Alpha virt. eigenvalues --    3.67007   3.67823   3.67925   3.68185   3.68418
 Alpha virt. eigenvalues --    3.68862   3.70097   3.70390   3.71805   3.72413
 Alpha virt. eigenvalues --    3.72590   3.74361   3.75311   3.75465   3.75797
 Alpha virt. eigenvalues --    3.76715   3.77163   3.79174   3.80394   3.80777
 Alpha virt. eigenvalues --    3.81176   3.82076   3.83577   3.85180   3.86767
 Alpha virt. eigenvalues --    3.88070   3.89164   3.89349   3.90854   3.91819
 Alpha virt. eigenvalues --    3.91890   3.92379   3.93683   3.94638   3.95582
 Alpha virt. eigenvalues --    3.95760   3.96208   3.97328   3.97655   3.98799
 Alpha virt. eigenvalues --    3.99477   4.00064   4.01014   4.02711   4.03131
 Alpha virt. eigenvalues --    4.03441   4.04386   4.04964   4.05234   4.06596
 Alpha virt. eigenvalues --    4.06919   4.07075   4.09396   4.10621   4.11104
 Alpha virt. eigenvalues --    4.11557   4.11736   4.12677   4.12844   4.13280
 Alpha virt. eigenvalues --    4.13897   4.14160   4.14812   4.15756   4.15778
 Alpha virt. eigenvalues --    4.16204   4.16492   4.17428   4.17620   4.18454
 Alpha virt. eigenvalues --    4.18607   4.18794   4.19595   4.19903   4.20000
 Alpha virt. eigenvalues --    4.20620   4.20710   4.21722   4.21795   4.22659
 Alpha virt. eigenvalues --    4.22922   4.23968   4.24898   4.25522   4.26686
 Alpha virt. eigenvalues --    4.27091   4.27505   4.28308   4.29327   4.29723
 Alpha virt. eigenvalues --    4.30254   4.30591   4.31270   4.31510   4.33046
 Alpha virt. eigenvalues --    4.34473   4.34701   4.36477   4.37133   4.38562
 Alpha virt. eigenvalues --    4.38681   4.42585   4.44523   4.45466   4.46876
 Alpha virt. eigenvalues --    4.47546   4.48701   4.49163   4.50637   4.52023
 Alpha virt. eigenvalues --    4.54956   4.55360   4.56000   4.56891   4.59662
 Alpha virt. eigenvalues --    4.59783   4.60043   4.60845   4.61132   4.63563
 Alpha virt. eigenvalues --    4.63576   4.65593   4.66366   4.67002   4.67480
 Alpha virt. eigenvalues --    4.68248   4.68964   4.69423   4.70636   4.72188
 Alpha virt. eigenvalues --    4.72740   4.74053   4.75527   4.77662   4.79007
 Alpha virt. eigenvalues --    4.80042   4.80647   4.81264   4.84138   4.85383
 Alpha virt. eigenvalues --    4.85608   4.86120   4.87990   4.89175   4.90097
 Alpha virt. eigenvalues --    4.92580   4.93752   4.94287   4.96294   4.98839
 Alpha virt. eigenvalues --    5.01786   5.04387   5.04901   5.06103   5.09285
 Alpha virt. eigenvalues --    5.11444   5.12326   5.14227   5.16710   5.16979
 Alpha virt. eigenvalues --    5.17660   5.18241   5.18927   5.21102   5.22042
 Alpha virt. eigenvalues --    5.22711   5.23940   5.25011   5.26393   5.27209
 Alpha virt. eigenvalues --    5.27602   5.32538   5.34606   5.35840   5.37198
 Alpha virt. eigenvalues --    5.38697   5.40724   5.43503   5.45156   5.48465
 Alpha virt. eigenvalues --    5.51070   5.51071   5.53645   5.54927   5.57899
 Alpha virt. eigenvalues --    5.58994   5.61958   5.65157   5.66821   5.68134
 Alpha virt. eigenvalues --    5.73589   5.79191   5.83476   5.84090   5.86267
 Alpha virt. eigenvalues --    5.90119   6.00047   6.13507   6.19950   6.32951
 Alpha virt. eigenvalues --    6.42640   6.45396   6.52144   6.59445   6.63703
 Alpha virt. eigenvalues --    6.81569   6.84229   6.87365   6.99730   7.12253
 Alpha virt. eigenvalues --    7.24263   7.39151   7.45917  22.27003  22.37182
 Alpha virt. eigenvalues --   22.42268  22.63395  22.69630  22.71639  22.72460
 Alpha virt. eigenvalues --   22.74137  22.76834  22.82412  22.82436  22.83510
 Alpha virt. eigenvalues --   22.87251  22.89272  22.92272  22.95344  22.97895
 Alpha virt. eigenvalues --   23.04427  23.05560  23.12777  23.14933  23.22020
 Alpha virt. eigenvalues --   23.32285  23.35877  23.36422  23.45749  23.60948
 Alpha virt. eigenvalues --   23.67951  23.88638  24.07567  24.31864  44.20865
 Alpha virt. eigenvalues --   44.66047
          Condensed to atoms (all electrons):
 Mulliken charges:
               1
     1  C   -0.155070
     2  C   -0.247369
     3  C    0.079686
     4  C    0.092338
     5  C   -0.243201
     6  C   -0.187354
     7  C   -0.284975
     8  C    0.111172
     9  C   -0.100408
    10  C    0.123403
    11  C    0.096393
    12  C    0.189355
    13  C    0.332980
    14  H    0.193142
    15  H    0.186431
    16  H    0.179794
    17  H    0.210622
    18  H    0.187242
    19  C   -0.088679
    20  C   -0.200653
    21  C   -0.200658
    22  C   -0.181552
    23  H    0.188203
    24  C   -0.181550
    25  H    0.188203
    26  C   -0.178728
    27  H    0.182344
    28  H    0.182344
    29  H    0.183289
    30  O   -0.332045
    31  O   -0.218758
    32  C   -0.245723
    33  C   -0.268597
    34  C    0.059953
    35  C   -0.212282
    36  H    0.194486
    37  H    0.197590
    38  H    0.202348
    39  C   -0.047346
    40  C   -0.025683
    41  C    0.045614
    42  C   -0.205310
    43  C   -0.205474
    44  C   -0.188537
    45  H    0.192621
    46  C   -0.188164
    47  H    0.192807
    48  C   -0.163371
    49  H    0.186376
    50  H    0.186391
    51  H    0.186360
 Sum of Mulliken charges =  -0.00000
 Mulliken charges with hydrogens summed into heavy atoms:
               1
     1  C    0.031362
     2  C   -0.067576
     3  C    0.079686
     4  C    0.092338
     5  C   -0.032579
     6  C   -0.000112
     7  C   -0.091833
     8  C    0.111172
     9  C   -0.100408
    10  C    0.123403
    11  C    0.096393
    12  C    0.189355
    13  C    0.332980
    19  C   -0.088679
    20  C   -0.012451
    21  C   -0.012455
    22  C    0.000792
    24  C    0.000794
    26  C    0.004561
    30  O   -0.332045
    31  O   -0.218758
    32  C   -0.048133
    33  C   -0.066249
    34  C    0.059953
    35  C   -0.017796
    39  C   -0.047346
    40  C   -0.025683
    41  C    0.045614
    42  C   -0.012689
    43  C   -0.012667
    44  C   -0.002161
    46  C   -0.001773
    48  C    0.022989
 Electronic spatial extent (au):  <R**2>=          23866.8905
 Charge=              0.0000 electrons
 Dipole moment (field-independent basis, Debye):
    X=              0.1938    Y=              6.3079    Z=             -0.0002  Tot=              6.3109
 Quadrupole moment (field-independent basis, Debye-Ang):
   XX=           -134.4920   YY=           -169.4183   ZZ=           -191.7756
   XY=            -10.3365   XZ=             -0.0012   YZ=             -0.0004
 Traceless Quadrupole moment (field-independent basis, Debye-Ang):
   XX=             30.7366   YY=             -4.1897   ZZ=            -26.5470
   XY=            -10.3365   XZ=             -0.0012   YZ=             -0.0004
 Octapole moment (field-independent basis, Debye-Ang**2):
  XXX=            257.9607  YYY=             92.3009  ZZZ=              0.0006  XYY=             -4.2983
  XXY=             -6.9837  XXZ=             -0.0194  XZZ=            -57.2252  YZZ=            -31.0422
  YYZ=             -0.0013  XYZ=              0.0020
 Hexadecapole moment (field-independent basis, Debye-Ang**3):
 XXXX=         -22846.8924 YYYY=          -3888.8589 ZZZZ=           -441.7695 XXXY=           -206.7606
 XXXZ=             -0.1511 YYYX=           -220.9461 YYYZ=              0.0088 ZZZX=              0.0093
 ZZZY=              0.0171 XXYY=          -4542.8531 XXZZ=          -5230.3695 YYZZ=           -808.7756
 XXYZ=              0.0006 YYXZ=              0.0046 ZZXY=            136.1905
 N-N= 2.788831743345D+03 E-N=-8.698057859056D+03  KE= 1.336044027148D+03
 Leave Link  601 at Tue Feb 23 18:17:08 2021, MaxMem=  5242880000 cpu:         7.8
 (Enter /opt/nce/packages/global/g09/l9999.exe)
 1\1\GINC-CN079\SP\RM062X TD-FC\Gen\C31H18O2\PNG4RJV\23-Feb-2021\0\\#p 
 m062x chkbasis geom=allcheck Guess=Read int=ultrafine scrf=(SMD,solven
 t=Acetonitrile) td=(NStates=30)\\Title\\0,1\C,0,5.1717206207,3.7707389
 966,0.0000570035\C,0,3.8124514855,3.6543090761,0.0000430913\C,0,3.1982
 439901,2.3750143855,0.0000174984\C,0,4.0084538481,1.2092297662,0.00000
 84952\C,0,5.4215524097,1.3679139922,0.000021829\C,0,5.983952395,2.6126
 945767,0.0000456298\C,0,1.7980207475,2.2494388202,-0.0000015843\C,0,3.
 386116333,-0.0722377946,-0.0000141956\C,0,2.0026190123,-0.1591420106,-
 0.0000302678\C,0,1.1917894236,1.0189288777,-0.0000273507\C,0,-0.265157
 4494,0.8743409525,-0.0000529308\C,0,-0.8050024365,-0.4063205802,-0.000
 0719539\C,0,1.3465875755,-1.4892859494,-0.0000448042\H,0,1.2118295509,
 3.1583194969,0.000004033\H,0,5.6353285194,4.7491401208,0.0000761449\H,
 0,3.1772578328,4.5320244377,0.0000501051\H,0,6.0557749402,0.4919159287
 ,0.0000128736\H,0,7.0614062058,2.717498859,0.0000555285\C,0,4.28308900
 2,-1.263609539,-0.0000237449\C,0,4.7356884623,-1.7980576692,-1.2019478
 302\C,0,4.7357234206,-1.7980518276,1.2018898894\C,0,5.6138743101,-2.87
 37168592,-1.2016713621\H,0,4.3937991953,-1.373626048,-2.1387267312\C,0
 ,5.6139083254,-2.873711958,1.2015933913\H,0,4.3938623037,-1.3736148727
 ,2.1386766765\C,0,6.0531939496,-3.4160253308,-0.0000439781\H,0,5.95745
 21448,-3.2867833312,-2.1419771089\H,0,5.9575120616,-3.2867745644,2.141
 8913692\H,0,6.7384827352,-4.2543742899,-0.0000519534\O,0,1.8987844933,
 -2.5538305652,-0.0000257611\O,0,-0.0127511418,-1.5200692343,-0.0000647
 234\C,0,-1.1660589729,1.947014722,-0.0000622194\C,0,-2.1694445671,-0.6
 426467155,-0.0000969175\C,0,-3.0461695242,0.4372622612,-0.0001031556\C
 ,0,-2.5279816578,1.7411740136,-0.0000866852\H,0,-3.2056338277,2.584198
 4547,-0.0000933864\H,0,-0.7972169037,2.9629759124,-0.0000503186\H,0,-2
 .5335722466,-1.6612089493,-0.0001104886\C,0,-4.4578192682,0.2219991121
 ,-0.0001315356\C,0,-5.6512563056,0.0505852405,-0.0001425053\C,0,-7.067
 1276037,-0.1481626627,-0.0000477916\C,0,-7.9314463766,0.952042034,0.00
 0004296\C,0,-7.5981445339,-1.4424246491,-0.0000154119\C,0,-9.303220051
 6,0.7561206951,0.0000875404\H,0,-7.519084933,1.9528706848,-0.000022329
 7\C,0,-8.9713960868,-1.6282862645,0.0000678012\H,0,-6.9282248043,-2.29
 268345,-0.0000575388\C,0,-9.8262082692,-0.5319562333,0.0001204574\H,0,
 -9.9664513031,1.6117931258,0.0001275034\H,0,-9.375807014,-2.6324937499
 ,0.0000920999\H,0,-10.898480016,-0.6813444444,0.0001863081\\Version=ES
 64L-G09RevE.01\State=1-A\HF=-1342.5632152\RMSD=8.187e-09\PG=C01 [X(C31
 H18O2)]\\@


 We find comfort among those who agree with us -- growth among those who don't.
 -- Frank A. Clark
 Job cpu time:       2 days 11 hours 37 minutes 28.0 seconds.
 File lengths (MBytes):  RWF=   6324 Int=      0 D2E=      0 Chk=   1136 Scr=      1
 Normal termination of Gaussian 09 at Tue Feb 23 18:17:12 2021.
