 Entering Gaussian System, Link 0=g09
 Input=/home/png4rjv/fotokatalizis/benchmark/OPCs/NCE_3_TPSS_def2TZVP.gjf
 Output=/home/png4rjv/fotokatalizis/benchmark/OPCs/NCE_3_TPSS_def2TZVP.log
 Initial command:
 /opt/nce/packages/global/g09/l1.exe "/home/png4rjv/fotokatalizis/benchmark/OPCs/NCE_3_TPSS_def2TZVP/Gau-63415.inp" -scrdir="/home/png4rjv/fotokatalizis/benchmark/OPCs/NCE_3_TPSS_def2TZVP/"
 Default is to use a total of  12 processors:
                               12 via shared-memory
                                1 via Linda
 Entering Link 1 = /opt/nce/packages/global/g09/l1.exe PID=     63416.
  
 Copyright (c) 1988,1990,1992,1993,1995,1998,2003,2009,2015,
            Gaussian, Inc.  All Rights Reserved.
  
 This is part of the Gaussian(R) 09 program.  It is based on
 the Gaussian(R) 03 system (copyright 2003, Gaussian, Inc.),
 the Gaussian(R) 98 system (copyright 1998, Gaussian, Inc.),
 the Gaussian(R) 94 system (copyright 1995, Gaussian, Inc.),
 the Gaussian 92(TM) system (copyright 1992, Gaussian, Inc.),
 the Gaussian 90(TM) system (copyright 1990, Gaussian, Inc.),
 the Gaussian 88(TM) system (copyright 1988, Gaussian, Inc.),
 the Gaussian 86(TM) system (copyright 1986, Carnegie Mellon
 University), and the Gaussian 82(TM) system (copyright 1983,
 Carnegie Mellon University). Gaussian is a federally registered
 trademark of Gaussian, Inc.
  
 This software contains proprietary and confidential information,
 including trade secrets, belonging to Gaussian, Inc.
  
 This software is provided under written license and may be
 used, copied, transmitted, or stored only in accord with that
 written license.
  
 The following legend is applicable only to US Government
 contracts under FAR:
  
                    RESTRICTED RIGHTS LEGEND
  
 Use, reproduction and disclosure by the US Government is
 subject to restrictions as set forth in subparagraphs (a)
 and (c) of the Commercial Computer Software - Restricted
 Rights clause in FAR 52.227-19.
  
 Gaussian, Inc.
 340 Quinnipiac St., Bldg. 40, Wallingford CT 06492
  
  
 ---------------------------------------------------------------
 Warning -- This program may not be used in any manner that
 competes with the business of Gaussian, Inc. or will provide
 assistance to any competitor of Gaussian, Inc.  The licensee
 of this program is prohibited from giving any competitor of
 Gaussian, Inc. access to this program.  By using this program,
 the user acknowledges that Gaussian, Inc. is engaged in the
 business of creating and licensing software in the field of
 computational chemistry and represents and warrants to the
 licensee that it is not a competitor of Gaussian, Inc. and that
 it will not use this program in any manner prohibited above.
 ---------------------------------------------------------------
  

 Cite this work as:
 Gaussian 09, Revision E.01,
 M. J. Frisch, G. W. Trucks, H. B. Schlegel, G. E. Scuseria, 
 M. A. Robb, J. R. Cheeseman, G. Scalmani, V. Barone, B. Mennucci, 
 G. A. Petersson, H. Nakatsuji, M. Caricato, X. Li, H. P. Hratchian, 
 A. F. Izmaylov, J. Bloino, G. Zheng, J. L. Sonnenberg, M. Hada, 
 M. Ehara, K. Toyota, R. Fukuda, J. Hasegawa, M. Ishida, T. Nakajima, 
 Y. Honda, O. Kitao, H. Nakai, T. Vreven, J. A. Montgomery, Jr., 
 J. E. Peralta, F. Ogliaro, M. Bearpark, J. J. Heyd, E. Brothers, 
 K. N. Kudin, V. N. Staroverov, T. Keith, R. Kobayashi, J. Normand, 
 K. Raghavachari, A. Rendell, J. C. Burant, S. S. Iyengar, J. Tomasi, 
 M. Cossi, N. Rega, J. M. Millam, M. Klene, J. E. Knox, J. B. Cross, 
 V. Bakken, C. Adamo, J. Jaramillo, R. Gomperts, R. E. Stratmann, 
 O. Yazyev, A. J. Austin, R. Cammi, C. Pomelli, J. W. Ochterski, 
 R. L. Martin, K. Morokuma, V. G. Zakrzewski, G. A. Voth, 
 P. Salvador, J. J. Dannenberg, S. Dapprich, A. D. Daniels, 
 O. Farkas, J. B. Foresman, J. V. Ortiz, J. Cioslowski, 
 and D. J. Fox, Gaussian, Inc., Wallingford CT, 2013.
 
 ******************************************
 Gaussian 09:  ES64L-G09RevE.01 30-Nov-2015
                30-Mar-2021 
 ******************************************
 %chk=cp.chk
 Default route:  MaxDisk=500GB
 ----------------------------------------------------------------------
 #p TPSSTPSS/def2TZVP opt freq=noraman nosymm int=ultrafine scrf=(SMD,s
 olvent=Acetonitrile)
 ----------------------------------------------------------------------
 1/14=-1,18=20,19=15,26=4,38=1/1,3;
 2/9=110,12=2,15=1,17=6,18=5,40=1/2;
 3/5=44,7=101,11=2,16=1,25=1,30=1,70=32201,71=1,72=2,74=2523,75=-5/1,2,3;
 4//1;
 5/5=2,38=5,53=2/2;
 6/7=2,8=2,9=2,10=2,28=1/1;
 7/30=1/1,2,3,16;
 1/14=-1,18=20,19=15,26=4/3(2);
 2/9=110,15=1/2;
 99//99;
 2/9=110,15=1/2;
 3/5=44,7=101,11=2,16=1,25=1,30=1,70=32205,71=1,72=2,74=2523,75=-5/1,2,3;
 4/5=5,16=3,69=1/1;
 5/5=2,38=5,53=2/2;
 7/30=1/1,2,3,16;
 1/14=-1,18=20,19=15,26=4/3(-5);
 2/9=110,15=1/2;
 6/7=2,8=2,9=2,10=2,19=2,28=1/1;
 99/9=1/99;
 Leave Link    1 at Tue Mar 30 18:38:22 2021, MaxMem=           0 cpu:         2.0
 (Enter /opt/nce/packages/global/g09/l101.exe)
 -----
 Title
 -----
 Symbolic Z-matrix:
 Charge =  0 Multiplicity = 1
 C                     5.22431   3.78773  -0.00001 
 C                     3.85226   3.6795   -0.00001 
 C                     3.22243   2.40223   0.00001 
 C                     4.03518   1.22012   0.00003 
 C                     5.4529    1.37089   0.00002 
 C                     6.03129   2.62119   0.00001 
 C                     1.81753   2.27406   0.00001 
 C                     3.40575  -0.06442   0.00004 
 C                     2.00957  -0.15217   0.00006 
 C                     1.19775   1.03538   0.00004 
 C                    -0.25946   0.89257   0.00003 
 C                    -0.80578  -0.40192   0.00005 
 C                     1.35998  -1.49127   0.00012 
 H                     1.22237   3.18746  -0.00002 
 H                     5.69664   4.77289  -0.00002 
 H                     3.22348   4.5733   -0.00002 
 H                     6.07735   0.47797   0.00003 
 H                     7.11937   2.71699   0.00001 
 C                     4.29589  -1.2642    0. 
 C                     4.74633  -1.81064  -1.20858 
 C                     4.74644  -1.81071   1.20852 
 C                     5.62192  -2.89767  -1.2084 
 H                     4.39981  -1.38363  -2.15242 
 C                     5.62202  -2.89773   1.2082 
 H                     4.39999  -1.38374   2.15241 
 C                     6.06081  -3.44571  -0.00014 
 H                     5.9615   -3.32009  -2.15722 
 H                     5.9617   -3.32022   2.15695 
 H                     6.74455  -4.29788  -0.00017 
 O                     1.91882  -2.55371   0.00018 
 O                    -0.01586  -1.51219   0.00011 
 C                    -1.16781   1.97142  -0.00006 
 C                    -2.18149  -0.62772   0.00004 
 C                    -3.07111   0.45835  -0.00003 
 C                    -2.5383    1.77025  -0.00009 
 H                    -3.21995   2.62165  -0.00018 
 H                    -0.78924   2.99376  -0.00013 
 H                    -2.54507  -1.65505   0.0001 
 C                    -4.47871   0.24503  -0.00007 
 C                    -5.68485   0.06699  -0.00004 
 C                    -7.09459  -0.14606  -0.00002 
 C                    -7.98648   0.94766   0.00002 
 C                    -7.62184  -1.4552   -0.00005 
 C                    -9.3634    0.73372   0.00004 
 H                    -7.58297   1.96185   0.00004 
 C                    -9.00025  -1.65923  -0.00003 
 H                    -6.93558  -2.30395  -0.00009 
 C                    -9.87539  -0.56801   0.00001 
 H                    -10.04354   1.58878   0.00007 
 H                    -9.39597  -2.67759  -0.00006 
 H                    -10.95549  -0.73193   0.00002 
 
 NAtoms=     51 NQM=       51 NQMF=       0 NMMI=      0 NMMIF=      0
                NMic=       0 NMicF=      0.
                    Isotopes and Nuclear Properties:
 (Nuclear quadrupole moments (NQMom) in fm**2, nuclear magnetic moments (NMagM)
  in nuclear magnetons)

  Atom         1           2           3           4           5           6           7           8           9          10
 IAtWgt=          12          12          12          12          12          12          12          12          12          12
 AtmWgt=  12.0000000  12.0000000  12.0000000  12.0000000  12.0000000  12.0000000  12.0000000  12.0000000  12.0000000  12.0000000
 NucSpn=           0           0           0           0           0           0           0           0           0           0
 AtZEff=   0.0000000   0.0000000   0.0000000   0.0000000   0.0000000   0.0000000   0.0000000   0.0000000   0.0000000   0.0000000
 NQMom=    0.0000000   0.0000000   0.0000000   0.0000000   0.0000000   0.0000000   0.0000000   0.0000000   0.0000000   0.0000000
 NMagM=    0.0000000   0.0000000   0.0000000   0.0000000   0.0000000   0.0000000   0.0000000   0.0000000   0.0000000   0.0000000
 AtZNuc=   6.0000000   6.0000000   6.0000000   6.0000000   6.0000000   6.0000000   6.0000000   6.0000000   6.0000000   6.0000000

  Atom        11          12          13          14          15          16          17          18          19          20
 IAtWgt=          12          12          12           1           1           1           1           1          12          12
 AtmWgt=  12.0000000  12.0000000  12.0000000   1.0078250   1.0078250   1.0078250   1.0078250   1.0078250  12.0000000  12.0000000
 NucSpn=           0           0           0           1           1           1           1           1           0           0
 AtZEff=   0.0000000   0.0000000   0.0000000   0.0000000   0.0000000   0.0000000   0.0000000   0.0000000   0.0000000   0.0000000
 NQMom=    0.0000000   0.0000000   0.0000000   0.0000000   0.0000000   0.0000000   0.0000000   0.0000000   0.0000000   0.0000000
 NMagM=    0.0000000   0.0000000   0.0000000   2.7928460   2.7928460   2.7928460   2.7928460   2.7928460   0.0000000   0.0000000
 AtZNuc=   6.0000000   6.0000000   6.0000000   1.0000000   1.0000000   1.0000000   1.0000000   1.0000000   6.0000000   6.0000000

  Atom        21          22          23          24          25          26          27          28          29          30
 IAtWgt=          12          12           1          12           1          12           1           1           1          16
 AtmWgt=  12.0000000  12.0000000   1.0078250  12.0000000   1.0078250  12.0000000   1.0078250   1.0078250   1.0078250  15.9949146
 NucSpn=           0           0           1           0           1           0           1           1           1           0
 AtZEff=   0.0000000   0.0000000   0.0000000   0.0000000   0.0000000   0.0000000   0.0000000   0.0000000   0.0000000   0.0000000
 NQMom=    0.0000000   0.0000000   0.0000000   0.0000000   0.0000000   0.0000000   0.0000000   0.0000000   0.0000000   0.0000000
 NMagM=    0.0000000   0.0000000   2.7928460   0.0000000   2.7928460   0.0000000   2.7928460   2.7928460   2.7928460   0.0000000
 AtZNuc=   6.0000000   6.0000000   1.0000000   6.0000000   1.0000000   6.0000000   1.0000000   1.0000000   1.0000000   8.0000000

  Atom        31          32          33          34          35          36          37          38          39          40
 IAtWgt=          16          12          12          12          12           1           1           1          12          12
 AtmWgt=  15.9949146  12.0000000  12.0000000  12.0000000  12.0000000   1.0078250   1.0078250   1.0078250  12.0000000  12.0000000
 NucSpn=           0           0           0           0           0           1           1           1           0           0
 AtZEff=   0.0000000   0.0000000   0.0000000   0.0000000   0.0000000   0.0000000   0.0000000   0.0000000   0.0000000   0.0000000
 NQMom=    0.0000000   0.0000000   0.0000000   0.0000000   0.0000000   0.0000000   0.0000000   0.0000000   0.0000000   0.0000000
 NMagM=    0.0000000   0.0000000   0.0000000   0.0000000   0.0000000   2.7928460   2.7928460   2.7928460   0.0000000   0.0000000
 AtZNuc=   8.0000000   6.0000000   6.0000000   6.0000000   6.0000000   1.0000000   1.0000000   1.0000000   6.0000000   6.0000000

  Atom        41          42          43          44          45          46          47          48          49          50
 IAtWgt=          12          12          12          12           1          12           1          12           1           1
 AtmWgt=  12.0000000  12.0000000  12.0000000  12.0000000   1.0078250  12.0000000   1.0078250  12.0000000   1.0078250   1.0078250
 NucSpn=           0           0           0           0           1           0           1           0           1           1
 AtZEff=   0.0000000   0.0000000   0.0000000   0.0000000   0.0000000   0.0000000   0.0000000   0.0000000   0.0000000   0.0000000
 NQMom=    0.0000000   0.0000000   0.0000000   0.0000000   0.0000000   0.0000000   0.0000000   0.0000000   0.0000000   0.0000000
 NMagM=    0.0000000   0.0000000   0.0000000   0.0000000   2.7928460   0.0000000   2.7928460   0.0000000   2.7928460   2.7928460
 AtZNuc=   6.0000000   6.0000000   6.0000000   6.0000000   1.0000000   6.0000000   1.0000000   6.0000000   1.0000000   1.0000000

  Atom        51
 IAtWgt=           1
 AtmWgt=   1.0078250
 NucSpn=           1
 AtZEff=   0.0000000
 NQMom=    0.0000000
 NMagM=    2.7928460
 AtZNuc=   1.0000000
 Leave Link  101 at Tue Mar 30 18:38:22 2021, MaxMem=  5242880000 cpu:         5.7
 (Enter /opt/nce/packages/global/g09/l103.exe)

 GradGradGradGradGradGradGradGradGradGradGradGradGradGradGradGradGradGrad
 Berny optimization.
 Initialization pass.
                           ----------------------------
                           !    Initial Parameters    !
                           ! (Angstroms and Degrees)  !
 --------------------------                            --------------------------
 ! Name  Definition              Value          Derivative Info.                !
 --------------------------------------------------------------------------------
 ! R1    R(1,2)                  1.3763         estimate D2E/DX2                !
 ! R2    R(1,6)                  1.4185         estimate D2E/DX2                !
 ! R3    R(1,15)                 1.0925         estimate D2E/DX2                !
 ! R4    R(2,3)                  1.4241         estimate D2E/DX2                !
 ! R5    R(2,16)                 1.0928         estimate D2E/DX2                !
 ! R6    R(3,4)                  1.4346         estimate D2E/DX2                !
 ! R7    R(3,7)                  1.4107         estimate D2E/DX2                !
 ! R8    R(4,5)                  1.4257         estimate D2E/DX2                !
 ! R9    R(4,8)                  1.4305         estimate D2E/DX2                !
 ! R10   R(5,6)                  1.3776         estimate D2E/DX2                !
 ! R11   R(5,17)                 1.0896         estimate D2E/DX2                !
 ! R12   R(6,18)                 1.0923         estimate D2E/DX2                !
 ! R13   R(7,10)                 1.3851         estimate D2E/DX2                !
 ! R14   R(7,14)                 1.0902         estimate D2E/DX2                !
 ! R15   R(8,9)                  1.3989         estimate D2E/DX2                !
 ! R16   R(8,19)                 1.4939         estimate D2E/DX2                !
 ! R17   R(9,10)                 1.4385         estimate D2E/DX2                !
 ! R18   R(9,13)                 1.4883         estimate D2E/DX2                !
 ! R19   R(10,11)                1.4642         estimate D2E/DX2                !
 ! R20   R(11,12)                1.405          estimate D2E/DX2                !
 ! R21   R(11,32)                1.4103         estimate D2E/DX2                !
 ! R22   R(12,31)                1.3626         estimate D2E/DX2                !
 ! R23   R(12,33)                1.3941         estimate D2E/DX2                !
 ! R24   R(13,30)                1.2004         estimate D2E/DX2                !
 ! R25   R(13,31)                1.376          estimate D2E/DX2                !
 ! R26   R(19,20)                1.4008         estimate D2E/DX2                !
 ! R27   R(19,21)                1.4008         estimate D2E/DX2                !
 ! R28   R(20,22)                1.3958         estimate D2E/DX2                !
 ! R29   R(20,23)                1.0924         estimate D2E/DX2                !
 ! R30   R(21,24)                1.3958         estimate D2E/DX2                !
 ! R31   R(21,25)                1.0924         estimate D2E/DX2                !
 ! R32   R(22,26)                1.3974         estimate D2E/DX2                !
 ! R33   R(22,27)                1.0927         estimate D2E/DX2                !
 ! R34   R(24,26)                1.3975         estimate D2E/DX2                !
 ! R35   R(24,28)                1.0927         estimate D2E/DX2                !
 ! R36   R(26,29)                1.0926         estimate D2E/DX2                !
 ! R37   R(32,35)                1.3852         estimate D2E/DX2                !
 ! R38   R(32,37)                1.0902         estimate D2E/DX2                !
 ! R39   R(33,34)                1.4039         estimate D2E/DX2                !
 ! R40   R(33,38)                1.0898         estimate D2E/DX2                !
 ! R41   R(34,35)                1.416          estimate D2E/DX2                !
 ! R42   R(34,39)                1.4237         estimate D2E/DX2                !
 ! R43   R(35,36)                1.0907         estimate D2E/DX2                !
 ! R44   R(39,40)                1.2192         estimate D2E/DX2                !
 ! R45   R(40,41)                1.4257         estimate D2E/DX2                !
 ! R46   R(41,42)                1.4113         estimate D2E/DX2                !
 ! R47   R(41,43)                1.4113         estimate D2E/DX2                !
 ! R48   R(42,44)                1.3934         estimate D2E/DX2                !
 ! R49   R(42,45)                1.0915         estimate D2E/DX2                !
 ! R50   R(43,46)                1.3934         estimate D2E/DX2                !
 ! R51   R(43,47)                1.0915         estimate D2E/DX2                !
 ! R52   R(44,48)                1.3988         estimate D2E/DX2                !
 ! R53   R(44,49)                1.0926         estimate D2E/DX2                !
 ! R54   R(46,48)                1.3988         estimate D2E/DX2                !
 ! R55   R(46,50)                1.0925         estimate D2E/DX2                !
 ! R56   R(48,51)                1.0925         estimate D2E/DX2                !
 ! A1    A(2,1,6)              120.1643         estimate D2E/DX2                !
 ! A2    A(2,1,15)             120.1254         estimate D2E/DX2                !
 ! A3    A(6,1,15)             119.7103         estimate D2E/DX2                !
 ! A4    A(1,2,3)              120.7583         estimate D2E/DX2                !
 ! A5    A(1,2,16)             120.6157         estimate D2E/DX2                !
 ! A6    A(3,2,16)             118.626          estimate D2E/DX2                !
 ! A7    A(2,3,4)              119.2417         estimate D2E/DX2                !
 ! A8    A(2,3,7)              121.4608         estimate D2E/DX2                !
 ! A9    A(4,3,7)              119.2975         estimate D2E/DX2                !
 ! A10   A(3,4,5)              118.4398         estimate D2E/DX2                !
 ! A11   A(3,4,8)              119.3847         estimate D2E/DX2                !
 ! A12   A(5,4,8)              122.1755         estimate D2E/DX2                !
 ! A13   A(4,5,6)              120.8955         estimate D2E/DX2                !
 ! A14   A(4,5,17)             118.8964         estimate D2E/DX2                !
 ! A15   A(6,5,17)             120.2081         estimate D2E/DX2                !
 ! A16   A(1,6,5)              120.5004         estimate D2E/DX2                !
 ! A17   A(1,6,18)             119.6427         estimate D2E/DX2                !
 ! A18   A(5,6,18)             119.8569         estimate D2E/DX2                !
 ! A19   A(3,7,10)             121.7937         estimate D2E/DX2                !
 ! A20   A(3,7,14)             117.8751         estimate D2E/DX2                !
 ! A21   A(10,7,14)            120.3312         estimate D2E/DX2                !
 ! A22   A(4,8,9)              119.7016         estimate D2E/DX2                !
 ! A23   A(4,8,19)             117.3222         estimate D2E/DX2                !
 ! A24   A(9,8,19)             122.9763         estimate D2E/DX2                !
 ! A25   A(8,9,10)             120.7604         estimate D2E/DX2                !
 ! A26   A(8,9,13)             119.4741         estimate D2E/DX2                !
 ! A27   A(10,9,13)            119.7655         estimate D2E/DX2                !
 ! A28   A(7,10,9)             119.0621         estimate D2E/DX2                !
 ! A29   A(7,10,11)            122.1784         estimate D2E/DX2                !
 ! A30   A(9,10,11)            118.7595         estimate D2E/DX2                !
 ! A31   A(10,11,12)           118.4786         estimate D2E/DX2                !
 ! A32   A(10,11,32)           124.4985         estimate D2E/DX2                !
 ! A33   A(12,11,32)           117.0228         estimate D2E/DX2                !
 ! A34   A(11,12,31)           121.6881         estimate D2E/DX2                !
 ! A35   A(11,12,33)           122.2025         estimate D2E/DX2                !
 ! A36   A(31,12,33)           116.1094         estimate D2E/DX2                !
 ! A37   A(9,13,30)            126.3782         estimate D2E/DX2                !
 ! A38   A(9,13,31)            116.7487         estimate D2E/DX2                !
 ! A39   A(30,13,31)           116.8731         estimate D2E/DX2                !
 ! A40   A(8,19,20)            120.326          estimate D2E/DX2                !
 ! A41   A(8,19,21)            120.3282         estimate D2E/DX2                !
 ! A42   A(20,19,21)           119.2582         estimate D2E/DX2                !
 ! A43   A(19,20,22)           120.3587         estimate D2E/DX2                !
 ! A44   A(19,20,23)           119.4054         estimate D2E/DX2                !
 ! A45   A(22,20,23)           120.234          estimate D2E/DX2                !
 ! A46   A(19,21,24)           120.3584         estimate D2E/DX2                !
 ! A47   A(19,21,25)           119.4047         estimate D2E/DX2                !
 ! A48   A(24,21,25)           120.2351         estimate D2E/DX2                !
 ! A49   A(20,22,26)           120.168          estimate D2E/DX2                !
 ! A50   A(20,22,27)           119.7289         estimate D2E/DX2                !
 ! A51   A(26,22,27)           120.103          estimate D2E/DX2                !
 ! A52   A(21,24,26)           120.1683         estimate D2E/DX2                !
 ! A53   A(21,24,28)           119.7304         estimate D2E/DX2                !
 ! A54   A(26,24,28)           120.1012         estimate D2E/DX2                !
 ! A55   A(22,26,24)           119.6837         estimate D2E/DX2                !
 ! A56   A(22,26,29)           120.1593         estimate D2E/DX2                !
 ! A57   A(24,26,29)           120.1569         estimate D2E/DX2                !
 ! A58   A(12,31,13)           124.5596         estimate D2E/DX2                !
 ! A59   A(11,32,35)           121.7451         estimate D2E/DX2                !
 ! A60   A(11,32,37)           119.5848         estimate D2E/DX2                !
 ! A61   A(35,32,37)           118.6702         estimate D2E/DX2                !
 ! A62   A(12,33,34)           120.0002         estimate D2E/DX2                !
 ! A63   A(12,33,38)           118.8104         estimate D2E/DX2                !
 ! A64   A(34,33,38)           121.1894         estimate D2E/DX2                !
 ! A65   A(33,34,35)           118.5745         estimate D2E/DX2                !
 ! A66   A(33,34,39)           120.7038         estimate D2E/DX2                !
 ! A67   A(35,34,39)           120.7216         estimate D2E/DX2                !
 ! A68   A(32,35,34)           120.4549         estimate D2E/DX2                !
 ! A69   A(32,35,36)           120.3308         estimate D2E/DX2                !
 ! A70   A(34,35,36)           119.2144         estimate D2E/DX2                !
 ! A71   A(40,41,42)           120.602          estimate D2E/DX2                !
 ! A72   A(40,41,43)           120.5312         estimate D2E/DX2                !
 ! A73   A(42,41,43)           118.8668         estimate D2E/DX2                !
 ! A74   A(41,42,44)           120.3642         estimate D2E/DX2                !
 ! A75   A(41,42,45)           119.1079         estimate D2E/DX2                !
 ! A76   A(44,42,45)           120.528          estimate D2E/DX2                !
 ! A77   A(41,43,46)           120.3569         estimate D2E/DX2                !
 ! A78   A(41,43,47)           119.1053         estimate D2E/DX2                !
 ! A79   A(46,43,47)           120.5377         estimate D2E/DX2                !
 ! A80   A(42,44,48)           120.3025         estimate D2E/DX2                !
 ! A81   A(42,44,49)           119.668          estimate D2E/DX2                !
 ! A82   A(48,44,49)           120.0295         estimate D2E/DX2                !
 ! A83   A(43,46,48)           120.3093         estimate D2E/DX2                !
 ! A84   A(43,46,50)           119.6554         estimate D2E/DX2                !
 ! A85   A(48,46,50)           120.0353         estimate D2E/DX2                !
 ! A86   A(44,48,46)           119.8003         estimate D2E/DX2                !
 ! A87   A(44,48,51)           120.1003         estimate D2E/DX2                !
 ! A88   A(46,48,51)           120.0994         estimate D2E/DX2                !
 ! A89   L(34,39,40,36,-1)     179.7793         estimate D2E/DX2                !
 ! A90   L(39,40,41,47,-1)     179.8028         estimate D2E/DX2                !
 ! A91   L(34,39,40,36,-2)     180.0034         estimate D2E/DX2                !
 ! A92   L(39,40,41,47,-2)     180.0004         estimate D2E/DX2                !
 ! D1    D(6,1,2,3)              0.0            estimate D2E/DX2                !
 ! D2    D(6,1,2,16)           180.0            estimate D2E/DX2                !
 ! D3    D(15,1,2,3)          -180.0            estimate D2E/DX2                !
 ! D4    D(15,1,2,16)            0.0            estimate D2E/DX2                !
 ! D5    D(2,1,6,5)              0.0002         estimate D2E/DX2                !
 ! D6    D(2,1,6,18)          -179.9999         estimate D2E/DX2                !
 ! D7    D(15,1,6,5)          -179.9998         estimate D2E/DX2                !
 ! D8    D(15,1,6,18)            0.0001         estimate D2E/DX2                !
 ! D9    D(1,2,3,4)             -0.0001         estimate D2E/DX2                !
 ! D10   D(1,2,3,7)           -179.9997         estimate D2E/DX2                !
 ! D11   D(16,2,3,4)           179.9999         estimate D2E/DX2                !
 ! D12   D(16,2,3,7)             0.0003         estimate D2E/DX2                !
 ! D13   D(2,3,4,5)              0.0            estimate D2E/DX2                !
 ! D14   D(2,3,4,8)           -180.0            estimate D2E/DX2                !
 ! D15   D(7,3,4,5)            179.9996         estimate D2E/DX2                !
 ! D16   D(7,3,4,8)             -0.0004         estimate D2E/DX2                !
 ! D17   D(2,3,7,10)          -179.9994         estimate D2E/DX2                !
 ! D18   D(2,3,7,14)             0.0003         estimate D2E/DX2                !
 ! D19   D(4,3,7,10)             0.001          estimate D2E/DX2                !
 ! D20   D(4,3,7,14)          -179.9993         estimate D2E/DX2                !
 ! D21   D(3,4,5,6)              0.0001         estimate D2E/DX2                !
 ! D22   D(3,4,5,17)          -179.9998         estimate D2E/DX2                !
 ! D23   D(8,4,5,6)           -179.9998         estimate D2E/DX2                !
 ! D24   D(8,4,5,17)             0.0002         estimate D2E/DX2                !
 ! D25   D(3,4,8,9)             -0.0004         estimate D2E/DX2                !
 ! D26   D(3,4,8,19)           179.9976         estimate D2E/DX2                !
 ! D27   D(5,4,8,9)            179.9995         estimate D2E/DX2                !
 ! D28   D(5,4,8,19)            -0.0024         estimate D2E/DX2                !
 ! D29   D(4,5,6,1)             -0.0002         estimate D2E/DX2                !
 ! D30   D(4,5,6,18)           179.9998         estimate D2E/DX2                !
 ! D31   D(17,5,6,1)           179.9997         estimate D2E/DX2                !
 ! D32   D(17,5,6,18)           -0.0003         estimate D2E/DX2                !
 ! D33   D(3,7,10,9)            -0.0007         estimate D2E/DX2                !
 ! D34   D(3,7,10,11)         -179.9998         estimate D2E/DX2                !
 ! D35   D(14,7,10,9)          179.9995         estimate D2E/DX2                !
 ! D36   D(14,7,10,11)           0.0004         estimate D2E/DX2                !
 ! D37   D(4,8,9,10)             0.0007         estimate D2E/DX2                !
 ! D38   D(4,8,9,13)          -179.998          estimate D2E/DX2                !
 ! D39   D(19,8,9,10)         -179.9972         estimate D2E/DX2                !
 ! D40   D(19,8,9,13)            0.0041         estimate D2E/DX2                !
 ! D41   D(4,8,19,20)          -88.2848         estimate D2E/DX2                !
 ! D42   D(4,8,19,21)           88.2857         estimate D2E/DX2                !
 ! D43   D(9,8,19,20)           91.7132         estimate D2E/DX2                !
 ! D44   D(9,8,19,21)          -91.7163         estimate D2E/DX2                !
 ! D45   D(8,9,10,7)            -0.0002         estimate D2E/DX2                !
 ! D46   D(8,9,10,11)          179.999          estimate D2E/DX2                !
 ! D47   D(13,9,10,7)          179.9985         estimate D2E/DX2                !
 ! D48   D(13,9,10,11)          -0.0023         estimate D2E/DX2                !
 ! D49   D(8,9,13,30)            0.0012         estimate D2E/DX2                !
 ! D50   D(8,9,13,31)         -179.9993         estimate D2E/DX2                !
 ! D51   D(10,9,13,30)        -179.9975         estimate D2E/DX2                !
 ! D52   D(10,9,13,31)           0.002          estimate D2E/DX2                !
 ! D53   D(7,10,11,12)         179.9997         estimate D2E/DX2                !
 ! D54   D(7,10,11,32)           0.0026         estimate D2E/DX2                !
 ! D55   D(9,10,11,12)           0.0006         estimate D2E/DX2                !
 ! D56   D(9,10,11,32)        -179.9966         estimate D2E/DX2                !
 ! D57   D(10,11,12,31)          0.0015         estimate D2E/DX2                !
 ! D58   D(10,11,12,33)       -179.9998         estimate D2E/DX2                !
 ! D59   D(32,11,12,31)        179.9989         estimate D2E/DX2                !
 ! D60   D(32,11,12,33)         -0.0025         estimate D2E/DX2                !
 ! D61   D(10,11,32,35)        179.9989         estimate D2E/DX2                !
 ! D62   D(10,11,32,37)          0.0002         estimate D2E/DX2                !
 ! D63   D(12,11,32,35)          0.0017         estimate D2E/DX2                !
 ! D64   D(12,11,32,37)       -179.997          estimate D2E/DX2                !
 ! D65   D(11,12,31,13)         -0.002          estimate D2E/DX2                !
 ! D66   D(33,12,31,13)        179.9993         estimate D2E/DX2                !
 ! D67   D(11,12,33,34)          0.0014         estimate D2E/DX2                !
 ! D68   D(11,12,33,38)       -179.9975         estimate D2E/DX2                !
 ! D69   D(31,12,33,34)       -179.9999         estimate D2E/DX2                !
 ! D70   D(31,12,33,38)          0.0012         estimate D2E/DX2                !
 ! D71   D(9,13,31,12)           0.0002         estimate D2E/DX2                !
 ! D72   D(30,13,31,12)        179.9997         estimate D2E/DX2                !
 ! D73   D(8,19,20,22)         177.3602         estimate D2E/DX2                !
 ! D74   D(8,19,20,23)          -3.1372         estimate D2E/DX2                !
 ! D75   D(21,19,20,22)          0.7532         estimate D2E/DX2                !
 ! D76   D(21,19,20,23)       -179.7442         estimate D2E/DX2                !
 ! D77   D(8,19,21,24)        -177.3601         estimate D2E/DX2                !
 ! D78   D(8,19,21,25)           3.1374         estimate D2E/DX2                !
 ! D79   D(20,19,21,24)         -0.7531         estimate D2E/DX2                !
 ! D80   D(20,19,21,25)        179.7443         estimate D2E/DX2                !
 ! D81   D(19,20,22,26)         -0.2854         estimate D2E/DX2                !
 ! D82   D(19,20,22,27)        179.5884         estimate D2E/DX2                !
 ! D83   D(23,20,22,26)       -179.7838         estimate D2E/DX2                !
 ! D84   D(23,20,22,27)          0.0899         estimate D2E/DX2                !
 ! D85   D(19,21,24,26)          0.2852         estimate D2E/DX2                !
 ! D86   D(19,21,24,28)       -179.5882         estimate D2E/DX2                !
 ! D87   D(25,21,24,26)        179.7836         estimate D2E/DX2                !
 ! D88   D(25,21,24,28)         -0.0898         estimate D2E/DX2                !
 ! D89   D(20,22,26,24)         -0.19           estimate D2E/DX2                !
 ! D90   D(20,22,26,29)        179.8744         estimate D2E/DX2                !
 ! D91   D(27,22,26,24)        179.9367         estimate D2E/DX2                !
 ! D92   D(27,22,26,29)          0.0011         estimate D2E/DX2                !
 ! D93   D(21,24,26,22)          0.1901         estimate D2E/DX2                !
 ! D94   D(21,24,26,29)       -179.8743         estimate D2E/DX2                !
 ! D95   D(28,24,26,22)       -179.9369         estimate D2E/DX2                !
 ! D96   D(28,24,26,29)         -0.0013         estimate D2E/DX2                !
 ! D97   D(11,32,35,34)          0.0001         estimate D2E/DX2                !
 ! D98   D(11,32,35,36)       -179.999          estimate D2E/DX2                !
 ! D99   D(37,32,35,34)        179.9988         estimate D2E/DX2                !
 ! D100  D(37,32,35,36)         -0.0003         estimate D2E/DX2                !
 ! D101  D(12,33,34,35)          0.0005         estimate D2E/DX2                !
 ! D102  D(12,33,34,39)        179.9986         estimate D2E/DX2                !
 ! D103  D(38,33,34,35)        179.9994         estimate D2E/DX2                !
 ! D104  D(38,33,34,39)         -0.0024         estimate D2E/DX2                !
 ! D105  D(33,34,35,32)         -0.0013         estimate D2E/DX2                !
 ! D106  D(33,34,35,36)        179.9979         estimate D2E/DX2                !
 ! D107  D(39,34,35,32)       -179.9994         estimate D2E/DX2                !
 ! D108  D(39,34,35,36)         -0.0002         estimate D2E/DX2                !
 ! D109  D(33,34,41,42)        179.995          estimate D2E/DX2                !
 ! D110  D(33,34,41,43)         -0.0044         estimate D2E/DX2                !
 ! D111  D(35,34,41,42)         -0.0049         estimate D2E/DX2                !
 ! D112  D(35,34,41,43)        179.9957         estimate D2E/DX2                !
 ! D113  D(40,41,42,44)        180.0            estimate D2E/DX2                !
 ! D114  D(40,41,42,45)         -0.0001         estimate D2E/DX2                !
 ! D115  D(43,41,42,44)          0.0002         estimate D2E/DX2                !
 ! D116  D(43,41,42,45)       -179.9999         estimate D2E/DX2                !
 ! D117  D(40,41,43,46)       -179.9998         estimate D2E/DX2                !
 ! D118  D(40,41,43,47)         -0.0002         estimate D2E/DX2                !
 ! D119  D(42,41,43,46)         -0.0001         estimate D2E/DX2                !
 ! D120  D(42,41,43,47)        179.9996         estimate D2E/DX2                !
 ! D121  D(41,42,44,48)         -0.0003         estimate D2E/DX2                !
 ! D122  D(41,42,44,49)        179.9999         estimate D2E/DX2                !
 ! D123  D(45,42,44,48)        179.9998         estimate D2E/DX2                !
 ! D124  D(45,42,44,49)          0.0            estimate D2E/DX2                !
 ! D125  D(41,43,46,48)          0.0            estimate D2E/DX2                !
 ! D126  D(41,43,46,50)        179.9998         estimate D2E/DX2                !
 ! D127  D(47,43,46,48)       -179.9997         estimate D2E/DX2                !
 ! D128  D(47,43,46,50)          0.0002         estimate D2E/DX2                !
 ! D129  D(42,44,48,46)          0.0002         estimate D2E/DX2                !
 ! D130  D(42,44,48,51)       -179.9999         estimate D2E/DX2                !
 ! D131  D(49,44,48,46)       -180.0            estimate D2E/DX2                !
 ! D132  D(49,44,48,51)         -0.0001         estimate D2E/DX2                !
 ! D133  D(43,46,48,44)          0.0            estimate D2E/DX2                !
 ! D134  D(43,46,48,51)       -179.9999         estimate D2E/DX2                !
 ! D135  D(50,46,48,44)       -179.9999         estimate D2E/DX2                !
 ! D136  D(50,46,48,51)          0.0002         estimate D2E/DX2                !
 --------------------------------------------------------------------------------
 Trust Radius=3.00D-01 FncErr=1.00D-07 GrdErr=1.00D-06
 Number of steps in this run=    294 maximum allowed number of steps=    306.
 GradGradGradGradGradGradGradGradGradGradGradGradGradGradGradGradGradGrad

 Leave Link  103 at Tue Mar 30 18:38:23 2021, MaxMem=  5242880000 cpu:         0.2
 (Enter /opt/nce/packages/global/g09/l202.exe)
 Symmetry turned off by external request.
 Stoichiometry    C31H18O2
 Framework group  C1[X(C31H18O2)]
 Deg. of freedom   147
 Full point group                 C1      NOp   1
                          Input orientation:                          
 ---------------------------------------------------------------------
 Center     Atomic      Atomic             Coordinates (Angstroms)
 Number     Number       Type             X           Y           Z
 ---------------------------------------------------------------------
      1          6           0        5.224308    3.787725   -0.000006
      2          6           0        3.852256    3.679499   -0.000005
      3          6           0        3.222427    2.402230    0.000012
      4          6           0        4.035179    1.220116    0.000026
      5          6           0        5.452899    1.370885    0.000023
      6          6           0        6.031286    2.621188    0.000010
      7          6           0        1.817526    2.274063    0.000007
      8          6           0        3.405748   -0.064419    0.000043
      9          6           0        2.009568   -0.152171    0.000055
     10          6           0        1.197750    1.035379    0.000035
     11          6           0       -0.259462    0.892567    0.000026
     12          6           0       -0.805776   -0.401917    0.000050
     13          6           0        1.359983   -1.491267    0.000118
     14          1           0        1.222371    3.187457   -0.000016
     15          1           0        5.696644    4.772891   -0.000019
     16          1           0        3.223481    4.573300   -0.000017
     17          1           0        6.077354    0.477968    0.000030
     18          1           0        7.119372    2.716991    0.000011
     19          6           0        4.295892   -1.264195    0.000002
     20          6           0        4.746333   -1.810639   -1.208575
     21          6           0        4.746441   -1.810705    1.208518
     22          6           0        5.621922   -2.897670   -1.208398
     23          1           0        4.399806   -1.383628   -2.152423
     24          6           0        5.622024   -2.897726    1.208200
     25          1           0        4.399987   -1.383735    2.152411
     26          6           0        6.060807   -3.445713   -0.000138
     27          1           0        5.961500   -3.320092   -2.157216
     28          1           0        5.961702   -3.320222    2.156949
     29          1           0        6.744553   -4.297875   -0.000167
     30          8           0        1.918821   -2.553705    0.000182
     31          8           0       -0.015856   -1.512185    0.000112
     32          6           0       -1.167806    1.971419   -0.000063
     33          6           0       -2.181494   -0.627722    0.000040
     34          6           0       -3.071112    0.458351   -0.000025
     35          6           0       -2.538298    1.770245   -0.000090
     36          1           0       -3.219948    2.621645   -0.000175
     37          1           0       -0.789237    2.993762   -0.000134
     38          1           0       -2.545073   -1.655050    0.000101
     39          6           0       -4.478714    0.245030   -0.000065
     40          6           0       -5.684846    0.066991   -0.000041
     41          6           0       -7.094587   -0.146063   -0.000022
     42          6           0       -7.986481    0.947661    0.000018
     43          6           0       -7.621842   -1.455199   -0.000048
     44          6           0       -9.363402    0.733718    0.000036
     45          1           0       -7.582966    1.961851    0.000036
     46          6           0       -9.000247   -1.659231   -0.000033
     47          1           0       -6.935580   -2.303947   -0.000086
     48          6           0       -9.875393   -0.568006    0.000009
     49          1           0      -10.043542    1.588775    0.000069
     50          1           0       -9.395971   -2.677592   -0.000056
     51          1           0      -10.955487   -0.731928    0.000022
 ---------------------------------------------------------------------
 Rotational constants (GHZ):      0.3103014      0.0464419      0.0409777
 Leave Link  202 at Tue Mar 30 18:38:23 2021, MaxMem=  5242880000 cpu:         0.1
 (Enter /opt/nce/packages/global/g09/l301.exe)
 Standard basis: def2TZVP (5D, 7F)
 Ernie: Thresh=  0.10000D-02 Tol=  0.10000D-05 Strict=F.
  1131 basis functions,  1827 primitive gaussians,  1296 cartesian basis functions
   110 alpha electrons      110 beta electrons
       nuclear repulsion energy      2773.5838448630 Hartrees.
 IExCor= 2523 DFT=T Ex=TPSS Corr=TPSS ExCW=0 ScaHFX=  0.000000
 ScaDFX=  1.000000  1.000000  1.000000  1.000000 ScalE2=  1.000000  1.000000
 IRadAn=      5 IRanWt=     -1 IRanGd=            0 ICorTp=0 IEmpDi=  4
 NAtoms=   51 NActive=   51 NUniq=   51 SFac= 1.00D+00 NAtFMM=   60 NAOKFM=F Big=F
 Integral buffers will be    131072 words long.
 Raffenetti 2 integral format.
 Two-electron integral symmetry is turned off.
 ------------------------------------------------------------------------------
 Polarizable Continuum Model (PCM)
 =================================
 Model                : PCM (using non-symmetric T matrix).
 Atomic radii         : SMD-Coulomb.
 Polarization charges : Total charges.
 Charge compensation  : None.
 Solution method      : On-the-fly selection.
 Cavity type          : VdW (van der Waals Surface) (Alpha=1.000).
 Cavity algorithm     : GePol (No added spheres)
                        Default sphere list used, NSphG=   51.
                        Lebedev-Laikov grids with approx.  5.0 points / Ang**2.
                        Smoothing algorithm: York/Karplus (Gamma=1.0000).
                        Polarization charges: spherical gaussians, with
                                              point-specific exponents (IZeta= 3).
                        Self-potential: point-specific (ISelfS= 7).
                        Self-field    : sphere-specific E.n sum rule (ISelfD= 2).
 1st derivatives      : Analytical E(r).r(x)/FMM algorithm (CHGder, D1EAlg=3).
                        Cavity 1st derivative terms included.
 Solvent              : Acetonitrile, Eps=  35.688000 Eps(inf)=   1.806874
 ------------------------------------------------------------------------------
 GePol: Number of generator spheres                  =      51
 GePol: Total number of spheres                      =      51
 GePol: Number of exposed spheres                    =      51 (100.00%)
 GePol: Number of points                             =    4115
 GePol: Average weight of points                     =       0.11
 GePol: Minimum weight of points                     =   0.83D-11
 GePol: Maximum weight of points                     =    0.21559
 GePol: Number of points with low weight             =     243
 GePol: Fraction of low-weight points (<1% of avg)   =       5.91%
 GePol: Cavity surface area                          =    447.441 Ang**2
 GePol: Cavity volume                                =    446.088 Ang**3
 ------------------------------------------------------------------------------
 Atomic radii for non-electrostatic terms: SMD-CDS.
 ------------------------------------------------------------------------------
 PCM non-electrostatic energy =        -0.0121544802 Hartrees.
 Nuclear repulsion after PCM non-electrostatic terms =     2773.5716903829 Hartrees.
 Leave Link  301 at Tue Mar 30 18:38:23 2021, MaxMem=  5242880000 cpu:         2.2
 (Enter /opt/nce/packages/global/g09/l302.exe)
 NPDir=0 NMtPBC=     1 NCelOv=     1 NCel=       1 NClECP=     1 NCelD=      1
         NCelK=      1 NCelE2=     1 NClLst=     1 CellRange=     0.0.
 One-electron integrals computed using PRISM.
   1 Symmetry operations used in ECPInt.
 ECPInt:  NShTT=   94830 NPrTT=  296076 LenC2=   66296 LenP2D=  140417.
 LDataN:  DoStor=T MaxTD1= 6 Len=  172
 NBasis=  1131 RedAO= T EigKep=  2.80D-06  NBF=  1131
 NBsUse=  1131 1.00D-06 EigRej= -1.00D+00 NBFU=  1131
 Precomputing XC quadrature grid using
 IXCGrd= 4 IRadAn=           5 IRanWt=          -1 IRanGd=           0 AccXCQ= 0.00D+00.
 Generated NRdTot=       0 NPtTot=           0 NUsed=           0 NTot=          32
 NSgBfM=  1167  1167  1167  1167  1167 MxSgAt=    51 MxSgA2=    51.
 Leave Link  302 at Tue Mar 30 18:38:26 2021, MaxMem=  5242880000 cpu:        32.9
 (Enter /opt/nce/packages/global/g09/l303.exe)
 DipDrv:  MaxL=1.
 Leave Link  303 at Tue Mar 30 18:38:26 2021, MaxMem=  5242880000 cpu:         2.9
 (Enter /opt/nce/packages/global/g09/l401.exe)
 ExpMin= 9.52D-02 ExpMax= 2.70D+04 ExpMxC= 9.22D+02 IAcc=3 IRadAn=         5 AccDes= 0.00D+00
 Harris functional with IExCor= 1009 and IRadAn=       5 diagonalized for initial guess.
 HarFok:  IExCor= 1009 AccDes= 0.00D+00 IRadAn=         5 IDoV= 1 UseB2=F ITyADJ=14
 ICtDFT=  3500011 ScaDFX=  1.000000  1.000000  1.000000  1.000000
 FoFCou: FMM=F IPFlag=           0 FMFlag=      100000 FMFlg1=           0
         NFxFlg=           0 DoJE=T BraDBF=F KetDBF=T FulRan=T
         wScrn=  0.000000 ICntrl=     500 IOpCl=  0 I1Cent=   200000004 NGrid=           0
         NMat0=    1 NMatS0=      1 NMatT0=    0 NMatD0=    1 NMtDS0=    0 NMtDT0=    0
 Symmetry not used in FoFCou.
 Harris En= -1341.89720556220    
 JPrj=0 DoOrth=F DoCkMO=F.
 Leave Link  401 at Tue Mar 30 18:38:36 2021, MaxMem=  5242880000 cpu:       117.6
 (Enter /opt/nce/packages/global/g09/l502.exe)
 Closed shell SCF:
 Using DIIS extrapolation, IDIIS=  1040.
 Two-electron integral symmetry not used.
 IVT=     5080828 IEndB=     5080828 NGot=  5242880000 MDV=  5239496725
 LenX=  5239496725 LenY=  5237815813
 Requested convergence on RMS density matrix=1.00D-08 within 128 cycles.
 Requested convergence on MAX density matrix=1.00D-06.
 Requested convergence on             energy=1.00D-06.
 No special actions if energy rises.
 Fock matrices will be formed incrementally for  20 cycles.

 Cycle   1  Pass 1  IDiag  1:
 FoFJK:  IHMeth= 1 ICntrl=     500 DoSepK=F KAlg= 0 I1Cent=   0 FoldK=F
 IRaf= 580000000 NMat=   1 IRICut=       1 DoRegI=T DoRafI=F ISym2E= 0.
 FoFCou: FMM=F IPFlag=           0 FMFlag=      100000 FMFlg1=           0
         NFxFlg=           0 DoJE=T BraDBF=F KetDBF=F FulRan=T
         wScrn=  0.000000 ICntrl=     500 IOpCl=  0 I1Cent=           0 NGrid=           0
         NMat0=    1 NMatS0=      1 NMatT0=    0 NMatD0=    1 NMtDS0=    0 NMtDT0=    0
 Symmetry not used in FoFCou.
 Inv3:  Mode=1 IEnd=    50799675.
 Iteration    1 A*A^-1 deviation from unit magnitude is 7.55D-15 for   4095.
 Iteration    1 A*A^-1 deviation from orthogonality  is 2.80D-15 for   2855   2445.
 Iteration    1 A^-1*A deviation from unit magnitude is 7.55D-15 for   4095.
 Iteration    1 A^-1*A deviation from orthogonality  is 1.20D-07 for   1693   1689.
 Iteration    2 A*A^-1 deviation from unit magnitude is 2.55D-15 for   2614.
 Iteration    2 A*A^-1 deviation from orthogonality  is 2.44D-15 for   3699    232.
 Iteration    2 A^-1*A deviation from unit magnitude is 8.88D-16 for     13.
 Iteration    2 A^-1*A deviation from orthogonality  is 5.00D-16 for   4109   1029.
 E= -1342.75266744724    
 DIIS: error= 1.95D-02 at cycle   1 NSaved=   1.
 NSaved= 1 IEnMin= 1 EnMin= -1342.75266744724     IErMin= 1 ErrMin= 1.95D-02
 ErrMax= 1.95D-02  0.00D+00 EMaxC= 1.00D-01 BMatC= 6.32D-01 BMatP= 6.32D-01
 IDIUse=3 WtCom= 8.05D-01 WtEn= 1.95D-01
 Coeff-Com:  0.100D+01
 Coeff-En:   0.100D+01
 Coeff:      0.100D+01
 Gap=     0.099 Goal=   None    Shift=    0.000
 GapD=    0.099 DampG=0.500 DampE=0.500 DampFc=0.2500 IDamp=-1.
 Damping current iteration by 2.50D-01
 RMSDP=5.13D-03 MaxDP=6.50D-01              OVMax= 2.48D-01

 Cycle   2  Pass 1  IDiag  1:
 RMSU=  1.28D-03    CP:  1.02D+00
 E= -1342.94827039977     Delta-E=       -0.195602952531 Rises=F Damp=T
 DIIS: error= 1.05D-02 at cycle   2 NSaved=   2.
 NSaved= 2 IEnMin= 2 EnMin= -1342.94827039977     IErMin= 2 ErrMin= 1.05D-02
 ErrMax= 1.05D-02  0.00D+00 EMaxC= 1.00D-01 BMatC= 1.74D-01 BMatP= 6.32D-01
 IDIUse=3 WtCom= 8.95D-01 WtEn= 1.05D-01
 Coeff-Com: -0.607D+00 0.161D+01
 Coeff-En:   0.000D+00 0.100D+01
 Coeff:     -0.543D+00 0.154D+01
 Gap=     0.079 Goal=   None    Shift=    0.000
 RMSDP=1.66D-03 MaxDP=1.99D-01 DE=-1.96D-01 OVMax= 3.20D-01

 Cycle   3  Pass 1  IDiag  1:
 RMSU=  1.64D-03    CP:  9.89D-01  1.15D+00
 E= -1343.15104611362     Delta-E=       -0.202775713848 Rises=F Damp=F
 DIIS: error= 1.34D-02 at cycle   3 NSaved=   3.
 NSaved= 3 IEnMin= 3 EnMin= -1343.15104611362     IErMin= 2 ErrMin= 1.05D-02
 ErrMax= 1.34D-02  0.00D+00 EMaxC= 1.00D-01 BMatC= 2.08D-01 BMatP= 1.74D-01
 IDIUse=2 WtCom= 0.00D+00 WtEn= 1.00D+00
 Coeff-En:   0.000D+00 0.372D-01 0.963D+00
 Coeff:      0.000D+00 0.372D-01 0.963D+00
 Gap=     0.096 Goal=   None    Shift=    0.000
 RMSDP=4.43D-03 MaxDP=7.53D-01 DE=-2.03D-01 OVMax= 4.19D-01

 Cycle   4  Pass 1  IDiag  1:
 RMSU=  1.83D-03    CP:  1.05D+00  3.00D+00 -6.77D-01
 E= -1341.73492296620     Delta-E=        1.416123147423 Rises=F Damp=F
 DIIS: error= 3.58D-02 at cycle   4 NSaved=   4.
 NSaved= 4 IEnMin= 3 EnMin= -1343.15104611362     IErMin= 2 ErrMin= 1.05D-02
 ErrMax= 3.58D-02  0.00D+00 EMaxC= 1.00D-01 BMatC= 1.82D+00 BMatP= 1.74D-01
 IDIUse=2 WtCom= 0.00D+00 WtEn= 1.00D+00
 Coeff-En:   0.000D+00 0.000D+00 0.837D+00 0.163D+00
 Coeff:      0.000D+00 0.000D+00 0.837D+00 0.163D+00
 Gap=     0.082 Goal=   None    Shift=    0.000
 RMSDP=3.35D-03 MaxDP=6.17D-01 DE= 1.42D+00 OVMax= 2.45D-01

 Cycle   5  Pass 1  IDiag  1:
 RMSU=  7.04D-04    CP:  9.87D-01  1.37D+00  4.95D-02  1.99D-01
 E= -1343.16880547276     Delta-E=       -1.433882506568 Rises=F Damp=F
 DIIS: error= 1.37D-02 at cycle   5 NSaved=   5.
 NSaved= 5 IEnMin= 5 EnMin= -1343.16880547276     IErMin= 2 ErrMin= 1.05D-02
 ErrMax= 1.37D-02  0.00D+00 EMaxC= 1.00D-01 BMatC= 1.93D-01 BMatP= 1.74D-01
 IDIUse=2 WtCom= 0.00D+00 WtEn= 1.00D+00
 Coeff-En:   0.000D+00 0.000D+00 0.482D+00 0.000D+00 0.518D+00
 Coeff:      0.000D+00 0.000D+00 0.482D+00 0.000D+00 0.518D+00
 Gap=     0.093 Goal=   None    Shift=    0.000
 RMSDP=8.61D-04 MaxDP=1.21D-01 DE=-1.43D+00 OVMax= 1.15D-01

 Cycle   6  Pass 1  IDiag  1:
 RMSU=  1.28D-04    CP:  9.79D-01  1.03D+00  4.52D-01  7.56D-02  6.77D-01
 E= -1343.32623485098     Delta-E=       -0.157429378221 Rises=F Damp=F
 DIIS: error= 1.35D-03 at cycle   6 NSaved=   6.
 NSaved= 6 IEnMin= 6 EnMin= -1343.32623485098     IErMin= 6 ErrMin= 1.35D-03
 ErrMax= 1.35D-03  0.00D+00 EMaxC= 1.00D-01 BMatC= 1.94D-03 BMatP= 1.74D-01
 IDIUse=3 WtCom= 9.87D-01 WtEn= 1.35D-02
 Coeff-Com: -0.271D-01 0.352D-01 0.142D+00-0.318D-01 0.269D+00 0.613D+00
 Coeff-En:   0.000D+00 0.000D+00 0.000D+00 0.000D+00 0.000D+00 0.100D+01
 Coeff:     -0.268D-01 0.347D-01 0.140D+00-0.313D-01 0.265D+00 0.619D+00
 Gap=     0.093 Goal=   None    Shift=    0.000
 RMSDP=1.26D-04 MaxDP=1.62D-02 DE=-1.57D-01 OVMax= 1.62D-02

 Cycle   7  Pass 1  IDiag  1:
 RMSU=  4.43D-05    CP:  9.81D-01  1.10D+00  4.11D-01  8.15D-02  7.17D-01
                    CP:  9.01D-01
 E= -1343.32751926294     Delta-E=       -0.001284411953 Rises=F Damp=F
 DIIS: error= 7.56D-04 at cycle   7 NSaved=   7.
 NSaved= 7 IEnMin= 7 EnMin= -1343.32751926294     IErMin= 7 ErrMin= 7.56D-04
 ErrMax= 7.56D-04  0.00D+00 EMaxC= 1.00D-01 BMatC= 5.13D-04 BMatP= 1.94D-03
 IDIUse=3 WtCom= 9.92D-01 WtEn= 7.56D-03
 Coeff-Com: -0.190D-01 0.255D-01 0.344D-01-0.842D-02 0.589D-01 0.378D+00
 Coeff-Com:  0.530D+00
 Coeff-En:   0.000D+00 0.000D+00 0.000D+00 0.000D+00 0.000D+00 0.239D+00
 Coeff-En:   0.761D+00
 Coeff:     -0.188D-01 0.253D-01 0.341D-01-0.835D-02 0.585D-01 0.377D+00
 Coeff:      0.532D+00
 Gap=     0.093 Goal=   None    Shift=    0.000
 RMSDP=4.29D-05 MaxDP=4.42D-03 DE=-1.28D-03 OVMax= 6.30D-03

 Cycle   8  Pass 1  IDiag  1:
 RMSU=  1.56D-05    CP:  9.80D-01  1.08D+00  4.27D-01  8.03D-02  7.05D-01
                    CP:  9.17D-01  6.42D-01
 E= -1343.32786654350     Delta-E=       -0.000347280562 Rises=F Damp=F
 DIIS: error= 2.38D-04 at cycle   8 NSaved=   8.
 NSaved= 8 IEnMin= 8 EnMin= -1343.32786654350     IErMin= 8 ErrMin= 2.38D-04
 ErrMax= 2.38D-04  0.00D+00 EMaxC= 1.00D-01 BMatC= 7.24D-05 BMatP= 5.13D-04
 IDIUse=3 WtCom= 9.98D-01 WtEn= 2.38D-03
 Coeff-Com: -0.828D-02 0.107D-01 0.534D-02-0.706D-03 0.231D-02 0.201D+00
 Coeff-Com:  0.366D+00 0.424D+00
 Coeff-En:   0.000D+00 0.000D+00 0.000D+00 0.000D+00 0.000D+00 0.000D+00
 Coeff-En:   0.561D-01 0.944D+00
 Coeff:     -0.827D-02 0.106D-01 0.533D-02-0.705D-03 0.230D-02 0.200D+00
 Coeff:      0.365D+00 0.425D+00
 Gap=     0.093 Goal=   None    Shift=    0.000
 RMSDP=7.90D-06 MaxDP=9.34D-04 DE=-3.47D-04 OVMax= 3.34D-03

 Cycle   9  Pass 1  IDiag  1:
 RMSU=  4.50D-06    CP:  9.80D-01  1.08D+00  4.28D-01  7.95D-02  7.03D-01
                    CP:  9.24D-01  6.85D-01  6.41D-01
 E= -1343.32794224243     Delta-E=       -0.000075698931 Rises=F Damp=F
 DIIS: error= 7.34D-05 at cycle   9 NSaved=   9.
 NSaved= 9 IEnMin= 9 EnMin= -1343.32794224243     IErMin= 9 ErrMin= 7.34D-05
 ErrMax= 7.34D-05  0.00D+00 EMaxC= 1.00D-01 BMatC= 3.69D-06 BMatP= 7.24D-05
 IDIUse=1 WtCom= 1.00D+00 WtEn= 0.00D+00
 Coeff-Com: -0.390D-02 0.494D-02 0.124D-02 0.177D-03-0.278D-02 0.101D+00
 Coeff-Com:  0.195D+00 0.266D+00 0.439D+00
 Coeff:     -0.390D-02 0.494D-02 0.124D-02 0.177D-03-0.278D-02 0.101D+00
 Coeff:      0.195D+00 0.266D+00 0.439D+00
 Gap=     0.093 Goal=   None    Shift=    0.000
 RMSDP=2.06D-06 MaxDP=2.65D-04 DE=-7.57D-05 OVMax= 7.90D-04

 Cycle  10  Pass 1  IDiag  1:
 RMSU=  1.58D-06    CP:  9.80D-01  1.08D+00  4.28D-01  7.92D-02  7.03D-01
                    CP:  9.26D-01  6.86D-01  6.33D-01  7.85D-01
 E= -1343.32794535245     Delta-E=       -0.000003110020 Rises=F Damp=F
 DIIS: error= 3.66D-05 at cycle  10 NSaved=  10.
 NSaved=10 IEnMin=10 EnMin= -1343.32794535245     IErMin=10 ErrMin= 3.66D-05
 ErrMax= 3.66D-05  0.00D+00 EMaxC= 1.00D-01 BMatC= 6.62D-07 BMatP= 3.69D-06
 IDIUse=1 WtCom= 1.00D+00 WtEn= 0.00D+00
 Coeff-Com: -0.164D-02 0.215D-02 0.188D-03 0.171D-03-0.217D-02 0.395D-01
 Coeff-Com:  0.810D-01 0.120D+00 0.311D+00 0.450D+00
 Coeff:     -0.164D-02 0.215D-02 0.188D-03 0.171D-03-0.217D-02 0.395D-01
 Coeff:      0.810D-01 0.120D+00 0.311D+00 0.450D+00
 Gap=     0.093 Goal=   None    Shift=    0.000
 RMSDP=8.87D-07 MaxDP=8.82D-05 DE=-3.11D-06 OVMax= 3.19D-04

 Cycle  11  Pass 1  IDiag  1:
 RMSU=  6.71D-07    CP:  9.80D-01  1.08D+00  4.29D-01  7.92D-02  7.03D-01
                    CP:  9.26D-01  6.84D-01  6.42D-01  7.86D-01  8.22D-01
 E= -1343.32794597137     Delta-E=       -0.000000618918 Rises=F Damp=F
 DIIS: error= 1.16D-05 at cycle  11 NSaved=  11.
 NSaved=11 IEnMin=11 EnMin= -1343.32794597137     IErMin=11 ErrMin= 1.16D-05
 ErrMax= 1.16D-05  0.00D+00 EMaxC= 1.00D-01 BMatC= 7.54D-08 BMatP= 6.62D-07
 IDIUse=1 WtCom= 1.00D+00 WtEn= 0.00D+00
 Coeff-Com: -0.580D-03 0.766D-03 0.341D-05 0.624D-04-0.841D-03 0.126D-01
 Coeff-Com:  0.269D-01 0.421D-01 0.142D+00 0.297D+00 0.480D+00
 Coeff:     -0.580D-03 0.766D-03 0.341D-05 0.624D-04-0.841D-03 0.126D-01
 Coeff:      0.269D-01 0.421D-01 0.142D+00 0.297D+00 0.480D+00
 Gap=     0.093 Goal=   None    Shift=    0.000
 RMSDP=3.49D-07 MaxDP=2.71D-05 DE=-6.19D-07 OVMax= 8.51D-05

 Cycle  12  Pass 1  IDiag  1:
 RMSU=  2.23D-07    CP:  9.80D-01  1.08D+00  4.28D-01  7.92D-02  7.03D-01
                    CP:  9.26D-01  6.86D-01  6.39D-01  7.96D-01  8.44D-01
                    CP:  8.22D-01
 E= -1343.32794603888     Delta-E=       -0.000000067512 Rises=F Damp=F
 DIIS: error= 2.76D-06 at cycle  12 NSaved=  12.
 NSaved=12 IEnMin=12 EnMin= -1343.32794603888     IErMin=12 ErrMin= 2.76D-06
 ErrMax= 2.76D-06  0.00D+00 EMaxC= 1.00D-01 BMatC= 1.05D-08 BMatP= 7.54D-08
 IDIUse=1 WtCom= 1.00D+00 WtEn= 0.00D+00
 Coeff-Com: -0.930D-04 0.120D-03-0.649D-04 0.220D-04-0.184D-03 0.122D-02
 Coeff-Com:  0.297D-02 0.556D-02 0.364D-01 0.114D+00 0.311D+00 0.528D+00
 Coeff:     -0.930D-04 0.120D-03-0.649D-04 0.220D-04-0.184D-03 0.122D-02
 Coeff:      0.297D-02 0.556D-02 0.364D-01 0.114D+00 0.311D+00 0.528D+00
 Gap=     0.093 Goal=   None    Shift=    0.000
 RMSDP=1.21D-07 MaxDP=1.07D-05 DE=-6.75D-08 OVMax= 3.75D-05

 Cycle  13  Pass 1  IDiag  1:
 RMSU=  9.36D-08    CP:  9.80D-01  1.08D+00  4.28D-01  7.92D-02  7.03D-01
                    CP:  9.26D-01  6.86D-01  6.41D-01  7.99D-01  8.56D-01
                    CP:  8.30D-01  8.16D-01
 E= -1343.32794604846     Delta-E=       -0.000000009579 Rises=F Damp=F
 DIIS: error= 1.16D-06 at cycle  13 NSaved=  13.
 NSaved=13 IEnMin=13 EnMin= -1343.32794604846     IErMin=13 ErrMin= 1.16D-06
 ErrMax= 1.16D-06  0.00D+00 EMaxC= 1.00D-01 BMatC= 1.32D-09 BMatP= 1.05D-08
 IDIUse=1 WtCom= 1.00D+00 WtEn= 0.00D+00
 Coeff-Com: -0.271D-04 0.355D-04-0.413D-04 0.657D-05-0.370D-04-0.127D-03
 Coeff-Com: -0.115D-03 0.270D-03 0.124D-01 0.509D-01 0.165D+00 0.342D+00
 Coeff-Com:  0.430D+00
 Coeff:     -0.271D-04 0.355D-04-0.413D-04 0.657D-05-0.370D-04-0.127D-03
 Coeff:     -0.115D-03 0.270D-03 0.124D-01 0.509D-01 0.165D+00 0.342D+00
 Coeff:      0.430D+00
 Gap=     0.093 Goal=   None    Shift=    0.000
 RMSDP=4.38D-08 MaxDP=3.45D-06 DE=-9.58D-09 OVMax= 1.37D-05

 Cycle  14  Pass 1  IDiag  1:
 RMSU=  3.29D-08    CP:  9.80D-01  1.08D+00  4.28D-01  7.92D-02  7.03D-01
                    CP:  9.26D-01  6.86D-01  6.41D-01  8.01D-01  8.54D-01
                    CP:  8.34D-01  8.34D-01  8.08D-01
 E= -1343.32794604977     Delta-E=       -0.000000001312 Rises=F Damp=F
 DIIS: error= 3.79D-07 at cycle  14 NSaved=  14.
 NSaved=14 IEnMin=14 EnMin= -1343.32794604977     IErMin=14 ErrMin= 3.79D-07
 ErrMax= 3.79D-07  0.00D+00 EMaxC= 1.00D-01 BMatC= 1.43D-10 BMatP= 1.32D-09
 IDIUse=1 WtCom= 1.00D+00 WtEn= 0.00D+00
 Coeff-Com: -0.289D-05 0.329D-05-0.192D-04 0.125D-05 0.783D-05-0.292D-03
 Coeff-Com: -0.600D-03-0.777D-03 0.225D-02 0.150D-01 0.579D-01 0.137D+00
 Coeff-Com:  0.268D+00 0.522D+00
 Coeff:     -0.289D-05 0.329D-05-0.192D-04 0.125D-05 0.783D-05-0.292D-03
 Coeff:     -0.600D-03-0.777D-03 0.225D-02 0.150D-01 0.579D-01 0.137D+00
 Coeff:      0.268D+00 0.522D+00
 Gap=     0.093 Goal=   None    Shift=    0.000
 RMSDP=1.64D-08 MaxDP=1.50D-06 DE=-1.31D-09 OVMax= 4.54D-06

 Cycle  15  Pass 1  IDiag  1:
 RMSU=  1.05D-08    CP:  9.80D-01  1.08D+00  4.28D-01  7.92D-02  7.03D-01
                    CP:  9.26D-01  6.86D-01  6.41D-01  8.01D-01  8.57D-01
                    CP:  8.38D-01  8.34D-01  8.46D-01  8.86D-01
 E= -1343.32794604988     Delta-E=       -0.000000000106 Rises=F Damp=F
 DIIS: error= 1.24D-07 at cycle  15 NSaved=  15.
 NSaved=15 IEnMin=15 EnMin= -1343.32794604988     IErMin=15 ErrMin= 1.24D-07
 ErrMax= 1.24D-07  0.00D+00 EMaxC= 1.00D-01 BMatC= 1.93D-11 BMatP= 1.43D-10
 IDIUse=1 WtCom= 1.00D+00 WtEn= 0.00D+00
 Coeff-Com: -0.980D-06 0.145D-05-0.700D-05-0.607D-06 0.117D-04-0.162D-03
 Coeff-Com: -0.357D-03-0.505D-03 0.993D-04 0.403D-02 0.188D-01 0.487D-01
 Coeff-Com:  0.122D+00 0.338D+00 0.469D+00
 Coeff:     -0.980D-06 0.145D-05-0.700D-05-0.607D-06 0.117D-04-0.162D-03
 Coeff:     -0.357D-03-0.505D-03 0.993D-04 0.403D-02 0.188D-01 0.487D-01
 Coeff:      0.122D+00 0.338D+00 0.469D+00
 Gap=     0.093 Goal=   None    Shift=    0.000
 RMSDP=6.92D-09 MaxDP=8.03D-07 DE=-1.06D-10 OVMax= 1.65D-06

 Error on total polarization charges =  0.07137
 SCF Done:  E(RTPSS-TPSS) =  -1343.32794605     A.U. after   15 cycles
            NFock= 15  Conv=0.69D-08     -V/T= 2.0047
 KE= 1.337028969926D+03 PE=-8.670546162322D+03 EE= 3.216617555963D+03
 SMD-CDS (non-electrostatic) energy       (kcal/mol) =      -7.63
 (included in total energy above)
 Leave Link  502 at Tue Mar 30 18:54:42 2021, MaxMem=  5242880000 cpu:     11518.5
 (Enter /opt/nce/packages/global/g09/l601.exe)
 Copying SCF densities to generalized density rwf, IOpCl= 0 IROHF=0.

 **********************************************************************

            Population analysis using the SCF density.

 **********************************************************************

 Alpha  occ. eigenvalues --  -18.94737 -18.87371 -10.11848 -10.06363 -10.02665
 Alpha  occ. eigenvalues --  -10.02105 -10.01992 -10.01932 -10.01892 -10.01423
 Alpha  occ. eigenvalues --  -10.00984 -10.00950 -10.00261 -10.00167 -10.00054
 Alpha  occ. eigenvalues --   -9.99915  -9.99864  -9.99758  -9.99753  -9.99746
 Alpha  occ. eigenvalues --   -9.99637  -9.99540  -9.99531  -9.99527  -9.99457
 Alpha  occ. eigenvalues --   -9.99397  -9.99350  -9.99335  -9.98742  -9.98740
 Alpha  occ. eigenvalues --   -9.98701  -9.98699  -9.98602  -1.05282  -0.97137
 Alpha  occ. eigenvalues --   -0.83196  -0.81408  -0.80455  -0.79538  -0.78152
 Alpha  occ. eigenvalues --   -0.74878  -0.73460  -0.72100  -0.71220  -0.70112
 Alpha  occ. eigenvalues --   -0.69477  -0.69097  -0.68731  -0.67519  -0.65833
 Alpha  occ. eigenvalues --   -0.62420  -0.60051  -0.59476  -0.57391  -0.56647
 Alpha  occ. eigenvalues --   -0.56093  -0.55964  -0.55342  -0.53517  -0.52584
 Alpha  occ. eigenvalues --   -0.50960  -0.49239  -0.48158  -0.47714  -0.45972
 Alpha  occ. eigenvalues --   -0.45008  -0.44144  -0.43684  -0.43493  -0.42136
 Alpha  occ. eigenvalues --   -0.41968  -0.41365  -0.41350  -0.40753  -0.40260
 Alpha  occ. eigenvalues --   -0.39591  -0.39267  -0.39087  -0.38323  -0.38127
 Alpha  occ. eigenvalues --   -0.37598  -0.37503  -0.36669  -0.36407  -0.36083
 Alpha  occ. eigenvalues --   -0.35167  -0.35027  -0.33824  -0.33113  -0.32457
 Alpha  occ. eigenvalues --   -0.32175  -0.31931  -0.31891  -0.31446  -0.31085
 Alpha  occ. eigenvalues --   -0.30414  -0.30107  -0.29015  -0.28639  -0.26903
 Alpha  occ. eigenvalues --   -0.25896  -0.25566  -0.24889  -0.23744  -0.23606
 Alpha  occ. eigenvalues --   -0.22995  -0.22480  -0.21627  -0.21288  -0.19145
 Alpha virt. eigenvalues --   -0.09887  -0.09155  -0.05972  -0.04448  -0.04130
 Alpha virt. eigenvalues --   -0.03632  -0.03488  -0.02906  -0.01470   0.00651
 Alpha virt. eigenvalues --    0.00999   0.04111   0.04345   0.04780   0.05008
 Alpha virt. eigenvalues --    0.05361   0.06161   0.06401   0.07179   0.07844
 Alpha virt. eigenvalues --    0.07960   0.08226   0.08284   0.08981   0.09222
 Alpha virt. eigenvalues --    0.09751   0.10236   0.10387   0.10630   0.10789
 Alpha virt. eigenvalues --    0.10808   0.11310   0.11482   0.11811   0.12547
 Alpha virt. eigenvalues --    0.12704   0.13358   0.13575   0.13977   0.15047
 Alpha virt. eigenvalues --    0.15448   0.15559   0.16204   0.16629   0.17233
 Alpha virt. eigenvalues --    0.17295   0.17530   0.18113   0.18216   0.18636
 Alpha virt. eigenvalues --    0.18966   0.19065   0.19131   0.19744   0.19885
 Alpha virt. eigenvalues --    0.20270   0.20643   0.20990   0.21146   0.21572
 Alpha virt. eigenvalues --    0.21768   0.21943   0.22065   0.22096   0.22533
 Alpha virt. eigenvalues --    0.22624   0.22767   0.22891   0.23164   0.23407
 Alpha virt. eigenvalues --    0.23610   0.24153   0.24298   0.24609   0.24905
 Alpha virt. eigenvalues --    0.25122   0.25872   0.26061   0.26303   0.26692
 Alpha virt. eigenvalues --    0.26695   0.27026   0.27456   0.27972   0.28288
 Alpha virt. eigenvalues --    0.28484   0.28969   0.29298   0.29547   0.30299
 Alpha virt. eigenvalues --    0.30544   0.30557   0.31239   0.31475   0.31786
 Alpha virt. eigenvalues --    0.32015   0.32381   0.32449   0.32458   0.32556
 Alpha virt. eigenvalues --    0.33102   0.33137   0.33696   0.33891   0.34378
 Alpha virt. eigenvalues --    0.34448   0.34839   0.35400   0.35808   0.36095
 Alpha virt. eigenvalues --    0.36462   0.36505   0.36630   0.36861   0.37250
 Alpha virt. eigenvalues --    0.37770   0.38118   0.38750   0.39094   0.39196
 Alpha virt. eigenvalues --    0.39661   0.39886   0.40332   0.40447   0.40455
 Alpha virt. eigenvalues --    0.40649   0.40833   0.41528   0.41548   0.41866
 Alpha virt. eigenvalues --    0.42356   0.42997   0.43211   0.43366   0.43636
 Alpha virt. eigenvalues --    0.44426   0.44909   0.45021   0.45522   0.45708
 Alpha virt. eigenvalues --    0.45902   0.46285   0.46456   0.46541   0.46665
 Alpha virt. eigenvalues --    0.47399   0.47655   0.47969   0.48065   0.48400
 Alpha virt. eigenvalues --    0.48586   0.48825   0.49077   0.49315   0.49662
 Alpha virt. eigenvalues --    0.50149   0.50270   0.51128   0.51252   0.51884
 Alpha virt. eigenvalues --    0.52576   0.52983   0.53698   0.54076   0.54308
 Alpha virt. eigenvalues --    0.54647   0.55314   0.55563   0.56550   0.56781
 Alpha virt. eigenvalues --    0.58123   0.58865   0.59274   0.60225   0.60477
 Alpha virt. eigenvalues --    0.60577   0.61330   0.61877   0.62004   0.62284
 Alpha virt. eigenvalues --    0.62429   0.62895   0.63132   0.63261   0.63413
 Alpha virt. eigenvalues --    0.63822   0.63987   0.64119   0.64574   0.65057
 Alpha virt. eigenvalues --    0.65203   0.65551   0.65642   0.66050   0.66234
 Alpha virt. eigenvalues --    0.66981   0.67252   0.67459   0.67727   0.67782
 Alpha virt. eigenvalues --    0.68065   0.68860   0.69289   0.69444   0.69800
 Alpha virt. eigenvalues --    0.70154   0.70587   0.71138   0.71255   0.71786
 Alpha virt. eigenvalues --    0.72432   0.72512   0.73084   0.73151   0.73243
 Alpha virt. eigenvalues --    0.74102   0.74466   0.74903   0.75576   0.75909
 Alpha virt. eigenvalues --    0.76012   0.76808   0.76969   0.77059   0.77565
 Alpha virt. eigenvalues --    0.78437   0.78956   0.78982   0.79370   0.80043
 Alpha virt. eigenvalues --    0.81020   0.81221   0.81542   0.81945   0.82038
 Alpha virt. eigenvalues --    0.82898   0.83097   0.83414   0.83604   0.83668
 Alpha virt. eigenvalues --    0.83873   0.84491   0.85126   0.85417   0.86095
 Alpha virt. eigenvalues --    0.86452   0.86515   0.87026   0.87233   0.88163
 Alpha virt. eigenvalues --    0.88284   0.88743   0.89259   0.89507   0.90234
 Alpha virt. eigenvalues --    0.90869   0.91503   0.91791   0.92270   0.93289
 Alpha virt. eigenvalues --    0.95804   0.95938   0.96232   0.97072   0.97106
 Alpha virt. eigenvalues --    0.97668   0.97926   0.98582   0.98806   0.99194
 Alpha virt. eigenvalues --    0.99877   1.00041   1.01004   1.01780   1.02762
 Alpha virt. eigenvalues --    1.03188   1.03610   1.03814   1.04387   1.04541
 Alpha virt. eigenvalues --    1.05325   1.05342   1.06430   1.06741   1.07950
 Alpha virt. eigenvalues --    1.09042   1.09258   1.09988   1.10197   1.10325
 Alpha virt. eigenvalues --    1.11250   1.11971   1.12028   1.12921   1.13488
 Alpha virt. eigenvalues --    1.14262   1.14833   1.15182   1.16079   1.16918
 Alpha virt. eigenvalues --    1.18006   1.18131   1.18353   1.19118   1.19377
 Alpha virt. eigenvalues --    1.19878   1.19998   1.20329   1.20330   1.21067
 Alpha virt. eigenvalues --    1.21724   1.22114   1.22235   1.23009   1.23318
 Alpha virt. eigenvalues --    1.23404   1.24810   1.24900   1.25232   1.25821
 Alpha virt. eigenvalues --    1.26486   1.27290   1.27356   1.28207   1.28428
 Alpha virt. eigenvalues --    1.28839   1.29081   1.29245   1.30753   1.31156
 Alpha virt. eigenvalues --    1.31381   1.32994   1.33416   1.33472   1.34066
 Alpha virt. eigenvalues --    1.34234   1.35097   1.35759   1.36416   1.36603
 Alpha virt. eigenvalues --    1.37215   1.37549   1.38518   1.39526   1.39859
 Alpha virt. eigenvalues --    1.40015   1.40790   1.41426   1.41759   1.42176
 Alpha virt. eigenvalues --    1.42777   1.42871   1.43927   1.44714   1.44727
 Alpha virt. eigenvalues --    1.45437   1.45461   1.45605   1.45609   1.45802
 Alpha virt. eigenvalues --    1.47312   1.47465   1.47677   1.48248   1.48581
 Alpha virt. eigenvalues --    1.49037   1.49144   1.49355   1.49539   1.50609
 Alpha virt. eigenvalues --    1.51660   1.51817   1.52761   1.53429   1.53548
 Alpha virt. eigenvalues --    1.54576   1.54746   1.55637   1.56165   1.56716
 Alpha virt. eigenvalues --    1.57764   1.58285   1.58586   1.58726   1.59062
 Alpha virt. eigenvalues --    1.59867   1.60147   1.60882   1.61250   1.61316
 Alpha virt. eigenvalues --    1.61894   1.63310   1.63544   1.63717   1.63962
 Alpha virt. eigenvalues --    1.64660   1.64858   1.65702   1.65703   1.66211
 Alpha virt. eigenvalues --    1.66505   1.66682   1.66812   1.67135   1.67740
 Alpha virt. eigenvalues --    1.67944   1.68763   1.69260   1.69541   1.70007
 Alpha virt. eigenvalues --    1.71373   1.71679   1.71951   1.72566   1.73696
 Alpha virt. eigenvalues --    1.74098   1.74185   1.74681   1.75819   1.76017
 Alpha virt. eigenvalues --    1.77172   1.78006   1.78540   1.79541   1.80722
 Alpha virt. eigenvalues --    1.80880   1.81876   1.82023   1.82885   1.83487
 Alpha virt. eigenvalues --    1.83577   1.84839   1.85598   1.86115   1.87974
 Alpha virt. eigenvalues --    1.88755   1.89144   1.89765   1.90057   1.90111
 Alpha virt. eigenvalues --    1.91122   1.93184   1.93373   1.93769   1.95433
 Alpha virt. eigenvalues --    1.95765   1.96617   1.96984   1.97140   1.98271
 Alpha virt. eigenvalues --    1.98530   1.99084   1.99842   2.00887   2.00899
 Alpha virt. eigenvalues --    2.01700   2.03222   2.03323   2.04539   2.05690
 Alpha virt. eigenvalues --    2.06346   2.06367   2.07053   2.07742   2.07950
 Alpha virt. eigenvalues --    2.08126   2.08471   2.09121   2.09562   2.09769
 Alpha virt. eigenvalues --    2.10392   2.11356   2.12316   2.12543   2.12556
 Alpha virt. eigenvalues --    2.13201   2.13924   2.14239   2.14475   2.14597
 Alpha virt. eigenvalues --    2.15967   2.16085   2.16374   2.16727   2.17696
 Alpha virt. eigenvalues --    2.19277   2.19595   2.20762   2.21876   2.22089
 Alpha virt. eigenvalues --    2.23298   2.23433   2.23721   2.24828   2.25674
 Alpha virt. eigenvalues --    2.25843   2.27815   2.29214   2.30082   2.30160
 Alpha virt. eigenvalues --    2.30976   2.31280   2.32053   2.34158   2.34521
 Alpha virt. eigenvalues --    2.34556   2.36062   2.36865   2.39421   2.40441
 Alpha virt. eigenvalues --    2.40727   2.42102   2.42746   2.44233   2.44582
 Alpha virt. eigenvalues --    2.44593   2.45142   2.45457   2.46854   2.46998
 Alpha virt. eigenvalues --    2.47398   2.48436   2.49312   2.49457   2.51186
 Alpha virt. eigenvalues --    2.51341   2.51807   2.52390   2.53047   2.53120
 Alpha virt. eigenvalues --    2.53896   2.54506   2.55102   2.56199   2.56831
 Alpha virt. eigenvalues --    2.57338   2.57366   2.57747   2.58203   2.58717
 Alpha virt. eigenvalues --    2.58757   2.59455   2.59931   2.60055   2.60656
 Alpha virt. eigenvalues --    2.60969   2.61740   2.61753   2.62514   2.62904
 Alpha virt. eigenvalues --    2.63291   2.63886   2.64143   2.64314   2.64372
 Alpha virt. eigenvalues --    2.64836   2.65147   2.65510   2.65609   2.66408
 Alpha virt. eigenvalues --    2.66514   2.66944   2.67143   2.67338   2.68258
 Alpha virt. eigenvalues --    2.68967   2.69091   2.69955   2.70820   2.70987
 Alpha virt. eigenvalues --    2.71705   2.71965   2.72439   2.72756   2.72890
 Alpha virt. eigenvalues --    2.73389   2.74202   2.74253   2.75135   2.75348
 Alpha virt. eigenvalues --    2.75855   2.76594   2.76813   2.77097   2.77501
 Alpha virt. eigenvalues --    2.77901   2.77978   2.78841   2.79228   2.79298
 Alpha virt. eigenvalues --    2.80049   2.80104   2.80673   2.81264   2.81919
 Alpha virt. eigenvalues --    2.81999   2.82443   2.82975   2.83026   2.83911
 Alpha virt. eigenvalues --    2.83972   2.84371   2.84960   2.85613   2.85764
 Alpha virt. eigenvalues --    2.86277   2.86423   2.86665   2.86978   2.87325
 Alpha virt. eigenvalues --    2.88016   2.88101   2.88463   2.89592   2.89645
 Alpha virt. eigenvalues --    2.89958   2.90701   2.90770   2.91450   2.91995
 Alpha virt. eigenvalues --    2.93179   2.93347   2.94109   2.94127   2.94833
 Alpha virt. eigenvalues --    2.95184   2.95955   2.95990   2.96637   2.96866
 Alpha virt. eigenvalues --    2.97361   2.97856   2.98915   2.98996   2.99529
 Alpha virt. eigenvalues --    2.99586   2.99989   3.00110   3.00413   3.01514
 Alpha virt. eigenvalues --    3.02018   3.02210   3.03379   3.04364   3.04649
 Alpha virt. eigenvalues --    3.05071   3.05229   3.07024   3.07177   3.07725
 Alpha virt. eigenvalues --    3.07736   3.07790   3.08285   3.08814   3.09106
 Alpha virt. eigenvalues --    3.09556   3.09792   3.10751   3.11264   3.11748
 Alpha virt. eigenvalues --    3.11819   3.12290   3.12300   3.12436   3.12723
 Alpha virt. eigenvalues --    3.12887   3.13622   3.14080   3.14211   3.15476
 Alpha virt. eigenvalues --    3.15964   3.16244   3.16655   3.16688   3.17817
 Alpha virt. eigenvalues --    3.18072   3.18091   3.18969   3.19201   3.19597
 Alpha virt. eigenvalues --    3.19764   3.20863   3.20866   3.21786   3.22163
 Alpha virt. eigenvalues --    3.22781   3.24145   3.24561   3.24849   3.25226
 Alpha virt. eigenvalues --    3.25773   3.25901   3.26281   3.26712   3.27011
 Alpha virt. eigenvalues --    3.27257   3.28126   3.28431   3.28764   3.29085
 Alpha virt. eigenvalues --    3.29404   3.29505   3.29981   3.30092   3.31201
 Alpha virt. eigenvalues --    3.31240   3.31973   3.32528   3.33170   3.33935
 Alpha virt. eigenvalues --    3.34361   3.34552   3.34611   3.35338   3.35586
 Alpha virt. eigenvalues --    3.36045   3.36485   3.36529   3.36909   3.37012
 Alpha virt. eigenvalues --    3.37906   3.37940   3.38706   3.39140   3.39498
 Alpha virt. eigenvalues --    3.40295   3.40738   3.40791   3.41195   3.41898
 Alpha virt. eigenvalues --    3.42257   3.42899   3.43100   3.43355   3.44637
 Alpha virt. eigenvalues --    3.45034   3.45628   3.45847   3.46636   3.47071
 Alpha virt. eigenvalues --    3.47249   3.47367   3.47629   3.48196   3.48274
 Alpha virt. eigenvalues --    3.48571   3.49216   3.49403   3.49493   3.50628
 Alpha virt. eigenvalues --    3.50764   3.51013   3.51587   3.51638   3.51922
 Alpha virt. eigenvalues --    3.52092   3.52511   3.53337   3.53455   3.54414
 Alpha virt. eigenvalues --    3.54971   3.55896   3.56711   3.58105   3.59007
 Alpha virt. eigenvalues --    3.59475   3.59676   3.59763   3.60868   3.62973
 Alpha virt. eigenvalues --    3.63165   3.64684   3.64839   3.66047   3.66936
 Alpha virt. eigenvalues --    3.67285   3.67554   3.68689   3.69247   3.69383
 Alpha virt. eigenvalues --    3.70245   3.70622   3.70719   3.71555   3.73100
 Alpha virt. eigenvalues --    3.73539   3.73704   3.74567   3.74785   3.76633
 Alpha virt. eigenvalues --    3.77055   3.77388   3.78167   3.80177   3.80564
 Alpha virt. eigenvalues --    3.80808   3.81806   3.82922   3.84761   3.86559
 Alpha virt. eigenvalues --    3.88304   3.88448   3.88912   3.90041   3.90440
 Alpha virt. eigenvalues --    3.91999   3.92184   3.92593   3.94813   3.95237
 Alpha virt. eigenvalues --    3.96163   3.96456   3.97159   3.97682   3.98653
 Alpha virt. eigenvalues --    3.99089   3.99886   4.00640   4.02263   4.02611
 Alpha virt. eigenvalues --    4.03667   4.03857   4.03931   4.05273   4.06832
 Alpha virt. eigenvalues --    4.07531   4.07711   4.09200   4.09724   4.10410
 Alpha virt. eigenvalues --    4.10808   4.12469   4.12998   4.13501   4.13935
 Alpha virt. eigenvalues --    4.14828   4.14839   4.15359   4.15741   4.16438
 Alpha virt. eigenvalues --    4.17400   4.18085   4.18875   4.19026   4.19635
 Alpha virt. eigenvalues --    4.20306   4.20311   4.20645   4.20895   4.21422
 Alpha virt. eigenvalues --    4.21627   4.21984   4.22708   4.23633   4.23981
 Alpha virt. eigenvalues --    4.24515   4.24588   4.26447   4.26561   4.27077
 Alpha virt. eigenvalues --    4.27868   4.28053   4.28884   4.29379   4.29607
 Alpha virt. eigenvalues --    4.30784   4.31843   4.32196   4.33081   4.33212
 Alpha virt. eigenvalues --    4.35574   4.36520   4.37032   4.38411   4.39377
 Alpha virt. eigenvalues --    4.41030   4.42538   4.43293   4.47097   4.48585
 Alpha virt. eigenvalues --    4.48679   4.49359   4.51205   4.52118   4.53411
 Alpha virt. eigenvalues --    4.55194   4.55993   4.57134   4.59377   4.61751
 Alpha virt. eigenvalues --    4.62268   4.63501   4.63830   4.65253   4.66327
 Alpha virt. eigenvalues --    4.67360   4.67543   4.67846   4.69734   4.70717
 Alpha virt. eigenvalues --    4.71356   4.72451   4.72860   4.74425   4.75903
 Alpha virt. eigenvalues --    4.76063   4.76300   4.78196   4.79878   4.82555
 Alpha virt. eigenvalues --    4.83282   4.84067   4.84827   4.86987   4.88581
 Alpha virt. eigenvalues --    4.89143   4.89440   4.91732   4.93435   4.93626
 Alpha virt. eigenvalues --    4.95233   4.97329   4.98762   4.99494   5.02059
 Alpha virt. eigenvalues --    5.06574   5.09013   5.09987   5.14183   5.14554
 Alpha virt. eigenvalues --    5.15788   5.16466   5.17072   5.19603   5.20467
 Alpha virt. eigenvalues --    5.21451   5.21707   5.23108   5.23433   5.24191
 Alpha virt. eigenvalues --    5.24643   5.25250   5.27804   5.29318   5.30343
 Alpha virt. eigenvalues --    5.32792   5.36710   5.38135   5.40820   5.41712
 Alpha virt. eigenvalues --    5.45211   5.46526   5.49148   5.49346   5.50017
 Alpha virt. eigenvalues --    5.53304   5.57141   5.59265   5.61312   5.64950
 Alpha virt. eigenvalues --    5.66674   5.67345   5.71746   5.72885   5.75019
 Alpha virt. eigenvalues --    5.77393   5.81774   5.85299   5.88233   5.88759
 Alpha virt. eigenvalues --    5.91574   6.04930   6.15617   6.18817   6.34277
 Alpha virt. eigenvalues --    6.37715   6.45008   6.51820   6.56095   6.60521
 Alpha virt. eigenvalues --    6.80259   6.82753   6.85599   6.98747   7.09921
 Alpha virt. eigenvalues --    7.27087   7.39819   7.47040  22.09844  22.19498
 Alpha virt. eigenvalues --   22.24689  22.44838  22.49590  22.51397  22.52529
 Alpha virt. eigenvalues --   22.54811  22.57538  22.61466  22.61800  22.64562
 Alpha virt. eigenvalues --   22.67282  22.68652  22.71811  22.75127  22.78451
 Alpha virt. eigenvalues --   22.84786  22.85500  22.92477  22.96412  23.02244
 Alpha virt. eigenvalues --   23.11968  23.16074  23.17003  23.26204  23.41761
 Alpha virt. eigenvalues --   23.49264  23.72711  23.89687  24.20426  43.99213
 Alpha virt. eigenvalues --   44.44065
          Condensed to atoms (all electrons):
 Mulliken charges:
               1
     1  C   -0.098482
     2  C   -0.266015
     3  C    0.183066
     4  C    0.080741
     5  C   -0.194018
     6  C   -0.139370
     7  C   -0.423508
     8  C    0.287244
     9  C   -0.121801
    10  C    0.167586
    11  C    0.124798
    12  C    0.251943
    13  C    0.264580
    14  H    0.133290
    15  H    0.144904
    16  H    0.140388
    17  H    0.157726
    18  H    0.142719
[...]
 Alpha virt. eigenvalues --    0.63877   0.63891   0.64149   0.64499   0.65135
 Alpha virt. eigenvalues --    0.65286   0.65501   0.65627   0.66161   0.66277
 Alpha virt. eigenvalues --    0.66957   0.67284   0.67562   0.67755   0.67811
 Alpha virt. eigenvalues --    0.68189   0.68893   0.69398   0.69517   0.69821
 Alpha virt. eigenvalues --    0.70271   0.70620   0.71144   0.71235   0.71814
 Alpha virt. eigenvalues --    0.72433   0.72590   0.73062   0.73131   0.73365
 Alpha virt. eigenvalues --    0.74223   0.74447   0.74914   0.75681   0.75949
 Alpha virt. eigenvalues --    0.76033   0.76785   0.77021   0.77062   0.77656
 Alpha virt. eigenvalues --    0.78422   0.79069   0.79101   0.79448   0.80119
 Alpha virt. eigenvalues --    0.81056   0.81186   0.81654   0.81848   0.82013
 Alpha virt. eigenvalues --    0.83012   0.83125   0.83400   0.83591   0.83748
 Alpha virt. eigenvalues --    0.83960   0.84576   0.85081   0.85542   0.86134
 Alpha virt. eigenvalues --    0.86477   0.86523   0.87013   0.87296   0.88248
 Alpha virt. eigenvalues --    0.88299   0.88660   0.89321   0.89596   0.90260
 Alpha virt. eigenvalues --    0.90885   0.91464   0.91801   0.92233   0.93318
 Alpha virt. eigenvalues --    0.95823   0.95861   0.96194   0.97064   0.97195
 Alpha virt. eigenvalues --    0.97663   0.97939   0.98714   0.98819   0.99210
 Alpha virt. eigenvalues --    0.99893   1.00011   1.01090   1.01703   1.02546
 Alpha virt. eigenvalues --    1.03197   1.03567   1.03854   1.04267   1.04608
 Alpha virt. eigenvalues --    1.05211   1.05367   1.06441   1.06626   1.07928
 Alpha virt. eigenvalues --    1.08826   1.09328   1.10002   1.10234   1.10269
 Alpha virt. eigenvalues --    1.11294   1.11961   1.11978   1.12930   1.13446
 Alpha virt. eigenvalues --    1.14352   1.14769   1.15168   1.16100   1.16927
 Alpha virt. eigenvalues --    1.17980   1.18150   1.18387   1.19081   1.19356
 Alpha virt. eigenvalues --    1.19769   1.19995   1.20366   1.20385   1.21061
 Alpha virt. eigenvalues --    1.21764   1.22117   1.22188   1.22942   1.23241
 Alpha virt. eigenvalues --    1.23418   1.24807   1.24860   1.25239   1.25792
 Alpha virt. eigenvalues --    1.26467   1.27345   1.27401   1.28231   1.28425
 Alpha virt. eigenvalues --    1.28774   1.29132   1.29334   1.30584   1.31218
 Alpha virt. eigenvalues --    1.31315   1.33007   1.33405   1.33452   1.34095
 Alpha virt. eigenvalues --    1.34190   1.35135   1.35732   1.36483   1.36595
 Alpha virt. eigenvalues --    1.36977   1.37411   1.38507   1.39451   1.39913
 Alpha virt. eigenvalues --    1.40135   1.40688   1.41430   1.41750   1.42146
 Alpha virt. eigenvalues --    1.42746   1.42802   1.44024   1.44753   1.44796
 Alpha virt. eigenvalues --    1.45360   1.45533   1.45677   1.45715   1.45756
 Alpha virt. eigenvalues --    1.47334   1.47504   1.47701   1.48278   1.48450
 Alpha virt. eigenvalues --    1.49086   1.49116   1.49391   1.49507   1.50521
 Alpha virt. eigenvalues --    1.51709   1.51910   1.52773   1.53446   1.53506
 Alpha virt. eigenvalues --    1.54690   1.54704   1.55665   1.56168   1.56711
 Alpha virt. eigenvalues --    1.57503   1.58258   1.58520   1.58777   1.59239
 Alpha virt. eigenvalues --    1.59885   1.60201   1.60900   1.61193   1.61381
 Alpha virt. eigenvalues --    1.61906   1.63383   1.63542   1.63773   1.64003
 Alpha virt. eigenvalues --    1.64654   1.64948   1.65731   1.65858   1.66194
 Alpha virt. eigenvalues --    1.66484   1.66667   1.66939   1.67104   1.67651
 Alpha virt. eigenvalues --    1.68001   1.68756   1.69284   1.69612   1.70037
 Alpha virt. eigenvalues --    1.71203   1.71782   1.72079   1.72619   1.73698
 Alpha virt. eigenvalues --    1.74059   1.74202   1.74565   1.75883   1.76249
 Alpha virt. eigenvalues --    1.77359   1.78030   1.78395   1.79634   1.80651
 Alpha virt. eigenvalues --    1.80983   1.81867   1.82125   1.83071   1.83579
 Alpha virt. eigenvalues --    1.83720   1.85073   1.85663   1.86200   1.87842
 Alpha virt. eigenvalues --    1.88997   1.89522   1.89851   1.90246   1.90353
 Alpha virt. eigenvalues --    1.91108   1.93272   1.93707   1.94001   1.95454
 Alpha virt. eigenvalues --    1.96122   1.96648   1.97284   1.97317   1.98177
 Alpha virt. eigenvalues --    1.98858   1.99121   1.99923   2.00993   2.01251
 Alpha virt. eigenvalues --    2.02228   2.03544   2.03698   2.04432   2.05926
 Alpha virt. eigenvalues --    2.06438   2.06533   2.06968   2.07797   2.08087
 Alpha virt. eigenvalues --    2.08167   2.08398   2.09300   2.09671   2.09908
 Alpha virt. eigenvalues --    2.10361   2.11446   2.12284   2.12477   2.12572
 Alpha virt. eigenvalues --    2.13360   2.13954   2.14254   2.14608   2.14676
 Alpha virt. eigenvalues --    2.15994   2.16306   2.16483   2.16983   2.17674
 Alpha virt. eigenvalues --    2.19281   2.19649   2.20816   2.21743   2.22183
 Alpha virt. eigenvalues --    2.23316   2.23366   2.23895   2.24863   2.25572
 Alpha virt. eigenvalues --    2.25846   2.27722   2.28803   2.30077   2.30411
 Alpha virt. eigenvalues --    2.30672   2.31443   2.31917   2.34139   2.34236
 Alpha virt. eigenvalues --    2.34462   2.36415   2.37011   2.39455   2.40264
 Alpha virt. eigenvalues --    2.41180   2.42141   2.42706   2.44277   2.44567
 Alpha virt. eigenvalues --    2.44715   2.45366   2.45702   2.46811   2.46979
 Alpha virt. eigenvalues --    2.47444   2.48379   2.49383   2.49471   2.51294
 Alpha virt. eigenvalues --    2.51511   2.52026   2.52556   2.53213   2.53567
 Alpha virt. eigenvalues --    2.54015   2.54650   2.55121   2.56525   2.56881
 Alpha virt. eigenvalues --    2.57443   2.57747   2.57920   2.58441   2.58899
 Alpha virt. eigenvalues --    2.59022   2.59836   2.59963   2.60272   2.61018
 Alpha virt. eigenvalues --    2.61368   2.61794   2.62200   2.62428   2.63238
 Alpha virt. eigenvalues --    2.63469   2.64143   2.64288   2.64349   2.64533
 Alpha virt. eigenvalues --    2.65010   2.65185   2.65600   2.65804   2.66346
 Alpha virt. eigenvalues --    2.66685   2.66924   2.67396   2.67455   2.68482
 Alpha virt. eigenvalues --    2.68990   2.69143   2.70128   2.70664   2.71140
 Alpha virt. eigenvalues --    2.71779   2.71895   2.72353   2.72656   2.72907
 Alpha virt. eigenvalues --    2.73539   2.74152   2.74490   2.75235   2.75245
 Alpha virt. eigenvalues --    2.76214   2.76491   2.76962   2.77427   2.77701
 Alpha virt. eigenvalues --    2.77867   2.78259   2.79159   2.79353   2.79533
 Alpha virt. eigenvalues --    2.80241   2.80299   2.80732   2.81310   2.81929
 Alpha virt. eigenvalues --    2.82489   2.82750   2.83184   2.83434   2.84244
 Alpha virt. eigenvalues --    2.84299   2.84586   2.85213   2.85658   2.86124
 Alpha virt. eigenvalues --    2.86273   2.86660   2.86751   2.87131   2.87302
 Alpha virt. eigenvalues --    2.87997   2.88437   2.88690   2.89582   2.89970
 Alpha virt. eigenvalues --    2.90066   2.90740   2.90944   2.91459   2.92164
 Alpha virt. eigenvalues --    2.93216   2.93420   2.94094   2.94323   2.94889
 Alpha virt. eigenvalues --    2.95248   2.95999   2.96400   2.96677   2.96994
 Alpha virt. eigenvalues --    2.97176   2.98192   2.98946   2.99105   2.99482
 Alpha virt. eigenvalues --    2.99776   2.99880   3.00307   3.00604   3.01408
 Alpha virt. eigenvalues --    3.02118   3.02372   3.03568   3.04176   3.04755
 Alpha virt. eigenvalues --    3.05154   3.05408   3.06885   3.07426   3.07737
 Alpha virt. eigenvalues --    3.07744   3.07773   3.07940   3.08704   3.09136
 Alpha virt. eigenvalues --    3.09672   3.09780   3.10828   3.11334   3.11872
 Alpha virt. eigenvalues --    3.12023   3.12234   3.12510   3.12531   3.12807
 Alpha virt. eigenvalues --    3.13118   3.13811   3.14129   3.14192   3.15457
 Alpha virt. eigenvalues --    3.15840   3.16200   3.16629   3.16810   3.17946
 Alpha virt. eigenvalues --    3.17980   3.18085   3.19050   3.19073   3.19609
 Alpha virt. eigenvalues --    3.19838   3.20796   3.21092   3.21722   3.22239
 Alpha virt. eigenvalues --    3.22735   3.24194   3.24510   3.24710   3.25355
 Alpha virt. eigenvalues --    3.25738   3.25986   3.26361   3.26891   3.27152
 Alpha virt. eigenvalues --    3.27362   3.27965   3.28361   3.28808   3.29250
 Alpha virt. eigenvalues --    3.29421   3.29636   3.29965   3.30111   3.31162
 Alpha virt. eigenvalues --    3.31310   3.32039   3.32475   3.33178   3.33854
 Alpha virt. eigenvalues --    3.34300   3.34538   3.34664   3.35396   3.35497
 Alpha virt. eigenvalues --    3.36005   3.36629   3.36821   3.36875   3.37029
 Alpha virt. eigenvalues --    3.37903   3.37977   3.38818   3.39169   3.39197
 Alpha virt. eigenvalues --    3.40049   3.40624   3.40759   3.41277   3.41891
 Alpha virt. eigenvalues --    3.42289   3.42901   3.43101   3.43274   3.44590
 Alpha virt. eigenvalues --    3.45056   3.45520   3.45849   3.46647   3.46908
 Alpha virt. eigenvalues --    3.47335   3.47376   3.47883   3.48179   3.48217
 Alpha virt. eigenvalues --    3.48616   3.49133   3.49216   3.49255   3.50772
 Alpha virt. eigenvalues --    3.50864   3.51236   3.51699   3.51802   3.51844
 Alpha virt. eigenvalues --    3.52141   3.52704   3.53316   3.53524   3.54554
 Alpha virt. eigenvalues --    3.55178   3.55882   3.56878   3.58163   3.58922
 Alpha virt. eigenvalues --    3.59557   3.59621   3.59684   3.60871   3.62978
 Alpha virt. eigenvalues --    3.62996   3.64836   3.64920   3.66099   3.66897
 Alpha virt. eigenvalues --    3.67266   3.67686   3.68868   3.69003   3.69524
 Alpha virt. eigenvalues --    3.70065   3.70436   3.70771   3.71871   3.73220
 Alpha virt. eigenvalues --    3.73326   3.73796   3.74705   3.75173   3.76651
 Alpha virt. eigenvalues --    3.77206   3.77357   3.78313   3.80241   3.80824
 Alpha virt. eigenvalues --    3.80839   3.81965   3.83169   3.85030   3.86780
 Alpha virt. eigenvalues --    3.88451   3.88561   3.89206   3.90371   3.90670
 Alpha virt. eigenvalues --    3.92327   3.92642   3.92883   3.94808   3.95165
 Alpha virt. eigenvalues --    3.96459   3.97022   3.97356   3.98151   3.98827
 Alpha virt. eigenvalues --    3.99913   4.00240   4.01039   4.02591   4.02979
 Alpha virt. eigenvalues --    4.04180   4.04473   4.04596   4.06111   4.06961
 Alpha virt. eigenvalues --    4.07798   4.07825   4.09423   4.10105   4.10757
 Alpha virt. eigenvalues --    4.10967   4.12858   4.13165   4.13828   4.14051
 Alpha virt. eigenvalues --    4.14893   4.15059   4.15676   4.16121   4.16778
 Alpha virt. eigenvalues --    4.17638   4.18163   4.18920   4.19107   4.19763
 Alpha virt. eigenvalues --    4.20448   4.20582   4.20986   4.21265   4.21554
 Alpha virt. eigenvalues --    4.21791   4.22228   4.22926   4.23830   4.24143
 Alpha virt. eigenvalues --    4.24908   4.24931   4.26292   4.26844   4.27376
 Alpha virt. eigenvalues --    4.28024   4.28179   4.28914   4.29717   4.30089
 Alpha virt. eigenvalues --    4.30873   4.32009   4.32133   4.33360   4.33407
 Alpha virt. eigenvalues --    4.35873   4.36845   4.37264   4.38972   4.39856
 Alpha virt. eigenvalues --    4.41317   4.42394   4.43632   4.47393   4.48628
 Alpha virt. eigenvalues --    4.48747   4.49646   4.51228   4.52055   4.53491
 Alpha virt. eigenvalues --    4.54816   4.56163   4.57184   4.59777   4.62106
 Alpha virt. eigenvalues --    4.62295   4.63756   4.64059   4.65482   4.66334
 Alpha virt. eigenvalues --    4.67410   4.67699   4.68107   4.69794   4.70704
 Alpha virt. eigenvalues --    4.71812   4.72812   4.73527   4.74686   4.76031
 Alpha virt. eigenvalues --    4.76261   4.76611   4.78977   4.80373   4.83054
 Alpha virt. eigenvalues --    4.83754   4.84747   4.85030   4.87123   4.89588
 Alpha virt. eigenvalues --    4.89696   4.89977   4.91986   4.93652   4.94201
 Alpha virt. eigenvalues --    4.95738   4.97973   4.99176   4.99518   5.02111
 Alpha virt. eigenvalues --    5.06786   5.09587   5.10425   5.14230   5.14713
 Alpha virt. eigenvalues --    5.16605   5.17075   5.17162   5.20106   5.20980
 Alpha virt. eigenvalues --    5.22096   5.22262   5.22978   5.23841   5.23937
 Alpha virt. eigenvalues --    5.24563   5.25846   5.28387   5.29388   5.30844
 Alpha virt. eigenvalues --    5.33356   5.36763   5.38155   5.40445   5.41907
 Alpha virt. eigenvalues --    5.45522   5.46547   5.48558   5.49662   5.50203
 Alpha virt. eigenvalues --    5.53319   5.57258   5.59447   5.61156   5.64747
 Alpha virt. eigenvalues --    5.67002   5.67018   5.71869   5.73077   5.75602
 Alpha virt. eigenvalues --    5.77338   5.81421   5.81900   5.86380   5.88724
 Alpha virt. eigenvalues --    5.91196   6.03907   6.13272   6.15359   6.31383
 Alpha virt. eigenvalues --    6.37161   6.42097   6.50761   6.55710   6.59611
 Alpha virt. eigenvalues --    6.79891   6.82455   6.84784   6.96119   7.08081
 Alpha virt. eigenvalues --    7.23981   7.38458   7.46868  22.10773  22.19962
 Alpha virt. eigenvalues --   22.25481  22.45819  22.50882  22.52482  22.53531
 Alpha virt. eigenvalues --   22.55486  22.58998  22.62568  22.62738  22.65576
 Alpha virt. eigenvalues --   22.67656  22.69812  22.73074  22.76105  22.79071
 Alpha virt. eigenvalues --   22.85343  22.86057  22.93277  22.95998  23.01848
 Alpha virt. eigenvalues --   23.12805  23.16000  23.17373  23.25520  23.38417
 Alpha virt. eigenvalues --   23.48083  23.73449  23.89518  24.21021  43.97887
 Alpha virt. eigenvalues --   44.41254
          Condensed to atoms (all electrons):
 Mulliken charges:
               1
     1  C   -0.098478
     2  C   -0.264782
     3  C    0.182183
     4  C    0.081413
     5  C   -0.194577
     6  C   -0.137415
     7  C   -0.419396
     8  C    0.285416
     9  C   -0.106104
    10  C    0.171520
    11  C    0.127258
    12  C    0.258531
    13  C    0.259548
    14  H    0.133556
    15  H    0.144727
    16  H    0.140359
    17  H    0.157756
    18  H    0.142848
    19  C   -0.022748
    20  C   -0.166105
    21  C   -0.166108
    22  C   -0.179937
    23  H    0.128620
    24  C   -0.179935
    25  H    0.128620
    26  C   -0.109591
    27  H    0.135768
    28  H    0.135768
    29  H    0.139556
    30  O   -0.315580
    31  O   -0.152437
    32  C   -0.222571
    33  C   -0.376057
    34  C    0.044646
    35  C   -0.199305
    36  H    0.142873
    37  H    0.140074
    38  H    0.128020
    39  C    0.071785
    40  C    0.143559
    41  C   -0.047820
    42  C   -0.184875
    43  C   -0.184575
    44  C   -0.154889
    45  H    0.142758
    46  C   -0.154902
    47  H    0.143015
    48  C   -0.102669
    49  H    0.141934
    50  H    0.142003
    51  H    0.146743
 Sum of Mulliken charges =  -0.00000
 Mulliken charges with hydrogens summed into heavy atoms:
               1
     1  C    0.046249
     2  C   -0.124423
     3  C    0.182183
     4  C    0.081413
     5  C   -0.036822
     6  C    0.005433
     7  C   -0.285839
     8  C    0.285416
     9  C   -0.106104
    10  C    0.171520
    11  C    0.127258
    12  C    0.258531
    13  C    0.259548
    19  C   -0.022748
    20  C   -0.037485
    21  C   -0.037488
    22  C   -0.044169
    24  C   -0.044167
    26  C    0.029964
    30  O   -0.315580
    31  O   -0.152437
    32  C   -0.082497
    33  C   -0.248037
    34  C    0.044646
    35  C   -0.056432
    39  C    0.071785
    40  C    0.143559
    41  C   -0.047820
    42  C   -0.042117
    43  C   -0.041560
    44  C   -0.012956
    46  C   -0.012899
    48  C    0.044075
 Electronic spatial extent (au):  <R**2>=          24134.7700
 Charge=             -0.0000 electrons
 Dipole moment (field-independent basis, Debye):
    X=              0.1124    Y=              6.3981    Z=              0.0002  Tot=              6.3991
 Quadrupole moment (field-independent basis, Debye-Ang):
   XX=           -134.0760   YY=           -170.3104   ZZ=           -189.9558
   XY=            -11.4047   XZ=              0.0009   YZ=             -0.0005
 Traceless Quadrupole moment (field-independent basis, Debye-Ang):
   XX=             30.7047   YY=             -5.5296   ZZ=            -25.1751
   XY=            -11.4047   XZ=              0.0009   YZ=             -0.0005
 Octapole moment (field-independent basis, Debye-Ang**2):
  XXX=            252.8199  YYY=             91.3170  ZZZ=              0.0008  XYY=             -2.7948
  XXY=             -1.5906  XXZ=              0.0102  XZZ=            -54.0326  YZZ=            -28.6212
  YYZ=              0.0017  XYZ=              0.0004
 Hexadecapole moment (field-independent basis, Debye-Ang**3):
 XXXX=         -23195.3318 YYYY=          -3940.1676 ZZZZ=           -440.1439 XXXY=           -230.1245
 XXXZ=              0.1484 YYYX=           -231.0303 YYYZ=              0.0085 ZZZX=              0.0223
 ZZZY=              0.0141 XXYY=          -4641.3993 XXZZ=          -5235.5507 YYZZ=           -810.8003
 XXYZ=              0.0038 YYXZ=              0.0021 ZZXY=            125.3982
 N-N= 2.772448133352D+03 E-N=-8.668414712606D+03  KE= 1.337128272394D+03
 Leave Link  601 at Wed Mar 31 04:43:47 2021, MaxMem=  5242880000 cpu:         7.7
 (Enter /opt/nce/packages/global/g09/l9999.exe)
 1\1\GINC-CN018\SP\RTPSSTPSS TD-FC\Gen\C31H18O2\PNG4RJV\31-Mar-2021\0\\
 #p TPSSTPSS chkbasis geom=allcheck Guess=Read int=ultrafine scrf=(SMD,
 solvent=Acetonitrile) td=(NStates=30)\\Title\\0,1\C,0,5.1855856394,3.7
 89509038,-0.0000262963\C,0,3.8151397142,3.6677293284,0.000002046\C,0,3
 .2004743747,2.384818844,0.0000065619\C,0,4.0234656876,1.2079022867,-0.
 000016665\C,0,5.4377633599,1.3751735691,-0.0000480466\C,0,6.0021916934
 ,2.631832978,-0.0000524229\C,0,1.7991220084,2.2513525637,0.0000293333\
 C,0,3.4062823398,-0.0809986312,-0.000008773\C,0,2.0067168146,-0.175901
 5624,0.0000196217\C,0,1.1871510769,1.0083939403,0.0000325327\C,0,-0.26
 64822163,0.867637869,0.0000461774\C,0,-0.8204631999,-0.4200415387,0.00
 00553632\C,0,1.3620439587,-1.5036182492,0.0000470112\H,0,1.2038768694,
 3.158943305,0.0000432101\H,0,5.6470234096,4.7734350057,-0.0000299197\H
 ,0,3.1774945457,4.5484401158,0.0000203563\H,0,6.0754967943,0.497569874
 1,-0.0000688358\H,0,7.0836016213,2.7383866613,-0.0000765279\C,0,4.3117
 724131,-1.2734454741,-0.0000363446\C,0,4.7770361913,-1.8109975465,-1.2
 079286778\C,0,4.7771483582,-1.8109712334,1.207824531\C,0,5.6698267524,
 -2.8839311334,-1.2071127425\H,0,4.4336594794,-1.391740711,-2.150349721
 7\C,0,5.6699377657,-2.8839057922,1.2069490736\H,0,4.4338590928,-1.3916
 939593,2.150268365\C,0,6.1176403923,-3.4260552738,-0.0000967201\H,0,6.
 0182219342,-3.2937153545,-2.1519852662\H,0,6.0184193358,-3.2936706819,
 2.1517981051\H,0,6.8136633976,-4.2609683206,-0.0001198378\O,0,1.911832
 7713,-2.5868246862,0.0000450209\O,0,-0.0245488681,-1.5462813709,0.0000
 575708\C,0,-1.1751560022,1.9472824801,0.0000458612\C,0,-2.1908348154,-
 0.6551278265,0.0000653349\C,0,-3.0781295637,0.433891323,0.0000658243\C
 ,0,-2.5435954875,1.7451748918,0.0000558545\H,0,-3.2181677559,2.5954188
 967,0.0000555018\H,0,-0.8022676758,2.9660813477,0.0000358473\H,0,-2.55
 88179356,-1.6758676572,0.0000733082\C,0,-4.4815845925,0.2251866007,0.0
 000801859\C,0,-5.6896029739,0.0566446155,0.0000839623\C,0,-7.097418343
 1,-0.1377218432,0.0000199922\C,0,-7.97318963,0.9698456898,-0.000013041
 2\C,0,-7.6417789556,-1.4404579484,-0.0000062339\C,0,-9.3512538188,0.77
 35795325,-0.000069702\H,0,-7.5609275428,1.9746765479,0.0000073835\C,0,
 -9.0217038124,-1.6233040075,-0.0000629158\H,0,-6.9735761203,-2.2967052
 486,0.0000196021\C,0,-9.8808718323,-0.520329324,-0.0000954694\H,0,-10.
 0151847205,1.6339982839,-0.000094168\H,0,-9.4287210558,-2.630976462,-0
 .0000819378\H,0,-10.9573508737,-0.6685487519,-0.0001402725\\Version=ES
 64L-G09RevE.01\State=1-A\HF=-1343.3291923\RMSD=3.764e-09\PG=C01 [X(C31
 H18O2)]\\@


 I WANT TO KNOW HOW GOD CREATED THE WORLD.  I AM NOT INTERESTED IN
 THIS OR THAT PHENOMENON, IN THE SPECTRUM OF THIS OR THAT ELEMENT.
 I WANT TO KNOW HIS THOUGHTS, THE REST ARE DETAILS.
     -- ALBERT EINSTEIN
 Job cpu time:       1 days 17 hours 42 minutes 27.8 seconds.
 File lengths (MBytes):  RWF=   5037 Int=      0 D2E=      0 Chk=   1136 Scr=      1
 Normal termination of Gaussian 09 at Wed Mar 31 04:43:49 2021.
