
                                 *****************
                                 * O   R   C   A *
                                 *****************

                                            #,                                       
                                            ###                                      
                                            ####                                     
                                            #####                                    
                                            ######                                   
                                           ########,                                 
                                     ,,################,,,,,                         
                               ,,#################################,,                 
                          ,,##########################################,,             
                       ,#########################################, ''#####,          
                    ,#############################################,,   '####,        
                  ,##################################################,,,,####,       
                ,###########''''           ''''###############################       
              ,#####''   ,,,,##########,,,,          '''####'''          '####       
            ,##' ,,,,###########################,,,                        '##       
           ' ,,###''''                  '''############,,,                           
         ,,##''                                '''############,,,,        ,,,,,,###''
      ,#''                                            '''#######################'''  
     '                                                          ''''####''''         
             ,#######,   #######,   ,#######,      ##                                
            ,#'     '#,  ##    ##  ,#'     '#,    #''#        ######   ,####,        
            ##       ##  ##   ,#'  ##            #'  '#       #        #'  '#        
            ##       ##  #######   ##           ,######,      #####,   #    #        
            '#,     ,#'  ##    ##  '#,     ,#' ,#      #,         ##   #,  ,#        
             '#######'   ##     ##  '#######'  #'      '#     #####' # '####'        



                  #######################################################
                  #                        -***-                        #
                  #          Department of theory and spectroscopy      #
                  #    Directorship and core code : Frank Neese         #
                  #        Max Planck Institute fuer Kohlenforschung    #
                  #                Kaiser Wilhelm Platz 1               #
                  #                 D-45470 Muelheim/Ruhr               #
                  #                      Germany                        #
                  #                                                     #
                  #                  All rights reserved                #
                  #                        -***-                        #
                  #######################################################


                         Program Version 5.0.2 -  RELEASE  -


 With contributions from (in alphabetic order):
   Daniel Aravena         : Magnetic Suceptibility
   Michael Atanasov       : Ab Initio Ligand Field Theory (pilot matlab implementation)
   Alexander A. Auer      : GIAO ZORA, VPT2 properties, NMR spectrum
   Ute Becker             : Parallelization
   Giovanni Bistoni       : ED, misc. LED, open-shell LED, HFLD
   Martin Brehm           : Molecular dynamics
   Dmytro Bykov           : SCF Hessian
   Vijay G. Chilkuri      : MRCI spin determinant printing, contributions to CSF-ICE
   Dipayan Datta          : RHF DLPNO-CCSD density
   Achintya Kumar Dutta   : EOM-CC, STEOM-CC
   Dmitry Ganyushin       : Spin-Orbit,Spin-Spin,Magnetic field MRCI
   Miquel Garcia          : C-PCM and meta-GGA Hessian, CC/C-PCM, Gaussian charge scheme
   Yang Guo               : DLPNO-NEVPT2, F12-NEVPT2, CIM, IAO-localization
   Andreas Hansen         : Spin unrestricted coupled pair/coupled cluster methods
   Benjamin Helmich-Paris : MC-RPA, TRAH-SCF, COSX integrals
   Lee Huntington         : MR-EOM, pCC
   Robert Izsak           : Overlap fitted RIJCOSX, COSX-SCS-MP3, EOM
   Marcus Kettner         : VPT2
   Christian Kollmar      : KDIIS, OOCD, Brueckner-CCSD(T), CCSD density, CASPT2, CASPT2-K
   Simone Kossmann        : Meta GGA functionals, TD-DFT gradient, OOMP2, MP2 Hessian
   Martin Krupicka        : Initial AUTO-CI
   Lucas Lang             : DCDCAS
   Marvin Lechner         : AUTO-CI (C++ implementation), FIC-MRCC
   Dagmar Lenk            : GEPOL surface, SMD
   Dimitrios Liakos       : Extrapolation schemes; Compound Job, initial MDCI parallelization
   Dimitrios Manganas     : Further ROCIS development; embedding schemes
   Dimitrios Pantazis     : SARC Basis sets
   Anastasios Papadopoulos: AUTO-CI, single reference methods and gradients
   Taras Petrenko         : DFT Hessian,TD-DFT gradient, ASA, ECA, R-Raman, ABS, FL, XAS/XES, NRVS
   Peter Pinski           : DLPNO-MP2, DLPNO-MP2 Gradient
   Christoph Reimann      : Effective Core Potentials
   Marius Retegan         : Local ZFS, SOC
   Christoph Riplinger    : Optimizer, TS searches, QM/MM, DLPNO-CCSD(T), (RO)-DLPNO pert. Triples
   Tobias Risthaus        : Range-separated hybrids, TD-DFT gradient, RPA, STAB
   Michael Roemelt        : Original ROCIS implementation
   Masaaki Saitow         : Open-shell DLPNO-CCSD energy and density
   Barbara Sandhoefer     : DKH picture change effects
   Avijit Sen             : IP-ROCIS
   Kantharuban Sivalingam : CASSCF convergence, NEVPT2, FIC-MRCI
   Bernardo de Souza      : ESD, SOC TD-DFT
   Georgi Stoychev        : AutoAux, RI-MP2 NMR, DLPNO-MP2 response
   Willem Van den Heuvel  : Paramagnetic NMR
   Boris Wezisla          : Elementary symmetry handling
   Frank Wennmohs         : Technical directorship


 We gratefully acknowledge several colleagues who have allowed us to
 interface, adapt or use parts of their codes:
   Stefan Grimme, W. Hujo, H. Kruse, P. Pracht,  : VdW corrections, initial TS optimization,
                  C. Bannwarth, S. Ehlert          DFT functionals, gCP, sTDA/sTD-DF
   Ed Valeev, F. Pavosevic, A. Kumar             : LibInt (2-el integral package), F12 methods
   Garnet Chan, S. Sharma, J. Yang, R. Olivares  : DMRG
   Ulf Ekstrom                                   : XCFun DFT Library
   Mihaly Kallay                                 : mrcc  (arbitrary order and MRCC methods)
   Jiri Pittner, Ondrej Demel                    : Mk-CCSD
   Frank Weinhold                                : gennbo (NPA and NBO analysis)
   Christopher J. Cramer and Donald G. Truhlar   : smd solvation model
   Lars Goerigk                                  : TD-DFT with DH, B97 family of functionals
   V. Asgeirsson, H. Jonsson                     : NEB implementation
   FAccTs GmbH                                   : IRC, NEB, NEB-TS, DLPNO-Multilevel, CI-OPT
                                                   MM, QMMM, 2- and 3-layer-ONIOM, Crystal-QMMM,
                                                   LR-CPCM, SF, NACMEs, symmetry and pop. for TD-DFT,
                                                   nearIR, NL-DFT gradient (VV10), updates on ESD,
                                                   ML-optimized integration grids
   S Lehtola, MJT Oliveira, MAL Marques          : LibXC Library
   Liviu Ungur et al                             : ANISO software


 Your calculation uses the libint2 library for the computation of 2-el integrals
 For citations please refer to: http://libint.valeyev.net

 Your ORCA version has been built with support for libXC version: 5.1.0
 For citations please refer to: https://tddft.org/programs/libxc/

 This ORCA versions uses:
   CBLAS   interface :  Fast vector & matrix operations
   LAPACKE interface :  Fast linear algebra routines
   SCALAPACK package :  Parallel linear algebra routines
   Shared memory     :  Shared parallel matrices
   BLAS/LAPACK       :  OpenBLAS 0.3.15  USE64BITINT DYNAMIC_ARCH NO_AFFINITY Prescott SINGLE_THREADED
        Core in use  :  Prescott
   Copyright (c) 2011-2014, The OpenBLAS Project


Your calculation utilizes the SMD solvation module
Please cite in your paper:
A.V. Marenich, C.J. Cramer, D.G. Truhlar J. Phys. Chem. B, 113, (2009), 6378 

================================================================================

----- Orbital basis set information -----
Your calculation utilizes the basis: def2-TZVP
   F. Weigend and R. Ahlrichs, Phys. Chem. Chem. Phys. 7, 3297 (2005).

----- AuxJ basis set information -----
Your calculation utilizes the auxiliary basis: def2/J
   F. Weigend, Phys. Chem. Chem. Phys. 8, 1057 (2006).

----- AuxC basis set information -----
Your calculation utilizes the auxiliary basis: def2-TZVP/C
  H-La, Hf-Rn : A. Hellweg, C. Hattig, S. Hofener and W. Klopper, Theor. Chem. Acc. 117, 587 (2007).
        Ce-Lu : J. Chmela and M. E. Harding, Mol. Phys. (2018).

================================================================================
                                        WARNINGS
                       Please study these warnings very carefully!
================================================================================

INFO   : Checking CIS options ...
  ===> : (D) CORRECTION FOUND - SETTING MODE=3
  ===> : JK MODE FOUND - ACTIVATING RI-MP2 CODE
  ===> : MP2 AND CIS FOUND - CHECKING
WARNING: CIS(D) and MP2 runs must have the same orbital window
  ===> : adjusting orbital windows

WARNING: No MP2 level density has been requested!
         To caclulate MP2 level properties use
         %mp2 Density relaxed end
         or
         %mp2 Density unrelaxed end
         Otherwise for double-hybrid DFT only the energy is correct!

WARNING: The frozen-core approximation is turned on by default for 
         the MP2 part of double-hybrid DFT.

WARNING: CIS/ROCIS methods need fully converged wavefunctions
  ===> : Setting SCFConvForced true
         You can overwrite this default with %scf ConvForced false 


INFO   : the flag for use of the SHARK integral package has been found!

================================================================================
                                       INPUT FILE
================================================================================
NAME = Eos_1_M06L_def2TZVP_coords.inp
|  1> %maxcore 20000
|  2> %pal
|  3>  nprocs= 4
|  4> end
|  5> ! RI-B2GP-PLYP   def2-TZVP def2/J def2-TZVP/C RIJCOSX CPCM TightSCF
|  6> %TDDFT  
|  7>    NROOTS   30
|  8>    dcorr 4
|  9>    TDA      FALSE
| 10> END 
| 11>  
| 12>  %CPCM 
| 13>    SMD          TRUE 
| 14>    SMDsolvent   "ACETONITRILE"
| 15>  END 
| 16>  
| 17> 
| 18> * xyz -1 1
| 19> C                   3.39156800   -3.24338000   -0.26933600
| 20> C                   3.11363300   -1.81773900   -0.27086200
| 21> C                   1.80176500   -1.39259100   -0.31928100
| 22> C                   0.68223000   -2.26384100   -0.40846600
| 23> C                   0.96685700   -3.65517300   -0.39231000
| 24> C                   2.24011000   -4.11815100   -0.32472800
| 25> C                  -0.60905000   -1.72267100   -0.46713900
| 26> C                  -0.78035100   -0.32947900   -0.41542600
| 27> C                   0.35488100    0.50301700   -0.25126700
| 28> C                   0.28281900    1.87358600   -0.13039700
| 29> C                  -1.00614100    2.53627400   -0.20079400
| 30> C                  -2.17900500    1.68062600   -0.40697400
| 31> C                  -2.03020700    0.32332300   -0.50143400
| 32> H                   0.13714700   -4.35076300   -0.42597600
| 33> H                   2.44041200   -5.18330200   -0.30888400
| 34> H                  -2.90910400   -0.28633700   -0.67370600
| 35> O                   1.59734000   -0.04937500   -0.23707400
| 36> O                  -1.11103100    3.77244700   -0.05900700
| 37> O                   4.55277900   -3.70509900   -0.22877700
| 38> C                  -1.78490400   -2.60781100   -0.63045900
| 39> C                  -1.90606600   -3.34742800   -1.80797100
| 40> C                  -2.81215000   -2.67700400    0.32332900
| 41> C                  -3.01017700   -4.15115900   -2.04036100
| 42> H                  -1.12284800   -3.27653000   -2.55354500
| 43> C                  -3.92583400   -3.47236200    0.06662400
| 44> C                  -4.02513400   -4.21689100   -1.09691300
| 45> H                  -3.07907800   -4.71833100   -2.96002600
| 46> H                  -4.71523300   -3.50319500    0.80748400
| 47> H                  -4.89231000   -4.84197700   -1.26966400
| 48> C                  -2.73945700   -1.93037600    1.62878900
| 49> O                  -3.80480700   -1.41156200    2.05968800
| 50> O                  -1.63042000   -1.88269400    2.22215700
| 51> C                   4.23056100   -0.85650000   -0.21361300
| 52> C                   5.22855700   -0.98061600    0.75753000
| 53> C                   4.33988500    0.19339000   -1.13133100
| 54> C                   6.28466600   -0.08368800    0.81718100
| 55> H                   5.16650400   -1.78901200    1.47430200
| 56> C                   5.39830600    1.08680200   -1.07727300
| 57> H                   3.58602700    0.30531100   -1.90136900
| 58> C                   6.37589600    0.95461500   -0.10004300
| 59> H                   7.04100200   -0.19677000    1.58469000
| 60> H                   5.45852900    1.89068700   -1.80140100
| 61> H                   7.20171800    1.65395700   -0.05458900
| 62> C                   1.49661800    2.68223500    0.09543800
| 63> C                   2.38323200    2.38196100    1.13406300
| 64> C                   1.78718000    3.78431400   -0.71336400
| 65> C                   3.51701300    3.14886200    1.35435800
| 66> H                   2.17500200    1.53826500    1.78126900
| 67> C                   2.92607500    4.54680100   -0.50097200
| 68> H                   1.11092700    4.03777900   -1.51956200
| 69> C                   3.79622100    4.23443100    0.53511800
| 70> H                   4.18565600    2.89629400    2.16873500
| 71> H                   3.13405400    5.39108000   -1.14732400
| 72> H                   4.68394300    4.83189600    0.70270800
| 73> C                  -3.52583300    2.26853000   -0.48652500
| 74> C                  -4.61912600    1.60031000    0.08064100
| 75> C                  -3.77293900    3.47914800   -1.14575400
| 76> C                  -5.90259900    2.11545500   -0.01103100
| 77> H                  -4.45184200    0.67035300    0.61521600
| 78> C                  -5.05801400    3.98997400   -1.24036700
| 79> H                  -2.94659700    4.01159700   -1.59407600
| 80> C                  -6.13010600    3.31490500   -0.67184600
| 81> H                  -6.72808700    1.58060700    0.44330700
| 82> H                  -5.22402800    4.92313500   -1.76547700
| 83> H                  -7.13181500    3.72048900   -0.74150900
| 84> Na                 -2.60334200   -0.55319700    3.78931800
| 85> *
| 86> 
| 87> 
| 88> 
| 89>                          ****END OF INPUT****
================================================================================

                       ****************************
                       * Single Point Calculation *
                       ****************************

---------------------------------
CARTESIAN COORDINATES (ANGSTROEM)
---------------------------------
  C      3.391568   -3.243380   -0.269336
  C      3.113633   -1.817739   -0.270862
  C      1.801765   -1.392591   -0.319281
  C      0.682230   -2.263841   -0.408466
  C      0.966857   -3.655173   -0.392310
  C      2.240110   -4.118151   -0.324728
  C     -0.609050   -1.722671   -0.467139
  C     -0.780351   -0.329479   -0.415426
  C      0.354881    0.503017   -0.251267
  C      0.282819    1.873586   -0.130397
  C     -1.006141    2.536274   -0.200794
  C     -2.179005    1.680626   -0.406974
  C     -2.030207    0.323323   -0.501434
  H      0.137147   -4.350763   -0.425976
  H      2.440412   -5.183302   -0.308884
  H     -2.909104   -0.286337   -0.673706
  O      1.597340   -0.049375   -0.237074
  O     -1.111031    3.772447   -0.059007
  O      4.552779   -3.705099   -0.228777
  C     -1.784904   -2.607811   -0.630459
  C     -1.906066   -3.347428   -1.807971
  C     -2.812150   -2.677004    0.323329
  C     -3.010177   -4.151159   -2.040361
  H     -1.122848   -3.276530   -2.553545
  C     -3.925834   -3.472362    0.066624
  C     -4.025134   -4.216891   -1.096913
  H     -3.079078   -4.718331   -2.960026
  H     -4.715233   -3.503195    0.807484
  H     -4.892310   -4.841977   -1.269664
  C     -2.739457   -1.930376    1.628789
  O     -3.804807   -1.411562    2.059688
  O     -1.630420   -1.882694    2.222157
  C      4.230561   -0.856500   -0.213613
  C      5.228557   -0.980616    0.757530
  C      4.339885    0.193390   -1.131331
  C      6.284666   -0.083688    0.817181
  H      5.166504   -1.789012    1.474302
  C      5.398306    1.086802   -1.077273
  H      3.586027    0.305311   -1.901369
  C      6.375896    0.954615   -0.100043
  H      7.041002   -0.196770    1.584690
  H      5.458529    1.890687   -1.801401
  H      7.201718    1.653957   -0.054589
  C      1.496618    2.682235    0.095438
  C      2.383232    2.381961    1.134063
  C      1.787180    3.784314   -0.713364
  C      3.517013    3.148862    1.354358
  H      2.175002    1.538265    1.781269
  C      2.926075    4.546801   -0.500972
  H      1.110927    4.037779   -1.519562
  C      3.796221    4.234431    0.535118
  H      4.185656    2.896294    2.168735
  H      3.134054    5.391080   -1.147324
  H      4.683943    4.831896    0.702708
  C     -3.525833    2.268530   -0.486525
  C     -4.619126    1.600310    0.080641
  C     -3.772939    3.479148   -1.145754
  C     -5.902599    2.115455   -0.011031
  H     -4.451842    0.670353    0.615216
  C     -5.058014    3.989974   -1.240367
  H     -2.946597    4.011597   -1.594076
  C     -6.130106    3.314905   -0.671846
  H     -6.728087    1.580607    0.443307
  H     -5.224028    4.923135   -1.765477
  H     -7.131815    3.720489   -0.741509
  Na    -2.603342   -0.553197    3.789318

----------------------------
CARTESIAN COORDINATES (A.U.)
----------------------------
  NO LB      ZA    FRAG     MASS         X           Y           Z
   0 C     6.0000    0    12.011    6.409135   -6.129100   -0.508971
   1 C     6.0000    0    12.011    5.883914   -3.435029   -0.511855
   2 C     6.0000    0    12.011    3.404842   -2.631616   -0.603354
   3 C     6.0000    0    12.011    1.289228   -4.278040   -0.771889
   4 C     6.0000    0    12.011    1.827095   -6.907276   -0.741358
   5 C     6.0000    0    12.011    4.233194   -7.782178   -0.613647
   6 C     6.0000    0    12.011   -1.150938   -3.255376   -0.882765
   7 C     6.0000    0    12.011   -1.474650   -0.622625   -0.785041
   8 C     6.0000    0    12.011    0.670628    0.950564   -0.474826
   9 C     6.0000    0    12.011    0.534450    3.540564   -0.246415
  10 C     6.0000    0    12.011   -1.901331    4.792863   -0.379446
  11 C     6.0000    0    12.011   -4.117723    3.175923   -0.769069
  12 C     6.0000    0    12.011   -3.836535    0.610992   -0.947573
  13 H     1.0000    0     1.008    0.259170   -8.221751   -0.804978
  14 H     1.0000    0     1.008    4.611710   -9.795021   -0.583706
  15 H     1.0000    0     1.008   -5.497410   -0.541099   -1.273120
  16 O     8.0000    0    15.999    3.018535   -0.093305   -0.448005
  17 O     8.0000    0    15.999   -2.099544    7.128892   -0.111507
  18 O     8.0000    0    15.999    8.603505   -7.001622   -0.432326
  19 C     6.0000    0    12.011   -3.372980   -4.928049   -1.191395
  20 C     6.0000    0    12.011   -3.601943   -6.325722   -3.416570
  21 C     6.0000    0    12.011   -5.314193   -5.058804    0.611003
  22 C     6.0000    0    12.011   -5.688410   -7.844554   -3.855724
  23 H     1.0000    0     1.008   -2.121875   -6.191744   -4.825501
  24 C     6.0000    0    12.011   -7.418751   -6.561813    0.125901
  25 C     6.0000    0    12.011   -7.606401   -7.968769   -2.072865
  26 H     1.0000    0     1.008   -5.818614   -8.916353   -5.593638
  27 H     1.0000    0     1.008   -8.910499   -6.620079    1.525924
  28 H     1.0000    0     1.008   -9.245126   -9.150010   -2.399317
  29 C     6.0000    0    12.011   -5.176823   -3.647882    3.077965
  30 O     8.0000    0    15.999   -7.190043   -2.667466    3.892246
  31 O     8.0000    0    15.999   -3.081047   -3.557776    4.199268
  32 C     6.0000    0    12.011    7.994602   -1.618550   -0.403670
  33 C     6.0000    0    12.011    9.880541   -1.853096    1.431524
  34 C     6.0000    0    12.011    8.201194    0.365454   -2.137906
  35 C     6.0000    0    12.011   11.876298   -0.158147    1.544248
  36 H     1.0000    0     1.008    9.763278   -3.380743    2.786027
  37 C     6.0000    0    12.011   10.201320    2.053758   -2.035751
  38 H     1.0000    0     1.008    6.776609    0.576954   -3.593067
  39 C     6.0000    0    12.011   12.048697    1.803961   -0.189054
  40 H     1.0000    0     1.008   13.305565   -0.371841    2.994630
  41 H     1.0000    0     1.008   10.315125    3.572881   -3.404155
  42 H     1.0000    0     1.008   13.609275    3.125526   -0.103158
  43 C     6.0000    0    12.011    2.828198    5.068690    0.180352
  44 C     6.0000    0    12.011    4.503656    4.501254    2.143068
  45 C     6.0000    0    12.011    3.377281    7.151317   -1.348063
  46 C     6.0000    0    12.011    6.646191    5.950487    2.559366
  47 H     1.0000    0     1.008    4.110158    2.906900    3.366111
  48 C     6.0000    0    12.011    5.529480    8.592209   -0.946700
  49 H     1.0000    0     1.008    2.099348    7.630296   -2.871556
  50 C     6.0000    0    12.011    7.173818    8.001915    1.011226
  51 H     1.0000    0     1.008    7.909744    5.473202    4.098315
  52 H     1.0000    0     1.008    5.922504   10.187665   -2.168128
  53 H     1.0000    0     1.008    8.851369    9.130960    1.327926
  54 C     6.0000    0    12.011   -6.662859    4.286900   -0.919399
  55 C     6.0000    0    12.011   -8.728883    3.024148    0.152389
  56 C     6.0000    0    12.011   -7.129821    6.574637   -2.165161
  57 C     6.0000    0    12.011  -11.154296    3.997631   -0.020846
  58 H     1.0000    0     1.008   -8.412762    1.266784    1.162590
  59 C     6.0000    0    12.011   -9.558261    7.539958   -2.343954
  60 H     1.0000    0     1.008   -5.568261    7.580820   -3.012367
  61 C     6.0000    0    12.011  -11.584222    6.264263   -1.269605
  62 H     1.0000    0     1.008  -12.714242    2.986914    0.837729
  63 H     1.0000    0     1.008   -9.871982    9.303377   -3.336268
  64 H     1.0000    0     1.008  -13.477177    7.030705   -1.401249
  65 Na   11.0000    0    22.990   -4.919603   -1.045391    7.160773

--------------------------------
INTERNAL COORDINATES (ANGSTROEM)
--------------------------------
 C      0   0   0     0.000000000000     0.00000000     0.00000000
 C      1   0   0     1.452481481390     0.00000000     0.00000000
 C      2   1   0     1.379888716850   118.97092910     0.00000000
 C      3   2   1     1.421403933775   124.20464536   358.06149971
 C      4   3   2     1.420238810795   116.22609280     2.51595880
 C      5   4   3     1.356498860013   121.53590944   358.61766375
 C      4   3   2     1.401324918864   119.45170222   180.73916554
 C      7   4   3     1.404635972711   119.59551255   358.98289419
 C      8   7   4     1.417303588199   119.28644060   357.51918359
 C      9   8   7     1.377774245842   123.54389604   182.95479937
 C     10   9   8     1.451044108411   119.76961599   358.54027941
 C     11  10   9     1.466374322879   116.79686694   359.75689245
 C     12  11  10     1.368698275813   120.09292080     1.06374789
 H      5   4   3     1.083234753761   118.37332267   178.04366093
 H      6   5   4     1.083936610850   120.63504016   179.72979769
 H     13  12  11     1.083431074962   118.73829952   181.21605318
 O      9   8   7     1.359795105740   119.63417154     4.42205275
 O     11  10   9     1.248690975141   121.41461023   178.03625875
 O      1   2   3     1.250296146504   122.69830912   179.90525859
 C      7   4   3     1.480803454654   120.36364175   176.84324164
 C     20   7   4     1.395796563643   118.60114591   295.93435752
 C     20   7   4     1.403471967910   122.39260363   119.26487291
 C     21  20   7     1.385297705471   121.20753915   182.60329931
 H     21  20   7     1.083668561602   118.88204653     1.88024921
 C     22  20   7     1.392402189400   119.22836509   176.23886360
 C     25  22  20     1.384919590521   121.28675849     1.39421879
 H     23  21  20     1.082688846165   119.81164136   180.24302588
 H     25  22  20     1.083039701345   118.23719406   180.83686701
 H     26  25  22     1.082852543227   120.11810596   178.97199520
 C     22  20   7     1.505643866999   121.96833078   355.38479095
 O     30  22  20     1.260877685304   117.35855645   141.18588692
 O     30  22  20     1.258698623149   118.03829573   320.20071712
 C      2   1   3     1.474715572680   119.65658878   179.67059355
 C     33   2   1     1.398041316958   120.64792650   309.61430432
 C     33   2   1     1.398723373866   121.53245346   128.75796954
 C     34  33   2     1.386868522559   121.06869957   179.83032954
 H     34  33   2     1.082181485523   119.04370612   359.49933620
 C     35  33   2     1.386132130191   121.19054767   180.50094860
 H     35  33   2     1.083414378642   119.30689349     0.12695622
 C     36  34  33     1.388414887159   120.34915425   359.47306320
 H     36  34  33     1.083467465456   119.64031719   179.48802301
 H     38  35  33     1.083613982624   119.63862756   179.95790128
 H     40  36  34     1.083110001230   120.34702796   180.11672988
 C     10   9   8     1.475880301660   121.02772637   177.39796235
 C     44  10   9     1.398209837863   121.16486057   307.69785055
 C     44  10   9     1.397556822920   120.96409743   128.51822199
 C     45  44  10     1.386407727469   121.18479543   180.61197035
 H     45  44  10     1.083539699204   119.27842708     0.19850166
 C     46  44  10     1.386931363788   121.03970823   179.87838677
 H     46  44  10     1.082366777686   119.06684733   359.55634505
 C     47  45  44     1.388370029432   120.21287477   359.69758514
 H     47  45  44     1.083551546629   119.67819440   179.77699758
 H     49  46  44     1.083435832057   119.64893864   179.44264417
 H     51  47  45     1.083097956608   120.32089329   180.29279792
 C     12  11  10     1.471701442685   120.42940581   179.81263732
 C     55  12  11     1.401244027215   120.10924616   217.55466329
 C     55  12  11     1.400442855529   122.15739276    39.07779201
 C     56  55  12     1.386030688094   121.23082245   181.70340376
 H     56  55  12     1.085621660216   119.18170329     2.72330947
 C     57  55  12     1.386114200804   120.95036353   178.02995765
 H     57  55  12     1.080433086428   119.10340076   358.70941109
 C     58  56  55     1.388206109255   120.28993913   359.94552590
 H     58  56  55     1.083473968073   119.62417181   180.43896115
 H     60  57  55     1.083554618936   119.50524392   180.68685690
 H     62  58  56     1.082946090674   120.38501422   180.20672116
 Na    32  30  22     2.273792666673    88.28388012   176.91196801

---------------------------
INTERNAL COORDINATES (A.U.)
---------------------------
 C      0   0   0     0.000000000000     0.00000000     0.00000000
 C      1   0   0     2.744792214420     0.00000000     0.00000000
 C      2   1   0     2.607611770134   118.97092910     0.00000000
 C      3   2   1     2.686064160512   124.20464536   358.06149971
 C      4   3   2     2.683862397169   116.22609280     2.51595880
 C      5   4   3     2.563411346401   121.53590944   358.61766375
 C      4   3   2     2.648120321292   119.45170222   180.73916554
 C      7   4   3     2.654377306278   119.59551255   358.98289419
 C      8   7   4     2.678315630320   119.28644060   357.51918359
 C      9   8   7     2.603615999011   123.54389604   182.95479937
 C     10   9   8     2.742075973136   119.76961599   358.54027941
 C     11  10   9     2.771045880056   116.79686694   359.75689245
 C     12  11  10     2.586464901256   120.09292080     1.06374789
 H      5   4   3     2.047017023354   118.37332267   178.04366093
 H      6   5   4     2.048343341037   120.63504016   179.72979769
 H     13  12  11     2.047388016658   118.73829952   181.21605318
 O      9   8   7     2.569640348095   119.63417154     4.42205275
 O     11  10   9     2.359683968915   121.41461023   178.03625875
 O      1   2   3     2.362717303190   122.69830912   179.90525859
 C      7   4   3     2.798312987461   120.36364175   176.84324164
 C     20   7   4     2.637673243953   118.60114591   295.93435752
 C     20   7   4     2.652177655985   122.39260363   119.26487291
 C     21  20   7     2.617833277289   121.20753915   182.60329931
 H     21  20   7     2.047836801368   118.88204653     1.88024921
 C     22  20   7     2.631258806238   119.22836509   176.23886360
 C     25  22  20     2.617118743588   121.28675849     1.39421879
 H     23  21  20     2.045985407503   119.81164136   180.24302588
 H     25  22  20     2.046648427706   118.23719406   180.83686701
 H     26  25  22     2.046294750119   120.11810596   178.97199520
 C     22  20   7     2.845254563847   121.96833078   355.38479095
 O     30  22  20     2.382713513597   117.35855645   141.18588692
 O     30  22  20     2.378595682895   118.03829573   320.20071712
 C      2   1   3     2.786808557795   119.65658878   179.67059355
 C     33   2   1     2.641915212957   120.64792650   309.61430432
 C     33   2   1     2.643204113722   121.53245346   128.75796954
 C     34  33   2     2.620801691393   121.06869957   179.83032954
 H     34  33   2     2.045026634839   119.04370612   359.49933620
 C     35  33   2     2.619410111491   121.19054767   180.50094860
 H     35  33   2     2.047356465187   119.30689349     0.12695622
 C     36  34  33     2.623723896990   120.34915425   359.47306320
 H     36  34  33     2.047456784725   119.64031719   179.48802301
 H     38  35  33     2.047733662047   119.63862756   179.95790128
 H     40  36  34     2.046781275235   120.34702796   180.11672988
 C     10   9   8     2.789009576586   121.02772637   177.39796235
 C     44  10   9     2.642233671316   121.16486057   307.69785055
 C     44  10   9     2.640999651911   120.96409743   128.51822199
 C     45  44  10     2.619930914869   121.18479543   180.61197035
 H     45  44  10     2.047593286728   119.27842708     0.19850166
 C     46  44  10     2.620920444105   121.03970823   179.87838677
 H     46  44  10     2.045376786281   119.06684733   359.55634505
 C     47  45  44     2.623639128171   120.21287477   359.69758514
 H     47  45  44     2.047615675116   119.67819440   179.77699758
 H     49  46  44     2.047397006266   119.64893864   179.44264417
 H     51  47  45     2.046758514199   120.32089329   180.29279792
 C     12  11  10     2.781112677571   120.42940581   179.81263732
 C     55  12  11     2.647967458229   120.10924616   217.55466329
 C     55  12  11     2.646453463156   122.15739276    39.07779201
 C     56  55  12     2.619218413708   121.23082245   181.70340376
 H     56  55  12     2.051527622861   119.18170329     2.72330947
 C     57  55  12     2.619376229858   120.95036353   178.02995765
 H     57  55  12     2.041722639377   119.10340076   358.70941109
 C     58  56  55     2.623329363929   120.28993913   359.94552590
 H     58  56  55     2.047469072891   119.62417181   180.43896115
 H     60  57  55     2.047621480934   119.50524392   180.68685690
 H     62  58  56     2.046471529174   120.38501422   180.20672116
 Na    32  30  22     4.296845425330    88.28388012   176.91196801

---------------------
BASIS SET INFORMATION
---------------------
There are 4 groups of distinct atoms

 Group   1 Type C   : 11s6p2d1f contracted to 5s3p2d1f pattern {62111/411/11/1}
 Group   2 Type H   : 5s1p contracted to 3s1p pattern {311/1}
 Group   3 Type O   : 11s6p2d1f contracted to 5s3p2d1f pattern {62111/411/11/1}
 Group   4 Type Na  : 14s8p3d contracted to 5s4p3d pattern {73211/5111/111}

Atom   0C    basis set group =>   1
Atom   1C    basis set group =>   1
Atom   2C    basis set group =>   1
Atom   3C    basis set group =>   1
Atom   4C    basis set group =>   1
Atom   5C    basis set group =>   1
Atom   6C    basis set group =>   1
Atom   7C    basis set group =>   1
Atom   8C    basis set group =>   1
Atom   9C    basis set group =>   1
Atom  10C    basis set group =>   1
Atom  11C    basis set group =>   1
Atom  12C    basis set group =>   1
Atom  13H    basis set group =>   2
Atom  14H    basis set group =>   2
Atom  15H    basis set group =>   2
Atom  16O    basis set group =>   3
Atom  17O    basis set group =>   3
Atom  18O    basis set group =>   3
Atom  19C    basis set group =>   1
Atom  20C    basis set group =>   1
Atom  21C    basis set group =>   1
Atom  22C    basis set group =>   1
Atom  23H    basis set group =>   2
Atom  24C    basis set group =>   1
Atom  25C    basis set group =>   1
Atom  26H    basis set group =>   2
Atom  27H    basis set group =>   2
Atom  28H    basis set group =>   2
Atom  29C    basis set group =>   1
Atom  30O    basis set group =>   3
Atom  31O    basis set group =>   3
Atom  32C    basis set group =>   1
Atom  33C    basis set group =>   1
Atom  34C    basis set group =>   1
Atom  35C    basis set group =>   1
Atom  36H    basis set group =>   2
Atom  37C    basis set group =>   1
Atom  38H    basis set group =>   2
Atom  39C    basis set group =>   1
Atom  40H    basis set group =>   2
Atom  41H    basis set group =>   2
Atom  42H    basis set group =>   2
Atom  43C    basis set group =>   1
Atom  44C    basis set group =>   1
Atom  45C    basis set group =>   1
Atom  46C    basis set group =>   1
Atom  47H    basis set group =>   2
Atom  48C    basis set group =>   1
Atom  49H    basis set group =>   2
Atom  50C    basis set group =>   1
Atom  51H    basis set group =>   2
Atom  52H    basis set group =>   2
Atom  53H    basis set group =>   2
Atom  54C    basis set group =>   1
Atom  55C    basis set group =>   1
Atom  56C    basis set group =>   1
Atom  57C    basis set group =>   1
Atom  58H    basis set group =>   2
Atom  59C    basis set group =>   1
Atom  60H    basis set group =>   2
Atom  61C    basis set group =>   1
Atom  62H    basis set group =>   2
Atom  63H    basis set group =>   2
Atom  64H    basis set group =>   2
Atom  65Na   basis set group =>   4
---------------------------------
AUXILIARY/J BASIS SET INFORMATION
---------------------------------
There are 4 groups of distinct atoms

 Group   1 Type C   : 12s5p4d2f1g contracted to 6s4p3d1f1g pattern {711111/2111/211/2/1}
 Group   2 Type H   : 5s2p1d contracted to 3s1p1d pattern {311/2/1}
 Group   3 Type O   : 12s5p4d2f1g contracted to 6s4p3d1f1g pattern {711111/2111/211/2/1}
 Group   4 Type Na  : 14s5p5d2f1g contracted to 8s4p4d1f1g pattern {71111111/2111/2111/2/1}

Atom   0C    basis set group =>   1
Atom   1C    basis set group =>   1
Atom   2C    basis set group =>   1
Atom   3C    basis set group =>   1
Atom   4C    basis set group =>   1
Atom   5C    basis set group =>   1
Atom   6C    basis set group =>   1
Atom   7C    basis set group =>   1
Atom   8C    basis set group =>   1
Atom   9C    basis set group =>   1
Atom  10C    basis set group =>   1
Atom  11C    basis set group =>   1
Atom  12C    basis set group =>   1
Atom  13H    basis set group =>   2
Atom  14H    basis set group =>   2
Atom  15H    basis set group =>   2
Atom  16O    basis set group =>   3
Atom  17O    basis set group =>   3
Atom  18O    basis set group =>   3
Atom  19C    basis set group =>   1
Atom  20C    basis set group =>   1
Atom  21C    basis set group =>   1
Atom  22C    basis set group =>   1
Atom  23H    basis set group =>   2
Atom  24C    basis set group =>   1
Atom  25C    basis set group =>   1
Atom  26H    basis set group =>   2
Atom  27H    basis set group =>   2
Atom  28H    basis set group =>   2
Atom  29C    basis set group =>   1
Atom  30O    basis set group =>   3
Atom  31O    basis set group =>   3
Atom  32C    basis set group =>   1
Atom  33C    basis set group =>   1
Atom  34C    basis set group =>   1
Atom  35C    basis set group =>   1
Atom  36H    basis set group =>   2
Atom  37C    basis set group =>   1
Atom  38H    basis set group =>   2
Atom  39C    basis set group =>   1
Atom  40H    basis set group =>   2
Atom  41H    basis set group =>   2
Atom  42H    basis set group =>   2
Atom  43C    basis set group =>   1
Atom  44C    basis set group =>   1
Atom  45C    basis set group =>   1
Atom  46C    basis set group =>   1
Atom  47H    basis set group =>   2
Atom  48C    basis set group =>   1
Atom  49H    basis set group =>   2
Atom  50C    basis set group =>   1
Atom  51H    basis set group =>   2
Atom  52H    basis set group =>   2
Atom  53H    basis set group =>   2
Atom  54C    basis set group =>   1
Atom  55C    basis set group =>   1
Atom  56C    basis set group =>   1
Atom  57C    basis set group =>   1
Atom  58H    basis set group =>   2
Atom  59C    basis set group =>   1
Atom  60H    basis set group =>   2
Atom  61C    basis set group =>   1
Atom  62H    basis set group =>   2
Atom  63H    basis set group =>   2
Atom  64H    basis set group =>   2
Atom  65Na   basis set group =>   4
---------------------------------
AUXILIARY/C BASIS SET INFORMATION
---------------------------------
There are 4 groups of distinct atoms

 Group   1 Type C   : 8s6p5d3f1g contracted to 8s6p4d3f1g pattern {11111111/111111/2111/111/1}
 Group   2 Type H   : 4s3p2d contracted to 4s2p1d pattern {1111/21/2}
 Group   3 Type O   : 8s6p5d3f1g contracted to 8s6p4d3f1g pattern {11111111/111111/2111/111/1}
 Group   4 Type Na  : 10s8p6d5f contracted to 10s8p6d5f pattern {1111111111/11111111/111111/11111}

Atom   0C    basis set group =>   1
Atom   1C    basis set group =>   1
Atom   2C    basis set group =>   1
Atom   3C    basis set group =>   1
Atom   4C    basis set group =>   1
Atom   5C    basis set group =>   1
Atom   6C    basis set group =>   1
Atom   7C    basis set group =>   1
Atom   8C    basis set group =>   1
Atom   9C    basis set group =>   1
Atom  10C    basis set group =>   1
Atom  11C    basis set group =>   1
Atom  12C    basis set group =>   1
Atom  13H    basis set group =>   2
Atom  14H    basis set group =>   2
Atom  15H    basis set group =>   2
Atom  16O    basis set group =>   3
Atom  17O    basis set group =>   3
Atom  18O    basis set group =>   3
Atom  19C    basis set group =>   1
Atom  20C    basis set group =>   1
Atom  21C    basis set group =>   1
Atom  22C    basis set group =>   1
Atom  23H    basis set group =>   2
Atom  24C    basis set group =>   1
Atom  25C    basis set group =>   1
Atom  26H    basis set group =>   2
Atom  27H    basis set group =>   2
Atom  28H    basis set group =>   2
Atom  29C    basis set group =>   1
Atom  30O    basis set group =>   3
Atom  31O    basis set group =>   3
Atom  32C    basis set group =>   1
Atom  33C    basis set group =>   1
Atom  34C    basis set group =>   1
Atom  35C    basis set group =>   1
Atom  36H    basis set group =>   2
Atom  37C    basis set group =>   1
Atom  38H    basis set group =>   2
Atom  39C    basis set group =>   1
Atom  40H    basis set group =>   2
Atom  41H    basis set group =>   2
Atom  42H    basis set group =>   2
Atom  43C    basis set group =>   1
Atom  44C    basis set group =>   1
Atom  45C    basis set group =>   1
Atom  46C    basis set group =>   1
Atom  47H    basis set group =>   2
Atom  48C    basis set group =>   1
Atom  49H    basis set group =>   2
Atom  50C    basis set group =>   1
Atom  51H    basis set group =>   2
Atom  52H    basis set group =>   2
Atom  53H    basis set group =>   2
Atom  54C    basis set group =>   1
Atom  55C    basis set group =>   1
Atom  56C    basis set group =>   1
Atom  57C    basis set group =>   1
Atom  58H    basis set group =>   2
Atom  59C    basis set group =>   1
Atom  60H    basis set group =>   2
Atom  61C    basis set group =>   1
Atom  62H    basis set group =>   2
Atom  63H    basis set group =>   2
Atom  64H    basis set group =>   2
Atom  65Na   basis set group =>   4


           ************************************************************
           *        Program running with 4 parallel MPI-processes     *
           *              working on a common directory               *
           ************************************************************
------------------------------------------------------------------------------
                           ORCA GTO INTEGRAL CALCULATION
                           -- RI-GTO INTEGRALS CHOSEN --
------------------------------------------------------------------------------
------------------------------------------------------------------------------
                   ___                                                        
                  /   \      - P O W E R E D   B Y -                         
                 /     \                                                     
                 |  |  |   _    _      __       _____    __    __             
                 |  |  |  | |  | |    /  \     |  _  \  |  |  /  |          
                  \  \/   | |  | |   /    \    | | | |  |  | /  /          
                 / \  \   | |__| |  /  /\  \   | |_| |  |  |/  /          
                |  |  |   |  __  | /  /__\  \  |    /   |      \           
                |  |  |   | |  | | |   __   |  |    \   |  |\   \          
                \     /   | |  | | |  |  |  |  | |\  \  |  | \   \       
                 \___/    |_|  |_| |__|  |__|  |_| \__\ |__|  \__/        
                                                                              
                      - O R C A' S   B I G   F R I E N D -                    
                                      &                                       
                       - I N T E G R A L  F E E D E R -                       
                                                                              
 v1 FN, 2020, v2 2021                                                         
------------------------------------------------------------------------------


Reading SHARK input file Eos_1_M06L_def2TZVP_coords.SHARKINP.tmp ... ok
----------------------
SHARK INTEGRAL PACKAGE
----------------------

Number of atoms                             ...     66
Number of basis functions                   ...   1497
Number of shells                            ...    573
Maximum angular momentum                    ...      3
Integral batch strategy                     ... SHARK/LIBINT Hybrid
RI-J (if used) integral strategy            ... SPLIT-RIJ (Revised 2003 algorithm where possible)
Printlevel                                  ...      1
Contraction scheme used                     ... SEGMENTED contraction
Coulomb Range Separation                    ... NOT USED
Exchange Range Separation                   ... NOT USED
Finite Nucleus Model                        ... NOT USED
Auxiliary Coulomb fitting basis             ... AVAILABLE
   # of basis functions in Aux-J            ...   2405
   # of shells in Aux-J                     ...    773
   Maximum angular momentum in Aux-J        ...      4
Auxiliary J/K fitting basis                 ... NOT available
Auxiliary Correlation fitting basis         ... AVAILABLE
   # of basis functions in Aux-C            ...   3697
   # of shells in Aux-C                     ...   1129
   Maximum angular momentum in Aux-C        ...      4
Auxiliary 'external' fitting basis          ... NOT available
Integral threshold                          ...     2.500000e-11
Primitive cut-off                           ...     2.500000e-12
Primitive pair pre-selection threshold      ...     2.500000e-12

Calculating pre-screening integrals         ... done (  0.2 sec) Dimension = 573
Organizing shell pair data                  ... done (  1.5 sec)
Shell pair information
Total number of shell pairs                 ...    164451
Shell pairs after pre-screening             ...     93603
Total number of primitive shell pairs       ...    518700
Primitive shell pairs kept                  ...    181661
          la=0 lb=0:  21951 shell pairs
          la=1 lb=0:  27252 shell pairs
          la=1 lb=1:   8343 shell pairs
          la=2 lb=0:  13458 shell pairs
          la=2 lb=1:   8524 shell pairs
          la=2 lb=2:   2084 shell pairs
          la=3 lb=0:   5906 shell pairs
          la=3 lb=1:   3863 shell pairs
          la=3 lb=2:   1810 shell pairs
          la=3 lb=3:    412 shell pairs

Calculating one electron integrals          ... done (  0.3 sec)
Calculating RI/J V-Matrix + Cholesky decomp.... done (  0.4 sec)
Calculating RI/C V-Matrix + Cholesky decomp.... done (  1.0 sec)
Calculating Nuclear repulsion               ... done (  0.0 sec) ENN=   5098.250396718353 Eh

SHARK setup successfully completed in   4.3 seconds

Maximum memory used throughout the entire GTOINT-calculation: 200.1 MB


           ************************************************************
           *        Program running with 4 parallel MPI-processes     *
           *              working on a common directory               *
           ************************************************************
-------------------------------------------------------------------------------
                                 ORCA SCF
-------------------------------------------------------------------------------

------------
SCF SETTINGS
------------
Hamiltonian:
 Density Functional     Method          .... DFT(GTOs)
 Exchange Functional    Exchange        .... B88
   X-Alpha parameter    XAlpha          ....  0.666667
   Becke's b parameter  XBeta           ....  0.004200
 Correlation Functional Correlation     .... LYP
 LDA part of GGA corr.  LDAOpt          .... VWN-3
 Gradients option       PostSCFGGA      .... off
 Hybrid DFT is turned on
   Fraction HF Exchange ScalHFX         ....  0.650000
   Scaling of DF-GGA-X  ScalDFX         ....  0.350000
   Scaling of DF-GGA-C  ScalDFC         ....  0.640000
   Scaling of DF-LDA-C  ScalLDAC        ....  0.640000
   Perturbative correction              ....  0.360000
   Density functional embedding theory  .... OFF
 RI-approximation to the Coulomb term is turned on
   Number of AuxJ basis functions       .... 2405
   RIJ-COSX (HFX calculated with COS-X)).... on


General Settings:
 Integral files         IntName         .... Eos_1_M06L_def2TZVP_coords
 Hartree-Fock type      HFTyp           .... RHF
 Total Charge           Charge          ....   -1
 Multiplicity           Mult            ....    1
 Number of Electrons    NEL             ....  302
 Basis Dimension        Dim             .... 1497
 Nuclear Repulsion      ENuc            ....   5098.2503967184 Eh

Convergence Acceleration:
 DIIS                   CNVDIIS         .... on
   Start iteration      DIISMaxIt       ....    12
   Startup error        DIISStart       ....  0.200000
   # of expansion vecs  DIISMaxEq       ....     5
   Bias factor          DIISBfac        ....   1.050
   Max. coefficient     DIISMaxC        ....  10.000
 Trust-Rad. Augm. Hess. CNVTRAH         .... auto
   Auto Start mean grad. ratio tolernc. ....  1.125000
   Auto Start start iteration           ....    20
   Auto Start num. interpolation iter.  ....    10
   Max. Number of Micro iterations      ....    16
   Max. Number of Macro iterations      .... Maxiter - #DIIS iter
   Number of Davidson start vectors     ....     2
   Converg. threshold I  (grad. norm)   ....   1.000e-05
   Converg. threshold II (energy diff.) ....   1.000e-08
   Grad. Scal. Fac. for Micro threshold ....   0.100
   Minimum threshold for Micro iter.    ....   0.010
   NR start threshold (gradient norm)   ....   0.001
   Initial trust radius                 ....   0.400
   Minimum AH scaling param. (alpha)    ....   1.000
   Maximum AH scaling param. (alpha)    .... 1000.000
   Orbital update algorithm             .... Taylor
   White noise on init. David. guess    .... on
   Maximum white noise                  ....   0.010
   Quad. conv. algorithm                .... NR
 SOSCF                  CNVSOSCF        .... on
   Start iteration      SOSCFMaxIt      ....   150
   Startup grad/error   SOSCFStart      ....  0.003300
 Level Shifting         CNVShift        .... on
   Level shift para.    LevelShift      ....    0.2500
   Turn off err/grad.   ShiftErr        ....    0.0010
 Zerner damping         CNVZerner       .... off
 Static damping         CNVDamp         .... on
   Fraction old density DampFac         ....    0.7000
   Max. Damping (<1)    DampMax         ....    0.9800
   Min. Damping (>=0)   DampMin         ....    0.0000
   Turn off err/grad.   DampErr         ....    0.1000
 Fernandez-Rico         CNVRico         .... off

SCF Procedure:
 Maximum # iterations   MaxIter         ....   125
 SCF integral mode      SCFMode         .... Direct
   Integral package                     .... SHARK and LIBINT hybrid scheme
 Reset frequency        DirectResetFreq ....    20
 Integral Threshold     Thresh          ....  2.500e-11 Eh
 Primitive CutOff       TCut            ....  2.500e-12 Eh

Convergence Tolerance:
 Convergence Check Mode ConvCheckMode   .... Total+1el-Energy
 Convergence forced     ConvForced      .... 1
 Energy Change          TolE            ....  1.000e-08 Eh
 1-El. energy change                    ....  1.000e-05 Eh
 Orbital Gradient       TolG            ....  1.000e-05
 Orbital Rotation angle TolX            ....  1.000e-05
 DIIS Error             TolErr          ....  5.000e-07


Diagonalization of the overlap matrix:
Smallest eigenvalue                        ... 3.178e-06
Time for diagonalization                   ...    0.530 sec
Threshold for overlap eigenvalues          ... 1.000e-08
Number of eigenvalues below threshold      ... 0
Time for construction of square roots      ...    0.466 sec
Total time needed                          ...    1.005 sec

Time for model grid setup =    1.124 sec

------------------------------
INITIAL GUESS: MODEL POTENTIAL
------------------------------
Loading Hartree-Fock densities                     ... done
Calculating cut-offs                               ... done
Initializing the effective Hamiltonian             ... done
Setting up the integral package (SHARK)            ... done
Starting the Coulomb interaction                   ... done (   3.3 sec)
Reading the grid                                   ... done
Mapping shells                                     ... done
Starting the XC term evaluation                    ... done (   1.6 sec)
  promolecular density results
     # of electrons  =    300.983923973
     EX              =   -257.039332620
     EC              =     -1.210235289
     EX+EC           =   -258.249567909
Transforming the Hamiltonian                       ... done (   0.4 sec)
Diagonalizing the Hamiltonian                      ... done (   0.6 sec)
Back transforming the eigenvectors                 ... done (   0.2 sec)
Now organizing SCF variables                       ... done
                      ------------------
                      INITIAL GUESS DONE (   7.3 sec)
                      ------------------
-------------------
DFT GRID GENERATION
-------------------

General Integration Accuracy     IntAcc      ... 4.388
Radial Grid Type                 RadialGrid  ... OptM3 with GC (2021)
Angular Grid (max. ang.)         AngularGrid ... 4 (Lebedev-302)
Angular grid pruning method      GridPruning ... 4 (adaptive)
Weight generation scheme         WeightScheme... Becke
Basis function cutoff            BFCut       ... 1.0000e-11
Integration weight cutoff        WCut        ... 1.0000e-14
Angular grids for H and He will be reduced by one unit
Partially contracted basis set               ... off
Rotationally invariant grid construction     ... off

Total number of grid points                  ...   331792
Total number of batches                      ...     5217
Average number of points per batch           ...       63
Average number of grid points per atom       ...     5027
Time for grid setup =    4.012 sec

--------------------
COSX GRID GENERATION
--------------------

GRIDX 1
-------
General Integration Accuracy     IntAcc      ... 3.816
Radial Grid Type                 RadialGrid  ... OptM3 with GC (2021)
Angular Grid (max. ang.)         AngularGrid ... 1 (Lebedev-50)
Angular grid pruning method      GridPruning ... 4 (adaptive)
Weight generation scheme         WeightScheme... Becke
Basis function cutoff            BFCut       ... 1.0000e-11
Integration weight cutoff        WCut        ... 1.0000e-14
Angular grids for H and He will be reduced by one unit
Partially contracted basis set               ... on
Rotationally invariant grid construction     ... off

Total number of grid points                  ...    41889
Total number of batches                      ...      676
Average number of points per batch           ...       61
Average number of grid points per atom       ...      635
UseSFitting                                  ... on

GRIDX 2
-------
General Integration Accuracy     IntAcc      ... 4.020
Radial Grid Type                 RadialGrid  ... OptM3 with GC (2021)
Angular Grid (max. ang.)         AngularGrid ... 2 (Lebedev-110)
Angular grid pruning method      GridPruning ... 4 (adaptive)
Weight generation scheme         WeightScheme... Becke
Basis function cutoff            BFCut       ... 1.0000e-11
Integration weight cutoff        WCut        ... 1.0000e-14
Angular grids for H and He will be reduced by one unit
Partially contracted basis set               ... on
Rotationally invariant grid construction     ... off

Total number of grid points                  ...    91900
Total number of batches                      ...     1466
Average number of points per batch           ...       62
Average number of grid points per atom       ...     1392
UseSFitting                                  ... on

GRIDX 3
-------
General Integration Accuracy     IntAcc      ... 4.338
Radial Grid Type                 RadialGrid  ... OptM3 with GC (2021)
Angular Grid (max. ang.)         AngularGrid ... 3 (Lebedev-194)
Angular grid pruning method      GridPruning ... 4 (adaptive)
Weight generation scheme         WeightScheme... Becke
Basis function cutoff            BFCut       ... 1.0000e-11
Integration weight cutoff        WCut        ... 1.0000e-14
Angular grids for H and He will be reduced by one unit
Partially contracted basis set               ... on
Rotationally invariant grid construction     ... off

Total number of grid points                  ...   201252
Total number of batches                      ...     3177
Average number of points per batch           ...       63
Average number of grid points per atom       ...     3049
UseSFitting                                  ... on

Time for X-Grid setup             =   11.178 sec


--------------------
CPCM SOLVATION MODEL
--------------------
CPCM parameters:
  Epsilon                                         ...      35.6880
  Refrac                                          ...       1.3442
  Rsolv                                           ...       1.3000
  Surface type                                    ... GAUSSIAN VDW
  Epsilon function type                           ...         CPCM
Solvent:                                     ... ACETONITRILE
SMD-CDS solvent descriptors:
  Soln                                       ...    1.3442
  Soln25                                     ...    1.3416
  Sola                                       ...    0.0700
  Solb                                       ...    0.3200
  Solg                                       ...   41.2500
  Solc                                       ...    0.0000
  Solh                                       ...    0.0000
Radii:
 Radius for C  used is    3.4960 Bohr (=   1.8500 Ang.)
 Radius for H  used is    2.2677 Bohr (=   1.2000 Ang.)
 Radius for O  used is    4.0969 Bohr (=   2.1680 Ang.)
 Radius for Na used is    4.2897 Bohr (=   2.2700 Ang.)
Calculating surface                               ...        done! (  0.0s)
GEPOL surface points                              ...         3485
GEPOL Volume                                      ...    4192.0944
GEPOL Surface-area                                ...    2059.7248
Calculating surface distance matrix               ...        done! (  0.1s)
Performing Cholesky decomposition & store         ...        done! (  0.7s)
Overall time for CPCM initialization              ...                 0.7s
--------------
SCF ITERATIONS
--------------
ITER       Energy         Delta-E        Max-DP      RMS-DP      [F,P]     Damp
               ***  Starting incremental Fock matrix formation  ***
  0  -1994.3793539621   0.000000000000 0.33515509  0.00152476  0.3259584 0.7000
  1  -1994.8858695600  -0.506515597946 0.34202066  0.00148935  0.1707452 0.7000
                               ***Turning on DIIS***
  2  -1995.1582225608  -0.272353000743 0.55509324  0.00253954  0.0740887 0.0000
  3  -1995.6413134626  -0.483090901779 0.36209373  0.00144836  0.0776054 0.0000
  4  -1995.6921426193  -0.050829156741 0.05858019  0.00028391  0.0159906 0.0000
  5  -1995.6944668585  -0.002324239193 0.05396160  0.00021164  0.0089040 0.0000
                      *** Initiating the SOSCF procedure ***
                           *** Shutting down DIIS ***
                      *** Re-Reading the Fockian *** 
                      *** Removing any level shift *** 
ITER      Energy       Delta-E        Grad      Rot      Max-DP    RMS-DP
  6  -1995.69494459  -0.0004777297  0.001572  0.001572  0.020298  0.000078
               *** Restarting incremental Fock matrix formation ***
  7  -1995.69499770  -0.0000531098  0.001095  0.003615  0.025685  0.000273
  8  -1995.69505522  -0.0000575228  0.000401  0.003201  0.010561  0.000111
  9  -1995.69506806  -0.0000128393  0.000145  0.000426  0.009414  0.000096
 10  -1995.69507274  -0.0000046810  0.000037  0.000116  0.001170  0.000011
 11  -1995.69507304  -0.0000002992  0.000023  0.000063  0.000430  0.000005
 12  -1995.69507314  -0.0000001019  0.000007  0.000049  0.000905  0.000003
 13  -1995.69507308   0.0000000649  0.000004  0.000025  0.000359  0.000003
                  ***Gradient check signals convergence***
              ***Rediagonalizing the Fockian in SOSCF/NRSCF***

               *****************************************************
               *                     SUCCESS                       *
               *           SCF CONVERGED AFTER  14 CYCLES          *
               *****************************************************

Old exchange energy                            =   -169.661985144 Eh
New exchange energy                            =   -169.661975274 Eh
Exchange energy change after final integration =      0.000009870 Eh
Total energy after final integration           =  -1995.695063303 Eh
Final COS-X integration done in                =   210.798 sec

SMD CDS free energy correction energy :                -8.13499     Kcal/mol
Total Energy after SMD CDS correction =             -1995.708027239 Eh

----------------
TOTAL SCF ENERGY
----------------

Total Energy       :        -1995.70802724 Eh          -54305.97628 eV

Components:
Nuclear Repulsion  :         5098.25039672 Eh          138730.44621 eV
Electronic Energy  :        -7093.95842396 Eh         -193036.42250 eV
One Electron Energy:       -12910.34331134 Eh         -351308.30167 eV
Two Electron Energy:         5816.38488738 Eh          158271.87917 eV
Max COSX asymmetry :            0.00001458 Eh               0.00040 eV
CPCM Dielectric    :           -0.12009632 Eh              -3.26799 eV
SMD CDS (Gcds)     :           -0.01296394 Eh              -0.35277 eV

Virial components:
Potential Energy   :        -3985.47955988 Eh         -108450.41234 eV
Kinetic Energy     :         1989.77153265 Eh           54144.43605 eV
Virial Ratio       :            2.00298351


DFT components:
N(Alpha)           :      151.000023887799 electrons
N(Beta)            :      151.000023887799 electrons
N(Total)           :      302.000047775597 electrons
E(X)               :      -91.539703177241 Eh       
E(C)               :       -6.707136611583 Eh       
E(XC)              :      -98.246839788824 Eh       
DFET-embed. en.    :        0.000000000000 Eh       
CPCM Solvation Model Properties:
Surface-charge          :            0.93234322
Charge-correction       :           -0.00561154 Eh              -0.15270 eV
Free-energy (cav+disp)  :           -0.01296394 Eh              -0.35277 eV

---------------
SCF CONVERGENCE
---------------

  Last Energy change         ...   -9.5800e-08  Tolerance :   1.0000e-08
  Last MAX-Density change    ...    1.9984e-15  Tolerance :   1.0000e-07
  Last RMS-Density change    ...    1.2856e-17  Tolerance :   5.0000e-09
  Last Orbital Gradient      ...    1.2665e-06  Tolerance :   1.0000e-05
  Last Orbital Rotation      ...    7.7954e-06  Tolerance :   1.0000e-05

             **** THE GBW FILE WAS UPDATED (Eos_1_M06L_def2TZVP_coords.gbw) ****
             **** DENSITY Eos_1_M06L_def2TZVP_coords.scfp WAS UPDATED ****
             **** ENERGY FILE WAS UPDATED (Eos_1_M06L_def2TZVP_coords.en.tmp) ****
             **** THE GBW FILE WAS UPDATED (Eos_1_M06L_def2TZVP_coords.gbw) ****
             **** DENSITY Eos_1_M06L_def2TZVP_coords.scfp WAS UPDATED ****
----------------
ORBITAL ENERGIES
----------------

  NO   OCC          E(Eh)            E(eV) 
   0   2.0000     -39.598909     -1077.5411 
   1   2.0000     -19.997980      -544.1727 
   2   2.0000     -19.886424      -541.1371 
   3   2.0000     -19.885966      -541.1246 
   4   2.0000     -19.869569      -540.6785 
   5   2.0000     -19.869560      -540.6782 
   6   2.0000     -10.879885      -296.0567 
   7   2.0000     -10.855498      -295.3931 
   8   2.0000     -10.853739      -295.3453 
   9   2.0000     -10.835576      -294.8510 
  10   2.0000     -10.832569      -294.7692 
  11   2.0000     -10.825649      -294.5809 
  12   2.0000     -10.796394      -293.7848 
  13   2.0000     -10.786484      -293.5152 
  14   2.0000     -10.781127      -293.3694 
  15   2.0000     -10.779916      -293.3364 
  16   2.0000     -10.779435      -293.3233 
  17   2.0000     -10.779363      -293.3214 
  18   2.0000     -10.778149      -293.2883 
  19   2.0000     -10.778042      -293.2854 
  20   2.0000     -10.777919      -293.2821 
  21   2.0000     -10.777464      -293.2697 
  22   2.0000     -10.776346      -293.2393 
  23   2.0000     -10.776123      -293.2332 
  24   2.0000     -10.774710      -293.1948 
  25   2.0000     -10.768310      -293.0206 
  26   2.0000     -10.767668      -293.0032 
  27   2.0000     -10.767353      -292.9946 
  28   2.0000     -10.766907      -292.9824 
  29   2.0000     -10.766794      -292.9794 
  30   2.0000     -10.766644      -292.9753 
  31   2.0000     -10.766358      -292.9675 
  32   2.0000     -10.766255      -292.9647 
  33   2.0000     -10.765551      -292.9455 
  34   2.0000     -10.765475      -292.9435 
  35   2.0000     -10.765389      -292.9411 
  36   2.0000     -10.764854      -292.9266 
  37   2.0000     -10.764805      -292.9252 
  38   2.0000     -10.764562      -292.9186 
  39   2.0000     -10.764330      -292.9123 
  40   2.0000     -10.764088      -292.9057 
  41   2.0000     -10.760026      -292.7952 
  42   2.0000     -10.759667      -292.7854 
  43   2.0000     -10.754397      -292.6420 
  44   2.0000      -2.530930       -68.8701 
  45   2.0000      -1.346942       -36.6521 
  46   2.0000      -1.346153       -36.6307 
  47   2.0000      -1.345207       -36.6050 
  48   2.0000      -1.306365       -35.5480 
  49   2.0000      -1.237962       -33.6867 
  50   2.0000      -1.182168       -32.1684 
  51   2.0000      -1.178685       -32.0737 
  52   2.0000      -1.135594       -30.9011 
  53   2.0000      -1.053342       -28.6629 
  54   2.0000      -1.035469       -28.1765 
  55   2.0000      -1.027773       -27.9671 
  56   2.0000      -1.024750       -27.8849 
  57   2.0000      -1.017284       -27.6817 
  58   2.0000      -1.010483       -27.4966 
  59   2.0000      -0.960455       -26.1353 
  60   2.0000      -0.947119       -25.7724 
  61   2.0000      -0.927648       -25.2426 
  62   2.0000      -0.913837       -24.8668 
  63   2.0000      -0.911180       -24.7945 
  64   2.0000      -0.895247       -24.3609 
  65   2.0000      -0.894012       -24.3273 
  66   2.0000      -0.893092       -24.3023 
  67   2.0000      -0.892147       -24.2766 
  68   2.0000      -0.878768       -23.9125 
  69   2.0000      -0.857481       -23.3333 
  70   2.0000      -0.851233       -23.1632 
  71   2.0000      -0.789704       -21.4889 
  72   2.0000      -0.777139       -21.1470 
  73   2.0000      -0.763340       -20.7715 
  74   2.0000      -0.754174       -20.5221 
  75   2.0000      -0.742179       -20.1957 
  76   2.0000      -0.727812       -19.8048 
  77   2.0000      -0.726394       -19.7662 
  78   2.0000      -0.723449       -19.6861 
  79   2.0000      -0.720732       -19.6121 
  80   2.0000      -0.715821       -19.4785 
  81   2.0000      -0.695562       -18.9272 
  82   2.0000      -0.684708       -18.6319 
  83   2.0000      -0.661342       -17.9960 
  84   2.0000      -0.651072       -17.7166 
  85   2.0000      -0.642313       -17.4782 
  86   2.0000      -0.629349       -17.1255 
  87   2.0000      -0.619685       -16.8625 
  88   2.0000      -0.609064       -16.5735 
  89   2.0000      -0.604399       -16.4465 
  90   2.0000      -0.599559       -16.3148 
  91   2.0000      -0.580208       -15.7883 
  92   2.0000      -0.577284       -15.7087 
  93   2.0000      -0.570488       -15.5238 
  94   2.0000      -0.567530       -15.4433 
  95   2.0000      -0.564960       -15.3733 
  96   2.0000      -0.556967       -15.1558 
  97   2.0000      -0.548596       -14.9280 
  98   2.0000      -0.548007       -14.9120 
  99   2.0000      -0.546618       -14.8742 
 100   2.0000      -0.540929       -14.7194 
 101   2.0000      -0.538807       -14.6617 
 102   2.0000      -0.536797       -14.6070 
 103   2.0000      -0.533098       -14.5063 
 104   2.0000      -0.529244       -14.4015 
 105   2.0000      -0.525132       -14.2896 
 106   2.0000      -0.521856       -14.2004 
 107   2.0000      -0.508917       -13.8483 
 108   2.0000      -0.507835       -13.8189 
 109   2.0000      -0.506249       -13.7757 
 110   2.0000      -0.505568       -13.7572 
 111   2.0000      -0.504132       -13.7181 
 112   2.0000      -0.498679       -13.5697 
 113   2.0000      -0.494530       -13.4568 
 114   2.0000      -0.488880       -13.3031 
 115   2.0000      -0.474968       -12.9245 
 116   2.0000      -0.469231       -12.7684 
 117   2.0000      -0.467776       -12.7288 
 118   2.0000      -0.461193       -12.5497 
 119   2.0000      -0.458964       -12.4890 
 120   2.0000      -0.449784       -12.2392 
 121   2.0000      -0.448793       -12.2123 
 122   2.0000      -0.443868       -12.0783 
 123   2.0000      -0.442457       -12.0399 
 124   2.0000      -0.435060       -11.8386 
 125   2.0000      -0.433461       -11.7951 
 126   2.0000      -0.427878       -11.6432 
 127   2.0000      -0.421981       -11.4827 
 128   2.0000      -0.420467       -11.4415 
 129   2.0000      -0.419533       -11.4161 
 130   2.0000      -0.419027       -11.4023 
 131   2.0000      -0.414940       -11.2911 
 132   2.0000      -0.403413       -10.9774 
 133   2.0000      -0.393096       -10.6967 
 134   2.0000      -0.361287        -9.8311 
 135   2.0000      -0.358277        -9.7492 
 136   2.0000      -0.348823        -9.4920 
 137   2.0000      -0.339494        -9.2381 
 138   2.0000      -0.325373        -8.8538 
 139   2.0000      -0.323401        -8.8002 
 140   2.0000      -0.320227        -8.7138 
 141   2.0000      -0.314062        -8.5461 
 142   2.0000      -0.305863        -8.3230 
 143   2.0000      -0.304085        -8.2746 
 144   2.0000      -0.301755        -8.2112 
 145   2.0000      -0.299058        -8.1378 
 146   2.0000      -0.294713        -8.0195 
 147   2.0000      -0.290962        -7.9175 
 148   2.0000      -0.270895        -7.3714 
 149   2.0000      -0.250670        -6.8211 
 150   2.0000      -0.211400        -5.7525 
 151   0.0000      -0.011629        -0.3164 
 152   0.0000       0.015905         0.4328 
 153   0.0000       0.034819         0.9475 
 154   0.0000       0.047272         1.2863 
 155   0.0000       0.051845         1.4108 
 156   0.0000       0.057899         1.5755 
 157   0.0000       0.060956         1.6587 
 158   0.0000       0.061720         1.6795 
 159   0.0000       0.063882         1.7383 
 160   0.0000       0.069537         1.8922 
 161   0.0000       0.070948         1.9306 
 162   0.0000       0.073620         2.0033 
 163   0.0000       0.078841         2.1454 
 164   0.0000       0.091942         2.5019 
 165   0.0000       0.103130         2.8063 
 166   0.0000       0.105938         2.8827 
 167   0.0000       0.110952         3.0192 
 168   0.0000       0.115057         3.1309 
 169   0.0000       0.124102         3.3770 
 170   0.0000       0.127366         3.4658 
 171   0.0000       0.128871         3.5068 
 172   0.0000       0.132455         3.6043 
 173   0.0000       0.134563         3.6617 
 174   0.0000       0.137919         3.7530 
 175   0.0000       0.144565         3.9338 
 176   0.0000       0.151756         4.1295 
 177   0.0000       0.153797         4.1850 
 178   0.0000       0.154433         4.2023 
 179   0.0000       0.156997         4.2721 
 180   0.0000       0.162670         4.4265 
 181   0.0000       0.163646         4.4530 
 182   0.0000       0.169156         4.6030 
 183   0.0000       0.170721         4.6456 
 184   0.0000       0.173890         4.7318 
 185   0.0000       0.176600         4.8055 
 186   0.0000       0.179179         4.8757 
 187   0.0000       0.180307         4.9064 
 188   0.0000       0.186439         5.0733 
 189   0.0000       0.187941         5.1141 
 190   0.0000       0.192920         5.2496 
 191   0.0000       0.193484         5.2650 
 192   0.0000       0.200422         5.4538 
 193   0.0000       0.204547         5.5660 
 194   0.0000       0.213912         5.8208 
 195   0.0000       0.218108         5.9350 
 196   0.0000       0.221075         6.0158 
 197   0.0000       0.225556         6.1377 
 198   0.0000       0.229191         6.2366 
 199   0.0000       0.233378         6.3505 
 200   0.0000       0.234901         6.3920 
 201   0.0000       0.239383         6.5140 
 202   0.0000       0.242353         6.5948 
 203   0.0000       0.245279         6.6744 
 204   0.0000       0.246645         6.7115 
 205   0.0000       0.248311         6.7569 
 206   0.0000       0.255047         6.9402 
 207   0.0000       0.255839         6.9617 
 208   0.0000       0.260127         7.0784 
 209   0.0000       0.262423         7.1409 
 210   0.0000       0.264990         7.2107 
 211   0.0000       0.269852         7.3431 
 212   0.0000       0.271966         7.4006 
 213   0.0000       0.272573         7.4171 
 214   0.0000       0.275492         7.4965 
 215   0.0000       0.278112         7.5678 
 216   0.0000       0.280117         7.6224 
 217   0.0000       0.282926         7.6988 
 218   0.0000       0.283600         7.7172 
 219   0.0000       0.286096         7.7851 
 220   0.0000       0.287103         7.8125 
 221   0.0000       0.288997         7.8640 
 222   0.0000       0.293333         7.9820 
 223   0.0000       0.294939         8.0257 
 224   0.0000       0.296359         8.0643 
 225   0.0000       0.296733         8.0745 
 226   0.0000       0.299548         8.1511 
 227   0.0000       0.304368         8.2823 
 228   0.0000       0.305854         8.3227 
 229   0.0000       0.308950         8.4070 
 230   0.0000       0.311588         8.4787 
 231   0.0000       0.314100         8.5471 
 232   0.0000       0.315804         8.5935 
 233   0.0000       0.318344         8.6626 
 234   0.0000       0.318429         8.6649 
 235   0.0000       0.322758         8.7827 
 236   0.0000       0.327063         8.8998 
 237   0.0000       0.328689         8.9441 
 238   0.0000       0.331868         9.0306 
 239   0.0000       0.332291         9.0421 
 240   0.0000       0.335436         9.1277 
 241   0.0000       0.338019         9.1980 
 242   0.0000       0.341536         9.2937 
 243   0.0000       0.347158         9.4467 
 244   0.0000       0.349248         9.5035 
 245   0.0000       0.350484         9.5372 
 246   0.0000       0.355680         9.6785 
 247   0.0000       0.358223         9.7477 
 248   0.0000       0.363655         9.8956 
 249   0.0000       0.365875         9.9560 
 250   0.0000       0.367614        10.0033 
 251   0.0000       0.369969        10.0674 
 252   0.0000       0.372386        10.1331 
 253   0.0000       0.372737        10.1427 
 254   0.0000       0.376794        10.2531 
 255   0.0000       0.380393        10.3510 
 256   0.0000       0.385023        10.4770 
 257   0.0000       0.386035        10.5046 
 258   0.0000       0.391093        10.6422 
 259   0.0000       0.392469        10.6796 
 260   0.0000       0.396975        10.8022 
 261   0.0000       0.398904        10.8547 
 262   0.0000       0.401091        10.9142 
 263   0.0000       0.404792        11.0150 
 264   0.0000       0.408048        11.1036 
 265   0.0000       0.409251        11.1363 
 266   0.0000       0.411818        11.2061 
 267   0.0000       0.414363        11.2754 
 268   0.0000       0.417778        11.3683 
 269   0.0000       0.419354        11.4112 
 270   0.0000       0.422441        11.4952 
 271   0.0000       0.424503        11.5513 
 272   0.0000       0.427637        11.6366 
 273   0.0000       0.430233        11.7072 
 274   0.0000       0.431071        11.7300 
 275   0.0000       0.433874        11.8063 
 276   0.0000       0.435544        11.8517 
 277   0.0000       0.438778        11.9397 
 278   0.0000       0.442636        12.0447 
 279   0.0000       0.443300        12.0628 
 280   0.0000       0.445166        12.1136 
 281   0.0000       0.449312        12.2264 
 282   0.0000       0.454262        12.3611 
 283   0.0000       0.458106        12.4657 
 284   0.0000       0.459160        12.4944 
 285   0.0000       0.460685        12.5359 
 286   0.0000       0.465024        12.6539 
 287   0.0000       0.466919        12.7055 
 288   0.0000       0.467599        12.7240 
 289   0.0000       0.471200        12.8220 
 290   0.0000       0.472325        12.8526 
 291   0.0000       0.475964        12.9516 
 292   0.0000       0.479807        13.0562 
 293   0.0000       0.482888        13.1400 
 294   0.0000       0.485654        13.2153 
 295   0.0000       0.487992        13.2789 
 296   0.0000       0.488959        13.3053 
 297   0.0000       0.492240        13.3945 
 298   0.0000       0.494097        13.4451 
 299   0.0000       0.495451        13.4819 
 300   0.0000       0.496340        13.5061 
 301   0.0000       0.497101        13.5268 
 302   0.0000       0.501410        13.6440 
 303   0.0000       0.502162        13.6645 
 304   0.0000       0.506056        13.7705 
 305   0.0000       0.507949        13.8220 
 306   0.0000       0.512904        13.9568 
 307   0.0000       0.514301        13.9948 
 308   0.0000       0.515747        14.0342 
 309   0.0000       0.518585        14.1114 
 310   0.0000       0.520941        14.1755 
 311   0.0000       0.522316        14.2129 
 312   0.0000       0.523907        14.2562 
 313   0.0000       0.526290        14.3211 
 314   0.0000       0.527138        14.3442 
 315   0.0000       0.529189        14.4000 
 316   0.0000       0.535033        14.5590 
 317   0.0000       0.537159        14.6168 
 318   0.0000       0.538104        14.6426 
 319   0.0000       0.539919        14.6920 
 320   0.0000       0.543558        14.7910 
 321   0.0000       0.544883        14.8270 
 322   0.0000       0.548253        14.9187 
 323   0.0000       0.550976        14.9928 
 324   0.0000       0.556294        15.1375 
 325   0.0000       0.556988        15.1564 
 326   0.0000       0.557760        15.1774 
 327   0.0000       0.560666        15.2565 
 328   0.0000       0.565864        15.3979 
 329   0.0000       0.567706        15.4481 
 330   0.0000       0.569540        15.4980 
 331   0.0000       0.571192        15.5429 
 332   0.0000       0.575598        15.6628 
 333   0.0000       0.577400        15.7119 
 334   0.0000       0.579845        15.7784 
 335   0.0000       0.584484        15.9046 
 336   0.0000       0.588336        16.0094 
 337   0.0000       0.591759        16.1026 
 338   0.0000       0.593358        16.1461 
 339   0.0000       0.594718        16.1831 
 340   0.0000       0.601899        16.3785 
 341   0.0000       0.604111        16.4387 
 342   0.0000       0.605468        16.4756 
 343   0.0000       0.607809        16.5393 
 344   0.0000       0.608855        16.5678 
 345   0.0000       0.611059        16.6278 
 346   0.0000       0.615338        16.7442 
 347   0.0000       0.616251        16.7690 
 348   0.0000       0.618755        16.8372 
 349   0.0000       0.622475        16.9384 
 350   0.0000       0.624427        16.9915 
 351   0.0000       0.627099        17.0642 
 352   0.0000       0.631170        17.1750 
 353   0.0000       0.633817        17.2470 
 354   0.0000       0.635546        17.2941 
 355   0.0000       0.640042        17.4164 
 356   0.0000       0.644699        17.5431 
 357   0.0000       0.648867        17.6566 
 358   0.0000       0.653138        17.7728 
 359   0.0000       0.655662        17.8415 
 360   0.0000       0.661381        17.9971 
 361   0.0000       0.662459        18.0264 
 362   0.0000       0.663867        18.0647 
 363   0.0000       0.671183        18.2638 
 364   0.0000       0.676992        18.4219 
 365   0.0000       0.679581        18.4923 
 366   0.0000       0.685146        18.6438 
 367   0.0000       0.686911        18.6918 
 368   0.0000       0.692172        18.8350 
 369   0.0000       0.696645        18.9567 
 370   0.0000       0.702284        19.1101 
 371   0.0000       0.704868        19.1804 
 372   0.0000       0.707288        19.2463 
 373   0.0000       0.710451        19.3323 
 374   0.0000       0.714505        19.4427 
 375   0.0000       0.722188        19.6517 
 376   0.0000       0.724203        19.7066 
 377   0.0000       0.728871        19.8336 
 378   0.0000       0.730291        19.8722 
 379   0.0000       0.736930        20.0529 
 380   0.0000       0.741595        20.1798 
 381   0.0000       0.744242        20.2518 
 382   0.0000       0.745980        20.2991 
 383   0.0000       0.748947        20.3799 
 384   0.0000       0.754571        20.5329 
 385   0.0000       0.756811        20.5939 
 386   0.0000       0.763244        20.7689 
 387   0.0000       0.765807        20.8387 
 388   0.0000       0.768068        20.9002 
 389   0.0000       0.772180        21.0121 
 390   0.0000       0.775562        21.1041 
 391   0.0000       0.777489        21.1565 
 392   0.0000       0.781765        21.2729 
 393   0.0000       0.786840        21.4110 
 394   0.0000       0.787705        21.4346 
 395   0.0000       0.792432        21.5632 
 396   0.0000       0.793965        21.6049 
 397   0.0000       0.795638        21.6504 
 398   0.0000       0.797067        21.6893 
[...]
   148a -> 153a  :     0.030834 
   149a -> 153a  :     0.127766 
   149a -> 154a  :     0.052015 
   149a -> 155a  :     0.010105 
   149a -> 164a  :     0.018524 
   150a -> 155a  :     0.028836 
   150a -> 156a  :     0.247975 
   150a -> 158a  :     0.190017 
   150a -> 159a  :     0.038152 
   150a -> 164a  :     0.011181 

STATE 19:  E=   0.175068 au      4.764 eV    38423.0 cm**-1 <S**2> =   0.000000
   143a -> 151a  :     0.037283 
   147a -> 151a  :     0.022207 
   148a -> 159a  :     0.026760 
   149a -> 152a  :     0.017071 
   149a -> 153a  :     0.147962 
   149a -> 155a  :     0.029035 
   149a -> 156a  :     0.018540 
   149a -> 159a  :     0.015244 
   150a -> 155a  :     0.057195 
   150a -> 156a  :     0.011235 
   150a -> 157a  :     0.109060 
   150a -> 158a  :     0.016764 
   150a -> 159a  :     0.140132 
   150a -> 164a  :     0.118178 

STATE 20:  E=   0.188991 au      5.143 eV    41478.6 cm**-1 <S**2> =   0.000000
   139a -> 151a  :     0.016901 
   140a -> 151a  :     0.012578 
   142a -> 155a  :     0.010906 
   143a -> 153a  :     0.027356 
   147a -> 151a  :     0.017006 
   148a -> 152a  :     0.016526 
   148a -> 153a  :     0.015113 
   148a -> 154a  :     0.016247 
   148a -> 155a  :     0.022849 
   148a -> 159a  :     0.036158 
   149a -> 152a  :     0.144258 
   149a -> 155a  :     0.016508 
   149a -> 156a  :     0.034447 
   149a -> 159a  :     0.120326 
   149a -> 168a  :     0.016523 
   150a -> 158a  :     0.046111 
   150a -> 159a  :     0.021517 
   150a -> 161a  :     0.015312 
   150a -> 164a  :     0.074292 
   150a -> 168a  :     0.054824 

STATE 21:  E=   0.191437 au      5.209 eV    42015.7 cm**-1 <S**2> =   0.000000
   143a -> 153a  :     0.017475 
   144a -> 151a  :     0.012911 
   144a -> 159a  :     0.015423 
   144a -> 161a  :     0.011755 
   145a -> 155a  :     0.012205 
   146a -> 153a  :     0.011201 
   148a -> 153a  :     0.012427 
   148a -> 159a  :     0.026261 
   149a -> 152a  :     0.142048 
   149a -> 157a  :     0.015169 
   149a -> 159a  :     0.059279 
   149a -> 163a  :     0.023956 
   150a -> 152a  :     0.033953 
   150a -> 156a  :     0.167654 
   150a -> 158a  :     0.089675 
   150a -> 159a  :     0.019194 
   150a -> 163a  :     0.041176 
   150a -> 164a  :     0.012694 
   150a -> 168a  :     0.015154 

STATE 22:  E=   0.192950 au      5.250 eV    42347.6 cm**-1 <S**2> =   0.000000
   146a -> 154a  :     0.010505 
   148a -> 152a  :     0.010414 
   149a -> 152a  :     0.076639 
   149a -> 162a  :     0.016008 
   150a -> 152a  :     0.010187 
   150a -> 155a  :     0.020128 
   150a -> 157a  :     0.423614 
   150a -> 158a  :     0.032263 
   150a -> 159a  :     0.094413 
   150a -> 160a  :     0.020168 
   150a -> 163a  :     0.057933 
   150a -> 174a  :     0.012286 

STATE 23:  E=   0.191833 au      5.220 eV    42102.4 cm**-1 <S**2> =   0.000000
   144a -> 151a  :     0.027337 
   144a -> 159a  :     0.013669 
   145a -> 151a  :     0.026112 
   145a -> 153a  :     0.016103 
   145a -> 155a  :     0.010574 
   148a -> 152a  :     0.048281 
   148a -> 153a  :     0.016197 
   149a -> 152a  :     0.335492 
   149a -> 155a  :     0.010341 
   149a -> 157a  :     0.026888 
   149a -> 159a  :     0.014692 
   149a -> 163a  :     0.011298 
   150a -> 155a  :     0.034391 
   150a -> 156a  :     0.065343 
   150a -> 157a  :     0.014098 
   150a -> 158a  :     0.066108 
   150a -> 159a  :     0.025744 
   150a -> 164a  :     0.013187 
   150a -> 166a  :     0.013630 

STATE 24:  E=   0.188924 au      5.141 eV    41464.0 cm**-1 <S**2> =   0.000000
   143a -> 153a  :     0.011908 
   145a -> 161a  :     0.010237 
   146a -> 162a  :     0.017095 
   147a -> 154a  :     0.033395 
   148a -> 153a  :     0.087764 
   149a -> 154a  :     0.064561 
   149a -> 155a  :     0.060917 
   149a -> 156a  :     0.030028 
   149a -> 158a  :     0.028864 
   150a -> 154a  :     0.010505 
   150a -> 155a  :     0.014939 
   150a -> 157a  :     0.022891 
   150a -> 158a  :     0.071731 
   150a -> 159a  :     0.011940 
   150a -> 161a  :     0.023206 
   150a -> 164a  :     0.209943 
   150a -> 166a  :     0.062634 

STATE 25:  E=   0.197277 au      5.368 eV    43297.4 cm**-1 <S**2> =   0.000000
   139a -> 151a  :     0.018041 
   139a -> 154a  :     0.010469 
   141a -> 153a  :     0.011711 
   142a -> 151a  :     0.061305 
   142a -> 153a  :     0.064362 
   142a -> 155a  :     0.046741 
   142a -> 158a  :     0.049616 
   143a -> 151a  :     0.088934 
   143a -> 153a  :     0.176736 
   143a -> 154a  :     0.053209 
   143a -> 155a  :     0.044821 
   143a -> 156a  :     0.039940 
   147a -> 153a  :     0.022916 
   148a -> 153a  :     0.018847 
   148a -> 154a  :     0.012178 
   149a -> 154a  :     0.014796 
   150a -> 158a  :     0.019244 
   150a -> 161a  :     0.013495 
   150a -> 164a  :     0.022833 

STATE 26:  E=   0.187802 au      5.110 eV    41217.9 cm**-1 <S**2> =   0.000000
   139a -> 151a  :     0.013507 
   139a -> 153a  :     0.012201 
   142a -> 151a  :     0.285351 
   142a -> 153a  :     0.079792 
   142a -> 154a  :     0.027809 
   142a -> 155a  :     0.015083 
   142a -> 156a  :     0.016490 
   143a -> 151a  :     0.065027 
   143a -> 154a  :     0.014881 
   143a -> 155a  :     0.018098 
   143a -> 158a  :     0.032807 
   144a -> 151a  :     0.011837 
   147a -> 153a  :     0.015943 
   147a -> 155a  :     0.023984 
   148a -> 153a  :     0.033150 
   148a -> 158a  :     0.010326 
   149a -> 164a  :     0.018003 
   150a -> 159a  :     0.022069 
   150a -> 161a  :     0.011211 
   150a -> 166a  :     0.051528 

STATE 27:  E=   0.187924 au      5.114 eV    41244.5 cm**-1 <S**2> =   0.000000
   142a -> 151a  :     0.028238 
   142a -> 153a  :     0.022337 
   144a -> 151a  :     0.030188 
   144a -> 153a  :     0.032064 
   144a -> 155a  :     0.026289 
   145a -> 151a  :     0.064362 
   145a -> 153a  :     0.012190 
   145a -> 159a  :     0.024054 
   146a -> 151a  :     0.018069 
   146a -> 159a  :     0.022517 
   147a -> 151a  :     0.010749 
   149a -> 164a  :     0.012427 
   150a -> 160a  :     0.010183 
   150a -> 161a  :     0.222826 
   150a -> 162a  :     0.092148 
   150a -> 163a  :     0.038445 
   150a -> 164a  :     0.027052 
   150a -> 166a  :     0.056317 

STATE 28:  E=   0.186887 au      5.085 eV    41017.0 cm**-1 <S**2> =   0.000000
   141a -> 162a  :     0.016977 
   142a -> 151a  :     0.052182 
   142a -> 153a  :     0.010352 
   144a -> 154a  :     0.011594 
   145a -> 151a  :     0.041407 
   145a -> 154a  :     0.038958 
   145a -> 158a  :     0.014432 
   146a -> 151a  :     0.036354 
   146a -> 154a  :     0.025016 
   146a -> 155a  :     0.021347 
   146a -> 158a  :     0.020614 
   147a -> 151a  :     0.010824 
   149a -> 152a  :     0.014585 
   150a -> 157a  :     0.023400 
   150a -> 159a  :     0.010976 
   150a -> 160a  :     0.202896 
   150a -> 161a  :     0.020093 
   150a -> 162a  :     0.149139 
   150a -> 163a  :     0.057162 

STATE 29:  E=   0.189871 au      5.167 eV    41671.9 cm**-1 <S**2> =   0.000000
   140a -> 151a  :     0.010711 
   142a -> 151a  :     0.044941 
   145a -> 162a  :     0.010014 
   146a -> 151a  :     0.047611 
   146a -> 156a  :     0.011688 
   146a -> 159a  :     0.010099 
   147a -> 151a  :     0.015585 
   148a -> 152a  :     0.012983 
   148a -> 153a  :     0.017365 
   148a -> 166a  :     0.012860 
   149a -> 154a  :     0.054992 
   149a -> 164a  :     0.075611 
   150a -> 154a  :     0.014853 
   150a -> 155a  :     0.014485 
   150a -> 159a  :     0.035173 
   150a -> 160a  :     0.025046 
   150a -> 161a  :     0.135437 
   150a -> 166a  :     0.186529 

STATE 30:  E=   0.191152 au      5.202 eV    41953.0 cm**-1 <S**2> =   0.000000
   144a -> 151a  :     0.067261 
   144a -> 159a  :     0.017163 
   145a -> 151a  :     0.016864 
   145a -> 153a  :     0.013762 
   145a -> 155a  :     0.020114 
   146a -> 153a  :     0.022914 
   146a -> 154a  :     0.014510 
   146a -> 159a  :     0.012019 
   148a -> 152a  :     0.027356 
   150a -> 156a  :     0.018526 
   150a -> 160a  :     0.115925 
   150a -> 161a  :     0.059399 
   150a -> 162a  :     0.266155 
   150a -> 163a  :     0.143369 


-------------------------
TD-DFT-EXCITATION SPECTRA
-------------------------

Center of mass = ( -0.0183, -0.0316,  0.0413)
Calculating the Dipole integrals                  ... done
Transforming integrals                            ... done
Calculating the Linear Momentum integrals         ... done
Transforming integrals                            ... done
Calculating angular momentum integrals            ... done
Transforming integrals                            ... done

-----------------------------------------------------------------------------
         ABSORPTION SPECTRUM VIA TRANSITION ELECTRIC DIPOLE MOMENTS
-----------------------------------------------------------------------------
State   Energy    Wavelength  fosc         T2        TX        TY        TZ  
        (cm-1)      (nm)                 (au**2)    (au)      (au)      (au) 
-----------------------------------------------------------------------------
   1   19579.5    510.7   0.878327447  14.76830  -2.54696   2.87735   0.04680
   2   25949.2    385.4   0.089450985   1.13485  -1.00233  -0.34093  -0.11808
   3   28322.2    353.1   0.105634313   1.22787   1.09671   0.05106   0.15000
   4   31542.1    317.0   0.076997483   0.80364  -0.48992  -0.75074   0.00276
   5   34163.7    292.7   0.015084886   0.14536  -0.31708  -0.21114  -0.01553
   6   32226.3    310.3   0.447694608   4.57349   1.77254   1.18555   0.16141
   7   29248.8    341.9   0.001530238   0.01722  -0.04736  -0.11938  -0.02702
   8   29586.1    338.0   0.011056191   0.12303   0.29617   0.18786   0.00415
   9   36096.1    277.0   0.160421021   1.46311   1.01070  -0.66431  -0.01720
  10   33950.7    294.5   0.163812544   1.58845   0.73076   1.02274   0.09184
  11   35116.5    284.8   0.086114943   0.80731  -0.56727  -0.69673  -0.00872
  12   37592.1    266.0   0.015737959   0.13782   0.35522  -0.06015  -0.08958
  13   37729.3    265.0   0.082365230   0.71869  -0.73209   0.42544  -0.04166
  14   37681.3    265.4   0.051368455   0.44879  -0.53756   0.39918   0.02192
  15   38091.6    262.5   0.003674624   0.03176  -0.10750  -0.00117   0.14213
  16   37590.0    266.0   0.029905610   0.26191   0.27303   0.23808   0.36150
  17   38066.1    262.7   0.013457288   0.11638  -0.24171  -0.22573  -0.08371
  18   37158.0    269.1   0.107807056   0.95515  -0.44103   0.85925   0.14943
  19   38423.0    260.3   0.018003415   0.15426  -0.09515  -0.38104  -0.00344
  20   41478.6    241.1   0.137955364   1.09494  -1.00609   0.25116  -0.14015
  21   42015.7    238.0   0.032574643   0.25524   0.50132  -0.04453   0.04399
  22   42347.6    236.1   0.004898555   0.03808  -0.18941  -0.03035  -0.03585
  23   42102.4    237.5   0.017488048   0.13674  -0.31323   0.09647  -0.17124
  24   41464.0    241.2   0.168319493   1.33641  -0.86662  -0.72402  -0.24732
  25   43297.4    231.0   0.079968084   0.60804   0.14362  -0.50091  -0.58008
  26   41217.9    242.6   0.017575379   0.14038  -0.11424   0.15335  -0.32219
  27   41244.5    242.5   0.017133597   0.13676   0.05403   0.36538  -0.01833
  28   41017.0    243.8   0.020614617   0.16546   0.38004  -0.09395   0.11047
  29   41671.9    240.0   0.086468273   0.68311   0.82329  -0.07272   0.00218
  30   41953.0    238.4   0.096461905   0.75695  -0.12037   0.75288  -0.41909

-----------------------------------------------------------------------------
         ABSORPTION SPECTRUM VIA TRANSITION VELOCITY DIPOLE MOMENTS
-----------------------------------------------------------------------------
State   Energy    Wavelength   fosc        P2         PX        PY        PZ  
        (cm-1)      (nm)                 (au**2)     (au)      (au)      (au) 
-----------------------------------------------------------------------------
   1   19579.5    510.7   1.290156714   0.17264   0.27525  -0.31121  -0.00540
   2   25949.2    385.4   0.135716598   0.02407   0.14601   0.04955   0.01719
   3   28322.2    353.1   0.157470327   0.03048  -0.17280  -0.00790  -0.02361
   4   31542.1    317.0   0.104341907   0.02249   0.08283   0.12503  -0.00050
   5   34163.7    292.7   0.017970514   0.00420   0.05359   0.03633   0.00208
   6   32226.3    310.3   0.625861804   0.13785  -0.30768  -0.20586  -0.02827
   7   29248.8    341.9   0.002675189   0.00053   0.00808   0.02111   0.00488
   8   29586.1    338.0   0.019620412   0.00397  -0.05321  -0.03369  -0.00104
   9   36096.1    277.0   0.198978050   0.04909  -0.18470   0.12232   0.00336
  10   33950.7    294.5   0.236584870   0.05490  -0.13648  -0.18970  -0.01682
  11   35116.5    284.8   0.116856818   0.02805   0.10483   0.13059   0.00169
  12   37592.1    266.0   0.019937207   0.00512  -0.06824   0.01105   0.01855
  13   37729.3    265.0   0.106293470   0.02741   0.14295  -0.08305   0.00879
  14   37681.3    265.4   0.067676286   0.01743   0.10710  -0.07713  -0.00322
  15   38091.6    262.5   0.005339566   0.00139   0.02209  -0.00045  -0.03003
  16   37590.0    266.0   0.039744948   0.01021  -0.05382  -0.04763  -0.07103
  17   38066.1    262.7   0.017696475   0.00460   0.04795   0.04501   0.01671
  18   37158.0    269.1   0.153668337   0.03903   0.08829  -0.17409  -0.03036
  19   38423.0    260.3   0.024392490   0.00641   0.01881   0.07779  -0.00004
  20   41478.6    241.1   0.167297109   0.04743   0.20928  -0.05222   0.03002
  21   42015.7    238.0   0.039645671   0.01138  -0.10607   0.00894  -0.00731
  22   42347.6    236.1   0.007078934   0.00205   0.04311   0.00798   0.01125
  23   42102.4    237.5   0.021636491   0.00623   0.06615  -0.02118   0.03743
  24   41464.0    241.2   0.213276124   0.06044   0.18480   0.15367   0.05170
  25   43297.4    231.0   0.096474935   0.02855  -0.03118   0.10841   0.12580
  26   41217.9    242.6   0.024393597   0.00687   0.02443  -0.03315   0.07194
  27   41244.5    242.5   0.023545178   0.00664  -0.01088  -0.08067   0.00329
  28   41017.0    243.8   0.028625903   0.00802  -0.08342   0.02009  -0.02573
  29   41671.9    240.0   0.117610639   0.03350  -0.18235   0.01556  -0.00149
  30   41953.0    238.4   0.130958254   0.03755   0.02656  -0.16687   0.09487

-------------------------------------------------------------------
                             CD SPECTRUM
-------------------------------------------------------------------
State  Energy     Wavelength     R         MX        MY        MZ   
       (cm-1)       (nm)     (1e40*cgs)   (au)      (au)      (au)  
-------------------------------------------------------------------
   1   19579.5    510.7    -106.32839   0.20845   0.11863  -0.76813
   2   25949.2    385.4     10.46318  -0.03541   0.03931  -0.00084
   3   28322.2    353.1    -21.75116  -0.02082  -0.06047  -0.13479
   4   31542.1    317.0     -3.88007  -0.05007   0.04238  -0.34113
   5   34163.7    292.7      9.82930  -0.06083   0.00814  -0.21113
   6   32226.3    310.3    171.75009   0.23484  -0.10724   0.46571
   7   29248.8    341.9    -11.54515   0.23033   0.08660   0.11999
   8   29586.1    338.0      6.93459  -0.12635   0.27534   0.09765
   9   36096.1    277.0    -21.04726  -0.13051  -0.14922   0.68957
  10   33950.7    294.5      5.36170   0.14679  -0.11105   0.19249
  11   35116.5    284.8    -14.12418  -0.07143   0.11003  -0.70887
  12   37592.1    266.0      0.33707  -0.08756  -0.18795  -0.22896
  13   37729.3    265.0     46.31861  -0.09237   0.05190  -0.20508
  14   37681.3    265.4     14.01050   0.01471   0.10613  -0.21621
  15   38091.6    262.5    -45.88003   0.18219  -0.28492  -0.54924
  16   37590.0    266.0     -7.60756  -0.23853   0.25574  -0.03291
  17   38066.1    262.7     15.44622   0.08115  -0.08023  -0.40935
  18   37158.0    269.1      1.95263   0.08358   0.06698  -0.11077
  19   38423.0    260.3     -8.02053  -0.18225   0.08690   0.36049
  20   41478.6    241.1    -65.78328   0.08126  -0.07871   0.27117
  21   42015.7    238.0    -33.59466  -0.10789  -0.03362  -0.42446
  22   42347.6    236.1      9.75944  -0.08266   0.00447  -0.14448
  23   42102.4    237.5     40.34108  -0.15382  -0.12674  -0.28973
  24   41464.0    241.2    100.96304   0.05889  -0.17226  -0.56796
  25   43297.4    231.0    -79.27779   0.33393  -0.21666   0.55965
  26   41217.9    242.6    -57.76129   0.28295  -0.27816   0.14754
  27   41244.5    242.5    -60.39842   0.08930  -0.40606  -0.84166
  28   41017.0    243.8      0.84136   0.02055  -0.58423  -0.55138
  29   41671.9    240.0     35.10886   0.08407  -0.07605  -0.12673
  30   41953.0    238.4    101.73848  -0.31399   0.11291  -0.22189

Total run time:   342532.894 sec

           *** ORCA-CIS/TD-DFT FINISHED WITHOUT ERROR ***

Maximum memory used throughout the entire CIS-calculation: 10093.6 MB

-----------------------
CIS/TD-DFT TOTAL ENERGY
-----------------------

    E(SCF)  =  -1995.708027239 Eh
    DE(CIS) =      0.089210746 Eh (Root  1)
    ----------------------------- ---------
    E(tot)  =  -1995.618816493 Eh


-------------------------   --------------------
FINAL SINGLE POINT ENERGY     -1995.618816492794
-------------------------   --------------------


                            ***************************************
                            *     ORCA property calculations      *
                            ***************************************


  WARNING: The energy has been calculated at the MP2 level but the densities
           used in the property calculations are still SCF densities
           MP2 response densities have not been calculated 
           use %mp2 Density relaxed end
           or  %mp2 Density unrelaxed end

                                    ---------------------
                                    Active property flags
                                    ---------------------
   (+) Dipole Moment


------------------------------------------------------------------------------
                       ORCA ELECTRIC PROPERTIES CALCULATION
------------------------------------------------------------------------------

Dipole Moment Calculation                       ... on
Quadrupole Moment Calculation                   ... off
Polarizability Calculation                      ... off
GBWName                                         ... Eos_1_M06L_def2TZVP_coords.gbw
Electron density                                ... Eos_1_M06L_def2TZVP_coords.scfp
The origin for moment calculation is the CENTER OF MASS  = (-0.018259, -0.031626  0.041264)

-------------
DIPOLE MOMENT
-------------
                                X             Y             Z
Electronic contribution:    -10.04672      -9.62022      14.78042
Nuclear contribution   :      5.49594       9.51929     -12.42031
                        -----------------------------------------
Total Dipole Moment    :     -4.55078      -0.10093       2.36011
                        -----------------------------------------
Magnitude (a.u.)       :      5.12736
Magnitude (Debye)      :     13.03272



--------------------
Rotational spectrum 
--------------------
 
Rotational constants in cm-1:     0.003424     0.002174     0.001529 
Rotational constants in MHz :   102.652398    65.171305    45.832607 

 Dipole components along the rotational axes: 
x,y,z [a.u.] :    -4.568380     0.168775     2.321915 
x,y,z [Debye]:   -11.611898     0.428992     5.901838 

 

Timings for individual modules:

Sum of individual times         ...   349599.651 sec (=5826.661 min)
GTO integral calculation        ...        4.641 sec (=   0.077 min)   0.0 %
SCF iterations                  ...     1564.525 sec (=  26.075 min)   0.4 %
MP2 module                      ...     5495.861 sec (=  91.598 min)   1.6 %
CIS module                      ...   342534.624 sec (=5708.910 min)  98.0 %
                             ****ORCA TERMINATED NORMALLY****
TOTAL RUN TIME: 4 days 1 hours 6 minutes 52 seconds 14 msec
