
                                 *****************
                                 * O   R   C   A *
                                 *****************

                                            #,                                       
                                            ###                                      
                                            ####                                     
                                            #####                                    
                                            ######                                   
                                           ########,                                 
                                     ,,################,,,,,                         
                               ,,#################################,,                 
                          ,,##########################################,,             
                       ,#########################################, ''#####,          
                    ,#############################################,,   '####,        
                  ,##################################################,,,,####,       
                ,###########''''           ''''###############################       
              ,#####''   ,,,,##########,,,,          '''####'''          '####       
            ,##' ,,,,###########################,,,                        '##       
           ' ,,###''''                  '''############,,,                           
         ,,##''                                '''############,,,,        ,,,,,,###''
      ,#''                                            '''#######################'''  
     '                                                          ''''####''''         
             ,#######,   #######,   ,#######,      ##                                
            ,#'     '#,  ##    ##  ,#'     '#,    #''#        ######   ,####,        
            ##       ##  ##   ,#'  ##            #'  '#       #        #'  '#        
            ##       ##  #######   ##           ,######,      #####,   #    #        
            '#,     ,#'  ##    ##  '#,     ,#' ,#      #,         ##   #,  ,#        
             '#######'   ##     ##  '#######'  #'      '#     #####' # '####'        



                  #######################################################
                  #                        -***-                        #
                  #          Department of theory and spectroscopy      #
                  #    Directorship and core code : Frank Neese         #
                  #        Max Planck Institute fuer Kohlenforschung    #
                  #                Kaiser Wilhelm Platz 1               #
                  #                 D-45470 Muelheim/Ruhr               #
                  #                      Germany                        #
                  #                                                     #
                  #                  All rights reserved                #
                  #                        -***-                        #
                  #######################################################


                         Program Version 5.0.2 -  RELEASE  -


 With contributions from (in alphabetic order):
   Daniel Aravena         : Magnetic Suceptibility
   Michael Atanasov       : Ab Initio Ligand Field Theory (pilot matlab implementation)
   Alexander A. Auer      : GIAO ZORA, VPT2 properties, NMR spectrum
   Ute Becker             : Parallelization
   Giovanni Bistoni       : ED, misc. LED, open-shell LED, HFLD
   Martin Brehm           : Molecular dynamics
   Dmytro Bykov           : SCF Hessian
   Vijay G. Chilkuri      : MRCI spin determinant printing, contributions to CSF-ICE
   Dipayan Datta          : RHF DLPNO-CCSD density
   Achintya Kumar Dutta   : EOM-CC, STEOM-CC
   Dmitry Ganyushin       : Spin-Orbit,Spin-Spin,Magnetic field MRCI
   Miquel Garcia          : C-PCM and meta-GGA Hessian, CC/C-PCM, Gaussian charge scheme
   Yang Guo               : DLPNO-NEVPT2, F12-NEVPT2, CIM, IAO-localization
   Andreas Hansen         : Spin unrestricted coupled pair/coupled cluster methods
   Benjamin Helmich-Paris : MC-RPA, TRAH-SCF, COSX integrals
   Lee Huntington         : MR-EOM, pCC
   Robert Izsak           : Overlap fitted RIJCOSX, COSX-SCS-MP3, EOM
   Marcus Kettner         : VPT2
   Christian Kollmar      : KDIIS, OOCD, Brueckner-CCSD(T), CCSD density, CASPT2, CASPT2-K
   Simone Kossmann        : Meta GGA functionals, TD-DFT gradient, OOMP2, MP2 Hessian
   Martin Krupicka        : Initial AUTO-CI
   Lucas Lang             : DCDCAS
   Marvin Lechner         : AUTO-CI (C++ implementation), FIC-MRCC
   Dagmar Lenk            : GEPOL surface, SMD
   Dimitrios Liakos       : Extrapolation schemes; Compound Job, initial MDCI parallelization
   Dimitrios Manganas     : Further ROCIS development; embedding schemes
   Dimitrios Pantazis     : SARC Basis sets
   Anastasios Papadopoulos: AUTO-CI, single reference methods and gradients
   Taras Petrenko         : DFT Hessian,TD-DFT gradient, ASA, ECA, R-Raman, ABS, FL, XAS/XES, NRVS
   Peter Pinski           : DLPNO-MP2, DLPNO-MP2 Gradient
   Christoph Reimann      : Effective Core Potentials
   Marius Retegan         : Local ZFS, SOC
   Christoph Riplinger    : Optimizer, TS searches, QM/MM, DLPNO-CCSD(T), (RO)-DLPNO pert. Triples
   Tobias Risthaus        : Range-separated hybrids, TD-DFT gradient, RPA, STAB
   Michael Roemelt        : Original ROCIS implementation
   Masaaki Saitow         : Open-shell DLPNO-CCSD energy and density
   Barbara Sandhoefer     : DKH picture change effects
   Avijit Sen             : IP-ROCIS
   Kantharuban Sivalingam : CASSCF convergence, NEVPT2, FIC-MRCI
   Bernardo de Souza      : ESD, SOC TD-DFT
   Georgi Stoychev        : AutoAux, RI-MP2 NMR, DLPNO-MP2 response
   Willem Van den Heuvel  : Paramagnetic NMR
   Boris Wezisla          : Elementary symmetry handling
   Frank Wennmohs         : Technical directorship


 We gratefully acknowledge several colleagues who have allowed us to
 interface, adapt or use parts of their codes:
   Stefan Grimme, W. Hujo, H. Kruse, P. Pracht,  : VdW corrections, initial TS optimization,
                  C. Bannwarth, S. Ehlert          DFT functionals, gCP, sTDA/sTD-DF
   Ed Valeev, F. Pavosevic, A. Kumar             : LibInt (2-el integral package), F12 methods
   Garnet Chan, S. Sharma, J. Yang, R. Olivares  : DMRG
   Ulf Ekstrom                                   : XCFun DFT Library
   Mihaly Kallay                                 : mrcc  (arbitrary order and MRCC methods)
   Jiri Pittner, Ondrej Demel                    : Mk-CCSD
   Frank Weinhold                                : gennbo (NPA and NBO analysis)
   Christopher J. Cramer and Donald G. Truhlar   : smd solvation model
   Lars Goerigk                                  : TD-DFT with DH, B97 family of functionals
   V. Asgeirsson, H. Jonsson                     : NEB implementation
   FAccTs GmbH                                   : IRC, NEB, NEB-TS, DLPNO-Multilevel, CI-OPT
                                                   MM, QMMM, 2- and 3-layer-ONIOM, Crystal-QMMM,
                                                   LR-CPCM, SF, NACMEs, symmetry and pop. for TD-DFT,
                                                   nearIR, NL-DFT gradient (VV10), updates on ESD,
                                                   ML-optimized integration grids
   S Lehtola, MJT Oliveira, MAL Marques          : LibXC Library
   Liviu Ungur et al                             : ANISO software


 Your calculation uses the libint2 library for the computation of 2-el integrals
 For citations please refer to: http://libint.valeyev.net

 Your ORCA version has been built with support for libXC version: 5.1.0
 For citations please refer to: https://tddft.org/programs/libxc/

 This ORCA versions uses:
   CBLAS   interface :  Fast vector & matrix operations
   LAPACKE interface :  Fast linear algebra routines
   SCALAPACK package :  Parallel linear algebra routines
   Shared memory     :  Shared parallel matrices
   BLAS/LAPACK       :  OpenBLAS 0.3.15  USE64BITINT DYNAMIC_ARCH NO_AFFINITY Zen SINGLE_THREADED
        Core in use  :  Zen
   Copyright (c) 2011-2014, The OpenBLAS Project


Your calculation utilizes the SMD solvation module
Please cite in your paper:
A.V. Marenich, C.J. Cramer, D.G. Truhlar J. Phys. Chem. B, 113, (2009), 6378 

================================================================================

----- Orbital basis set information -----
Your calculation utilizes the basis: def2-TZVP
   F. Weigend and R. Ahlrichs, Phys. Chem. Chem. Phys. 7, 3297 (2005).

----- AuxJ basis set information -----
Your calculation utilizes the auxiliary basis: def2/J
   F. Weigend, Phys. Chem. Chem. Phys. 8, 1057 (2006).

----- AuxC basis set information -----
Your calculation utilizes the auxiliary basis: def2-TZVP/C
  H-La, Hf-Rn : A. Hellweg, C. Hattig, S. Hofener and W. Klopper, Theor. Chem. Acc. 117, 587 (2007).
        Ce-Lu : J. Chmela and M. E. Harding, Mol. Phys. (2018).

================================================================================
                                        WARNINGS
                       Please study these warnings very carefully!
================================================================================

INFO   : Checking CIS options ...
  ===> : (D) CORRECTION FOUND - SETTING MODE=3
  ===> : JK MODE FOUND - ACTIVATING RI-MP2 CODE
  ===> : MP2 AND CIS FOUND - CHECKING
WARNING: CIS(D) and MP2 runs must have the same orbital window
  ===> : adjusting orbital windows

WARNING: No MP2 level density has been requested!
         To caclulate MP2 level properties use
         %mp2 Density relaxed end
         or
         %mp2 Density unrelaxed end
         Otherwise for double-hybrid DFT only the energy is correct!

WARNING: The frozen-core approximation is turned on by default for 
         the MP2 part of double-hybrid DFT.

WARNING:  You are using a Range-Separated Double Hybrid functional with Doubles Correction 
          Changing Mode to RPA_AOINTS 


WARNING: CIS/ROCIS methods need fully converged wavefunctions
  ===> : Setting SCFConvForced true
         You can overwrite this default with %scf ConvForced false 


INFO   : the flag for use of the SHARK integral package has been found!

================================================================================
                                       INPUT FILE
================================================================================
NAME = Eos_1_M06L_def2TZVP_coords.inp
|  1> %maxcore 3200
|  2> %pal
|  3>  nprocs= 8
|  4> end
|  5> ! RI-wB2PLYP def2-TZVP def2/J def2-TZVP/C RIJCOSX CPCM TightSCF
|  6> %TDDFT DCORR 1
|  7>    NROOTS   30
|  8>   TDA      FALSE
|  9> END 
| 10>  
| 11>  %CPCM 
| 12>    SMD          TRUE 
| 13>    SMDsolvent   "ACETONITRILE"
| 14>  END 
| 15>  
| 16> 
| 17> * xyz -2 1
| 18> C                   3.32326300   -3.23324600   -0.17326700
| 19> C                   3.03025600   -1.81111700   -0.18529000
| 20> C                   1.71207400   -1.39966900   -0.19258500
| 21> C                   0.59921200   -2.28228800   -0.23371000
| 22> C                   0.89971800   -3.66975400   -0.20821700
| 23> C                   2.17976100   -4.11921900   -0.17671200
| 24> C                  -0.70130600   -1.75557900   -0.25858900
| 25> C                  -0.88164200   -0.36292700   -0.21676800
| 26> C                   0.25004100    0.48266400   -0.10361600
| 27> C                   0.16866100    1.85479100   -0.01017000
| 28> C                  -1.12784700    2.50509800   -0.05306200
| 29> C                  -2.29838800    1.63524200   -0.20250900
| 30> C                  -2.13867100    0.27803500   -0.27732100
| 31> H                   0.07678900   -4.37408300   -0.20354800
| 32> H                   2.39093100   -5.18213900   -0.15135800
| 33> H                  -3.01617000   -0.34336500   -0.40556500
| 34> O                   1.49806200   -0.05756600   -0.12089400
| 35> O                  -1.23750100    3.74407400    0.06252800
| 36> O                   4.49057400   -3.68334700   -0.16699900
| 37> C                  -1.87150600   -2.65261100   -0.39111200
| 38> C                  -1.99654400   -3.41886200   -1.55243400
| 39> C                  -2.88125900   -2.71142800    0.58278900
| 40> C                  -3.08714600   -4.25038900   -1.75023700
| 41> H                  -1.22620200   -3.34982800   -2.31219600
| 42> C                  -3.98085000   -3.53635100    0.35642800
| 43> C                  -4.08337000   -4.31378900   -0.78602300
| 44> H                  -3.15969900   -4.83964200   -2.65579000
| 45> H                  -4.76278700   -3.56049400    1.10643100
| 46> H                  -4.93971500   -4.96198800   -0.92834900
| 47> C                  -2.79921100   -1.92824100    1.88440600
| 48> O                  -3.85114400   -1.34416000    2.23638700
| 49> O                  -1.70114100   -1.96731600    2.48261100
| 50> C                   4.13832100   -0.83799500   -0.18644800
| 51> C                   5.18057400   -0.94058100    0.73998500
| 52> C                   4.19629000    0.20247200   -1.11986400
| 53> C                   6.22954900   -0.03322800    0.74114800
| 54> H                   5.15882100   -1.74036200    1.46851300
| 55> C                   5.24736200    1.10600400   -1.12442000
| 56> H                   3.40752700    0.29840100   -1.85630200
| 57> C                   6.26981600    0.99443700   -0.19167300
| 58> H                   7.02054100   -0.12983700    1.47527400
| 59> H                   5.26572900    1.90262600   -1.85888800
| 60> H                   7.08987800    1.70199000   -0.19157100
| 61> C                   1.38091600    2.68027900    0.15367700
| 62> C                   2.30508800    2.41968000    1.16991300
| 63> C                   1.63144600    3.76221800   -0.69487800
| 64> C                   3.43561800    3.20621100    1.33041900
| 65> H                   2.12921500    1.59233000    1.84707200
| 66> C                   2.76688800    4.54381400   -0.54247000
| 67> H                   0.92549800    3.98530900   -1.48448800
| 68> C                   3.67419900    4.27145100    0.47277200
| 69> H                   4.13269600    2.98572700    2.13016800
| 70> H                   2.94244900    5.37208200   -1.21854300
| 71> H                   4.55884800    4.88436700    0.59489800
| 72> C                  -3.65485200    2.20480200   -0.24246600
| 73> C                  -4.71904800    1.52197300    0.36315700
| 74> C                  -3.94012600    3.40987700   -0.89685700
| 75> C                  -6.01143000    2.02052400    0.31074400
| 76> H                  -4.51889300    0.59669200    0.89734700
| 77> C                  -5.23453400    3.90299400   -0.95072300
| 78> H                  -3.13572900    3.95294300   -1.37164500
| 79> C                  -6.27777000    3.21476700   -0.34565000
| 80> H                  -6.81441300    1.47646900    0.79398800
| 81> H                  -5.43057600    4.83260000   -1.47192200
| 82> H                  -7.28685400    3.60637500   -0.38279000
| 83> *
| 84> 
| 85> 
| 86>                          ****END OF INPUT****
================================================================================

                       ****************************
                       * Single Point Calculation *
                       ****************************

---------------------------------
CARTESIAN COORDINATES (ANGSTROEM)
---------------------------------
  C      3.323263   -3.233246   -0.173267
  C      3.030256   -1.811117   -0.185290
  C      1.712074   -1.399669   -0.192585
  C      0.599212   -2.282288   -0.233710
  C      0.899718   -3.669754   -0.208217
  C      2.179761   -4.119219   -0.176712
  C     -0.701306   -1.755579   -0.258589
  C     -0.881642   -0.362927   -0.216768
  C      0.250041    0.482664   -0.103616
  C      0.168661    1.854791   -0.010170
  C     -1.127847    2.505098   -0.053062
  C     -2.298388    1.635242   -0.202509
  C     -2.138671    0.278035   -0.277321
  H      0.076789   -4.374083   -0.203548
  H      2.390931   -5.182139   -0.151358
  H     -3.016170   -0.343365   -0.405565
  O      1.498062   -0.057566   -0.120894
  O     -1.237501    3.744074    0.062528
  O      4.490574   -3.683347   -0.166999
  C     -1.871506   -2.652611   -0.391112
  C     -1.996544   -3.418862   -1.552434
  C     -2.881259   -2.711428    0.582789
  C     -3.087146   -4.250389   -1.750237
  H     -1.226202   -3.349828   -2.312196
  C     -3.980850   -3.536351    0.356428
  C     -4.083370   -4.313789   -0.786023
  H     -3.159699   -4.839642   -2.655790
  H     -4.762787   -3.560494    1.106431
  H     -4.939715   -4.961988   -0.928349
  C     -2.799211   -1.928241    1.884406
  O     -3.851144   -1.344160    2.236387
  O     -1.701141   -1.967316    2.482611
  C      4.138321   -0.837995   -0.186448
  C      5.180574   -0.940581    0.739985
  C      4.196290    0.202472   -1.119864
  C      6.229549   -0.033228    0.741148
  H      5.158821   -1.740362    1.468513
  C      5.247362    1.106004   -1.124420
  H      3.407527    0.298401   -1.856302
  C      6.269816    0.994437   -0.191673
  H      7.020541   -0.129837    1.475274
  H      5.265729    1.902626   -1.858888
  H      7.089878    1.701990   -0.191571
  C      1.380916    2.680279    0.153677
  C      2.305088    2.419680    1.169913
  C      1.631446    3.762218   -0.694878
  C      3.435618    3.206211    1.330419
  H      2.129215    1.592330    1.847072
  C      2.766888    4.543814   -0.542470
  H      0.925498    3.985309   -1.484488
  C      3.674199    4.271451    0.472772
  H      4.132696    2.985727    2.130168
  H      2.942449    5.372082   -1.218543
  H      4.558848    4.884367    0.594898
  C     -3.654852    2.204802   -0.242466
  C     -4.719048    1.521973    0.363157
  C     -3.940126    3.409877   -0.896857
  C     -6.011430    2.020524    0.310744
  H     -4.518893    0.596692    0.897347
  C     -5.234534    3.902994   -0.950723
  H     -3.135729    3.952943   -1.371645
  C     -6.277770    3.214767   -0.345650
  H     -6.814413    1.476469    0.793988
  H     -5.430576    4.832600   -1.471922
  H     -7.286854    3.606375   -0.382790

----------------------------
CARTESIAN COORDINATES (A.U.)
----------------------------
  NO LB      ZA    FRAG     MASS         X           Y           Z
   0 C     6.0000    0    12.011    6.280057   -6.109949   -0.327427
   1 C     6.0000    0    12.011    5.726354   -3.422515   -0.350147
   2 C     6.0000    0    12.011    3.235351   -2.644991   -0.363933
   3 C     6.0000    0    12.011    1.132347   -4.312899   -0.441648
   4 C     6.0000    0    12.011    1.700221   -6.934830   -0.393473
   5 C     6.0000    0    12.011    4.119151   -7.784196   -0.333937
   6 C     6.0000    0    12.011   -1.325276   -3.317564   -0.488662
   7 C     6.0000    0    12.011   -1.666062   -0.685833   -0.409632
   8 C     6.0000    0    12.011    0.472509    0.912103   -0.195806
   9 C     6.0000    0    12.011    0.318723    3.505047   -0.019219
  10 C     6.0000    0    12.011   -2.131322    4.733949   -0.100273
  11 C     6.0000    0    12.011   -4.343324    3.090160   -0.382687
  12 C     6.0000    0    12.011   -4.041502    0.525410   -0.524061
  13 H     1.0000    0     1.008    0.145110   -8.265819   -0.384650
  14 H     1.0000    0     1.008    4.518205   -9.792823   -0.286025
  15 H     1.0000    0     1.008   -5.699735   -0.648866   -0.766407
  16 O     8.0000    0    15.999    2.830927   -0.108784   -0.228457
  17 O     8.0000    0    15.999   -2.338538    7.075274    0.118161
  18 O     8.0000    0    15.999    8.485955   -6.960517   -0.315582
  19 C     6.0000    0    12.011   -3.536634   -5.012708   -0.739095
  20 C     6.0000    0    12.011   -3.772921   -6.460713   -2.933675
  21 C     6.0000    0    12.011   -5.444790   -5.123856    1.101312
  22 C     6.0000    0    12.011   -5.833860   -8.032071   -3.307469
  23 H     1.0000    0     1.008   -2.317186   -6.330258   -4.369417
  24 C     6.0000    0    12.011   -7.522716   -6.682735    0.673551
  25 C     6.0000    0    12.011   -7.716451   -8.151880   -1.485368
  26 H     1.0000    0     1.008   -5.970966   -9.145598   -5.018716
  27 H     1.0000    0     1.008   -9.000363   -6.728359    2.090852
  28 H     1.0000    0     1.008   -9.334709   -9.376798   -1.754325
  29 C     6.0000    0    12.011   -5.289742   -3.643847    3.561011
  30 O     8.0000    0    15.999   -7.277607   -2.540094    4.226159
  31 O     8.0000    0    15.999   -3.214691   -3.717688    4.691455
  32 C     6.0000    0    12.011    7.820293   -1.583581   -0.352336
  33 C     6.0000    0    12.011    9.789866   -1.777440    1.398369
  34 C     6.0000    0    12.011    7.929839    0.382617   -2.116236
  35 C     6.0000    0    12.011   11.772142   -0.062792    1.400567
  36 H     1.0000    0     1.008    9.748759   -3.288808    2.775087
  37 C     6.0000    0    12.011    9.916077    2.090045   -2.124846
  38 H     1.0000    0     1.008    6.439293    0.563896   -3.507902
  39 C     6.0000    0    12.011   11.848235    1.879214   -0.362209
  40 H     1.0000    0     1.008   13.266900   -0.245356    2.787864
  41 H     1.0000    0     1.008    9.950786    3.595442   -3.512789
  42 H     1.0000    0     1.008   13.397928    3.216295   -0.362017
  43 C     6.0000    0    12.011    2.609553    5.064993    0.290407
  44 C     6.0000    0    12.011    4.355985    4.572533    2.210815
  45 C     6.0000    0    12.011    3.082986    7.109562   -1.313129
  46 C     6.0000    0    12.011    6.492377    6.058861    2.514128
  47 H     1.0000    0     1.008    4.023633    3.009068    3.490460
  48 C     6.0000    0    12.011    5.228661    8.586564   -1.025120
  49 H     1.0000    0     1.008    1.748938    7.531143   -2.805276
  50 C     6.0000    0    12.011    6.943230    8.071873    0.893410
  51 H     1.0000    0     1.008    7.809664    5.642206    4.025434
  52 H     1.0000    0     1.008    5.560423   10.151764   -2.302713
  53 H     1.0000    0     1.008    8.614974    9.230116    1.124194
  54 C     6.0000    0    12.011   -6.906669    4.166472   -0.458194
  55 C     6.0000    0    12.011   -8.917708    2.876112    0.686267
  56 C     6.0000    0    12.011   -7.445759    6.443734   -1.694814
  57 C     6.0000    0    12.011  -11.359956    3.818237    0.587221
  58 H     1.0000    0     1.008   -8.539470    1.127584    1.695740
  59 C     6.0000    0    12.011   -9.891836    7.375590   -1.796606
  60 H     1.0000    0     1.008   -5.925669    7.469980   -2.592033
  61 C     6.0000    0    12.011  -11.863266    6.075029   -0.653184
  62 H     1.0000    0     1.008  -12.877374    2.790122    1.500420
  63 H     1.0000    0     1.008  -10.262301    9.132291   -2.781529
  64 H     1.0000    0     1.008  -13.770158    6.815061   -0.723368

--------------------------------
INTERNAL COORDINATES (ANGSTROEM)
--------------------------------
 C      0   0   0     0.000000000000     0.00000000     0.00000000
 C      1   0   0     1.452049774360     0.00000000     0.00000000
 C      2   1   0     1.380922321803   118.97816823     0.00000000
 C      3   2   1     1.420974804784   124.24066045   357.82512957
 C      4   3   2     1.419864659128   116.14795110     2.72413514
 C      5   4   3     1.357026688425   121.58143306   358.57587886
 C      4   3   2     1.403348995669   119.54898258   180.99052684
 C      7   4   3     1.404902011544   119.37205223   358.80055828
 C      8   7   4     1.417227549434   119.42779051   357.83099805
 C      9   8   7     1.377710914323   123.53738101   182.26000950
 C     10   9   8     1.451093350538   119.80863930   358.72864921
 C     11  10   9     1.465997987456   116.77588219   359.76003611
 C     12  11  10     1.368618718373   120.05289311     0.81572441
 H      5   4   3     1.083195863564   118.33862897   177.92090918
 H      6   5   4     1.083990092490   120.60222185   179.61946564
 H     13  12  11     1.082861477077   118.74885256   181.09213315
 O      9   8   7     1.360038013669   119.65234629     4.07921073
 O     11  10   9     1.249178360520   121.34459248   178.19784695
 O      1   2   3     1.251097585621   122.72910875   179.95305852
 C      7   4   3     1.480404267271   120.44449268   175.96968322
 C     20   7   4     1.396940902161   118.52493696   297.53385652
 C     20   7   4     1.404116703946   122.12317815   120.35594527
 C     21  20   7     1.385631950029   121.21803754   181.71154825
 H     21  20   7     1.084172858341   118.95037535     1.18222337
 C     22  20   7     1.393139485310   118.66667294   177.11973538
 C     25  22  20     1.385681955445   121.63956779     1.38055422
 H     23  21  20     1.082824672616   119.91313161   180.37163968
 H     25  22  20     1.083749443565   118.04904121   181.08265094
 H     26  25  22     1.083395307772   120.16349476   178.76191750
 C     22  20   7     1.521289113207   122.21501055   355.84066264
 O     30  22  20     1.253636420742   115.77437423   135.87012906
 O     30  22  20     1.251053077431   116.12772958   314.56224671
 C      2   1   3     1.474712111591   119.64749545   179.86499976
 C     33   2   1     1.398246511490   120.73999590   310.04528209
 C     33   2   1     1.398998717693   121.49473081   129.07721539
 C     34  33   2     1.386953268788   121.08546309   179.68122526
 H     34  33   2     1.082070186150   119.03417662   359.33896393
 C     35  33   2     1.386053094706   121.22688897   180.65944103
 H     35  33   2     1.083369914228   119.28985324     0.24874993
 C     36  34  33     1.388478232294   120.36938592   359.45425102
 H     36  34  33     1.083486329780   119.62883693   179.46943134
 H     38  35  33     1.083691469283   119.62182475   180.04375829
 H     40  36  34     1.083112617440   120.35762864   180.09573847
 C     10   9   8     1.475750135551   121.07165194   177.81654045
 C     44  10   9     1.398120642892   121.29370532   307.29326563
 C     44  10   9     1.397641895711   120.85422866   128.18060363
 C     45  44  10     1.386539314588   121.15599192   180.72169141
 H     45  44  10     1.083505258829   119.29443640     0.28864520
 C     46  44  10     1.386848600621   121.08512972   179.78659891
 H     46  44  10     1.082412178925   119.04787311   359.51929637
 C     47  45  44     1.388241883740   120.25756214   359.68484279
 H     47  45  44     1.083572515036   119.63985409   179.63291234
 H     49  46  44     1.083477847431   119.66424678   179.49060976
 H     51  47  45     1.083136480843   120.32588241   180.22484682
 C     12  11  10     1.471730185443   120.60150913   179.39985479
 C     55  12  11     1.401979952705   119.96039217   216.83874080
 C     55  12  11     1.400647918494   122.23336747    38.24996362
 C     56  55  12     1.386200366503   121.07715135   181.62230305
 H     56  55  12     1.086998578236   119.15041530     2.79262593
 C     57  55  12     1.386202724030   120.95748184   178.13884010
 H     57  55  12     1.080462335720   119.08545780   358.67813474
 C     58  56  55     1.388526709100   120.40020294   359.91518141
 H     58  56  55     1.083652298872   119.56552706   180.47307078
 H     60  57  55     1.083627324591   119.52432397   180.62322126
 H     62  58  56     1.083045116475   120.39207944   180.26938353

---------------------------
INTERNAL COORDINATES (A.U.)
---------------------------
 C      0   0   0     0.000000000000     0.00000000     0.00000000
 C      1   0   0     2.743976406363     0.00000000     0.00000000
 C      2   1   0     2.609565000426   118.97816823     0.00000000
 C      3   2   1     2.685253224243   124.24066045   357.82512957
 C      4   3   2     2.683155352986   116.14795110     2.72413514
 C      5   4   3     2.564408797546   121.58143306   358.57587886
 C      4   3   2     2.651945272128   119.54898258   180.99052684
 C      7   4   3     2.654880046814   119.37205223   358.80055828
 C      8   7   4     2.678171937878   119.42779051   357.83099805
 C      9   8   7     2.603496319785   123.53738101   182.26000950
 C     10   9   8     2.742169027272   119.80863930   358.72864921
 C     11  10   9     2.770334709172   116.77588219   359.76003611
 C     12  11  10     2.586314559484   120.05289311     0.81572441
 H      5   4   3     2.046943531533   118.33862897   177.92090918
 H      6   5   4     2.048444406690   120.60222185   179.61946564
 H     13  12  11     2.046311632649   118.74885256   181.09213315
 O      9   8   7     2.570099377557   119.65234629     4.07921073
 O     11  10   9     2.360604993804   121.34459248   178.19784695
 O      1   2   3     2.364231803633   122.72910875   179.95305852
 C      7   4   3     2.797558632630   120.44449268   175.96968322
 C     20   7   4     2.639835730356   118.52493696   297.53385652
 C     20   7   4     2.653396030521   122.12317815   120.35594527
 C     21  20   7     2.618464907967   121.21803754   181.71154825
 H     21  20   7     2.048789784096   118.95037535     1.18222337
 C     22  20   7     2.632652093589   118.66667294   177.11973538
 C     25  22  20     2.618559404507   121.63956779     1.38055422
 H     23  21  20     2.046242082298   119.91313161   180.37163968
 H     25  22  20     2.047989646127   118.04904121   181.08265094
 H     26  25  22     2.047320426464   120.16349476   178.76191750
 C     22  20   7     2.874819794477   122.21501055   355.84066264
 O     30  22  20     2.369029506712   115.77437423   135.87012906
 O     30  22  20     2.364147695344   116.12772958   314.56224671
 C      2   1   3     2.786802017284   119.64749545   179.86499976
 C     33   2   1     2.642302974427   120.73999590   310.04528209
 C     33   2   1     2.643724438146   121.49473081   129.07721539
 C     34  33   2     2.620961838557   121.08546309   179.68122526
 H     34  33   2     2.044816309504   119.03417662   359.33896393
 C     35  33   2     2.619260756068   121.22688897   180.65944103
 H     35  33   2     2.047272439620   119.28985324     0.24874993
 C     36  34  33     2.623843601947   120.36938592   359.45425102
 H     36  34  33     2.047492433132   119.62883693   179.46943134
 H     38  35  33     2.047880090612   119.62182475   180.04375829
 H     40  36  34     2.046786219156   120.35762864   180.09573847
 C     10   9   8     2.788763598288   121.07165194   177.81654045
 C     44  10   9     2.642065117248   121.29370532   307.29326563
 C     44  10   9     2.641160416188   120.85422866   128.18060363
 C     45  44  10     2.620179578485   121.15599192   180.72169141
 H     45  44  10     2.047528203850   119.29443640     0.28864520
 C     46  44  10     2.620764044385   121.08512972   179.78659891
 H     46  44  10     2.045462582189   119.04787311   359.51929637
 C     47  45  44     2.623396967908   120.25756214   359.68484279
 H     47  45  44     2.047655299662   119.63985409   179.63291234
 H     49  46  44     2.047476403815   119.66424678   179.49060976
 H     51  47  45     2.046831314453   120.32588241   180.22484682
 C     12  11  10     2.781166993513   120.60150913   179.39985479
 C     55  12  11     2.649358155860   119.96039217   216.83874080
 C     55  12  11     2.646840976001   122.23336747    38.24996362
 C     56  55  12     2.619539059433   121.07715135   181.62230305
 H     56  55  12     2.054129620827   119.15041530     2.79262593
 C     57  55  12     2.619543514513   120.95748184   178.13884010
 H     57  55  12     2.041777912527   119.08545780   358.67813474
 C     58  56  55     2.623935209835   120.40020294   359.91518141
 H     58  56  55     2.047806069262   119.56552706   180.47307078
 H     60  57  55     2.047758874711   119.52432397   180.62322126
 H     62  58  56     2.046658660818   120.39207944   180.26938353

---------------------
BASIS SET INFORMATION
---------------------
There are 3 groups of distinct atoms

 Group   1 Type C   : 11s6p2d1f contracted to 5s3p2d1f pattern {62111/411/11/1}
 Group   2 Type H   : 5s1p contracted to 3s1p pattern {311/1}
 Group   3 Type O   : 11s6p2d1f contracted to 5s3p2d1f pattern {62111/411/11/1}

Atom   0C    basis set group =>   1
Atom   1C    basis set group =>   1
Atom   2C    basis set group =>   1
Atom   3C    basis set group =>   1
Atom   4C    basis set group =>   1
Atom   5C    basis set group =>   1
Atom   6C    basis set group =>   1
Atom   7C    basis set group =>   1
Atom   8C    basis set group =>   1
Atom   9C    basis set group =>   1
Atom  10C    basis set group =>   1
Atom  11C    basis set group =>   1
Atom  12C    basis set group =>   1
Atom  13H    basis set group =>   2
Atom  14H    basis set group =>   2
Atom  15H    basis set group =>   2
Atom  16O    basis set group =>   3
Atom  17O    basis set group =>   3
Atom  18O    basis set group =>   3
Atom  19C    basis set group =>   1
Atom  20C    basis set group =>   1
Atom  21C    basis set group =>   1
Atom  22C    basis set group =>   1
Atom  23H    basis set group =>   2
Atom  24C    basis set group =>   1
Atom  25C    basis set group =>   1
Atom  26H    basis set group =>   2
Atom  27H    basis set group =>   2
Atom  28H    basis set group =>   2
Atom  29C    basis set group =>   1
Atom  30O    basis set group =>   3
Atom  31O    basis set group =>   3
Atom  32C    basis set group =>   1
Atom  33C    basis set group =>   1
Atom  34C    basis set group =>   1
Atom  35C    basis set group =>   1
Atom  36H    basis set group =>   2
Atom  37C    basis set group =>   1
Atom  38H    basis set group =>   2
Atom  39C    basis set group =>   1
Atom  40H    basis set group =>   2
Atom  41H    basis set group =>   2
Atom  42H    basis set group =>   2
Atom  43C    basis set group =>   1
Atom  44C    basis set group =>   1
Atom  45C    basis set group =>   1
Atom  46C    basis set group =>   1
Atom  47H    basis set group =>   2
Atom  48C    basis set group =>   1
Atom  49H    basis set group =>   2
Atom  50C    basis set group =>   1
Atom  51H    basis set group =>   2
Atom  52H    basis set group =>   2
Atom  53H    basis set group =>   2
Atom  54C    basis set group =>   1
Atom  55C    basis set group =>   1
Atom  56C    basis set group =>   1
Atom  57C    basis set group =>   1
Atom  58H    basis set group =>   2
Atom  59C    basis set group =>   1
Atom  60H    basis set group =>   2
Atom  61C    basis set group =>   1
Atom  62H    basis set group =>   2
Atom  63H    basis set group =>   2
Atom  64H    basis set group =>   2
---------------------------------
AUXILIARY/J BASIS SET INFORMATION
---------------------------------
There are 3 groups of distinct atoms

 Group   1 Type C   : 12s5p4d2f1g contracted to 6s4p3d1f1g pattern {711111/2111/211/2/1}
 Group   2 Type H   : 5s2p1d contracted to 3s1p1d pattern {311/2/1}
 Group   3 Type O   : 12s5p4d2f1g contracted to 6s4p3d1f1g pattern {711111/2111/211/2/1}

Atom   0C    basis set group =>   1
Atom   1C    basis set group =>   1
Atom   2C    basis set group =>   1
Atom   3C    basis set group =>   1
Atom   4C    basis set group =>   1
Atom   5C    basis set group =>   1
Atom   6C    basis set group =>   1
Atom   7C    basis set group =>   1
Atom   8C    basis set group =>   1
Atom   9C    basis set group =>   1
Atom  10C    basis set group =>   1
Atom  11C    basis set group =>   1
Atom  12C    basis set group =>   1
Atom  13H    basis set group =>   2
Atom  14H    basis set group =>   2
Atom  15H    basis set group =>   2
Atom  16O    basis set group =>   3
Atom  17O    basis set group =>   3
Atom  18O    basis set group =>   3
Atom  19C    basis set group =>   1
Atom  20C    basis set group =>   1
Atom  21C    basis set group =>   1
Atom  22C    basis set group =>   1
Atom  23H    basis set group =>   2
Atom  24C    basis set group =>   1
Atom  25C    basis set group =>   1
Atom  26H    basis set group =>   2
Atom  27H    basis set group =>   2
Atom  28H    basis set group =>   2
Atom  29C    basis set group =>   1
Atom  30O    basis set group =>   3
Atom  31O    basis set group =>   3
Atom  32C    basis set group =>   1
Atom  33C    basis set group =>   1
Atom  34C    basis set group =>   1
Atom  35C    basis set group =>   1
Atom  36H    basis set group =>   2
Atom  37C    basis set group =>   1
Atom  38H    basis set group =>   2
Atom  39C    basis set group =>   1
Atom  40H    basis set group =>   2
Atom  41H    basis set group =>   2
Atom  42H    basis set group =>   2
Atom  43C    basis set group =>   1
Atom  44C    basis set group =>   1
Atom  45C    basis set group =>   1
Atom  46C    basis set group =>   1
Atom  47H    basis set group =>   2
Atom  48C    basis set group =>   1
Atom  49H    basis set group =>   2
Atom  50C    basis set group =>   1
Atom  51H    basis set group =>   2
Atom  52H    basis set group =>   2
Atom  53H    basis set group =>   2
Atom  54C    basis set group =>   1
Atom  55C    basis set group =>   1
Atom  56C    basis set group =>   1
Atom  57C    basis set group =>   1
Atom  58H    basis set group =>   2
Atom  59C    basis set group =>   1
Atom  60H    basis set group =>   2
Atom  61C    basis set group =>   1
Atom  62H    basis set group =>   2
Atom  63H    basis set group =>   2
Atom  64H    basis set group =>   2
---------------------------------
AUXILIARY/C BASIS SET INFORMATION
---------------------------------
There are 3 groups of distinct atoms

 Group   1 Type C   : 8s6p5d3f1g contracted to 8s6p4d3f1g pattern {11111111/111111/2111/111/1}
 Group   2 Type H   : 4s3p2d contracted to 4s2p1d pattern {1111/21/2}
 Group   3 Type O   : 8s6p5d3f1g contracted to 8s6p4d3f1g pattern {11111111/111111/2111/111/1}

Atom   0C    basis set group =>   1
Atom   1C    basis set group =>   1
Atom   2C    basis set group =>   1
Atom   3C    basis set group =>   1
Atom   4C    basis set group =>   1
Atom   5C    basis set group =>   1
Atom   6C    basis set group =>   1
Atom   7C    basis set group =>   1
Atom   8C    basis set group =>   1
Atom   9C    basis set group =>   1
Atom  10C    basis set group =>   1
Atom  11C    basis set group =>   1
Atom  12C    basis set group =>   1
Atom  13H    basis set group =>   2
Atom  14H    basis set group =>   2
Atom  15H    basis set group =>   2
Atom  16O    basis set group =>   3
Atom  17O    basis set group =>   3
Atom  18O    basis set group =>   3
Atom  19C    basis set group =>   1
Atom  20C    basis set group =>   1
Atom  21C    basis set group =>   1
Atom  22C    basis set group =>   1
Atom  23H    basis set group =>   2
Atom  24C    basis set group =>   1
Atom  25C    basis set group =>   1
Atom  26H    basis set group =>   2
Atom  27H    basis set group =>   2
Atom  28H    basis set group =>   2
Atom  29C    basis set group =>   1
Atom  30O    basis set group =>   3
Atom  31O    basis set group =>   3
Atom  32C    basis set group =>   1
Atom  33C    basis set group =>   1
Atom  34C    basis set group =>   1
Atom  35C    basis set group =>   1
Atom  36H    basis set group =>   2
Atom  37C    basis set group =>   1
Atom  38H    basis set group =>   2
Atom  39C    basis set group =>   1
Atom  40H    basis set group =>   2
Atom  41H    basis set group =>   2
Atom  42H    basis set group =>   2
Atom  43C    basis set group =>   1
Atom  44C    basis set group =>   1
Atom  45C    basis set group =>   1
Atom  46C    basis set group =>   1
Atom  47H    basis set group =>   2
Atom  48C    basis set group =>   1
Atom  49H    basis set group =>   2
Atom  50C    basis set group =>   1
Atom  51H    basis set group =>   2
Atom  52H    basis set group =>   2
Atom  53H    basis set group =>   2
Atom  54C    basis set group =>   1
Atom  55C    basis set group =>   1
Atom  56C    basis set group =>   1
Atom  57C    basis set group =>   1
Atom  58H    basis set group =>   2
Atom  59C    basis set group =>   1
Atom  60H    basis set group =>   2
Atom  61C    basis set group =>   1
Atom  62H    basis set group =>   2
Atom  63H    basis set group =>   2
Atom  64H    basis set group =>   2


           ************************************************************
           *        Program running with 8 parallel MPI-processes     *
           *              working on a common directory               *
           ************************************************************
------------------------------------------------------------------------------
                           ORCA GTO INTEGRAL CALCULATION
                           -- RI-GTO INTEGRALS CHOSEN --
------------------------------------------------------------------------------
------------------------------------------------------------------------------
                   ___                                                        
                  /   \      - P O W E R E D   B Y -                         
                 /     \                                                     
                 |  |  |   _    _      __       _____    __    __             
                 |  |  |  | |  | |    /  \     |  _  \  |  |  /  |          
                  \  \/   | |  | |   /    \    | | | |  |  | /  /          
                 / \  \   | |__| |  /  /\  \   | |_| |  |  |/  /          
                |  |  |   |  __  | /  /__\  \  |    /   |      \           
                |  |  |   | |  | | |   __   |  |    \   |  |\   \          
                \     /   | |  | | |  |  |  |  | |\  \  |  | \   \       
                 \___/    |_|  |_| |__|  |__|  |_| \__\ |__|  \__/        
                                                                              
                      - O R C A' S   B I G   F R I E N D -                    
                                      &                                       
                       - I N T E G R A L  F E E D E R -                       
                                                                              
 v1 FN, 2020, v2 2021                                                         
------------------------------------------------------------------------------


Reading SHARK input file Eos_1_M06L_def2TZVP_coords.SHARKINP.tmp ... ok
----------------------
SHARK INTEGRAL PACKAGE
----------------------

Number of atoms                             ...     65
Number of basis functions                   ...   1465
Number of shells                            ...    561
Maximum angular momentum                    ...      3
Integral batch strategy                     ... SHARK/LIBINT Hybrid
RI-J (if used) integral strategy            ... SPLIT-RIJ (Revised 2003 algorithm where possible)
Printlevel                                  ...      1
Contraction scheme used                     ... SEGMENTED contraction
Coulomb Range Separation                    ... NOT USED
Exchange Range Separation                   ... Long Range
   Mu parameter                             ...  0.300000
   Scaling (regular/separated)              ...  0.530000  0.470000
Finite Nucleus Model                        ... NOT USED
Auxiliary Coulomb fitting basis             ... AVAILABLE
   # of basis functions in Aux-J            ...   2349
   # of shells in Aux-J                     ...    755
   Maximum angular momentum in Aux-J        ...      4
Auxiliary J/K fitting basis                 ... NOT available
Auxiliary Correlation fitting basis         ... AVAILABLE
   # of basis functions in Aux-C            ...   3598
   # of shells in Aux-C                     ...   1100
   Maximum angular momentum in Aux-C        ...      4
Auxiliary 'external' fitting basis          ... NOT available
Integral threshold                          ...     2.500000e-11
Primitive cut-off                           ...     2.500000e-12
Primitive pair pre-selection threshold      ...     2.500000e-12

Calculating pre-screening integrals         ... done (  0.1 sec) Dimension = 561
Organizing shell pair data                  ... done ( 11.5 sec)
Shell pair information
Total number of shell pairs                 ...    157641
Shell pairs after pre-screening             ...     89314
Total number of primitive shell pairs       ...    493540
Primitive shell pairs kept                  ...    173012
          la=0 lb=0:  21102 shell pairs
          la=1 lb=0:  25970 shell pairs
          la=1 lb=1:   7883 shell pairs
          la=2 lb=0:  12733 shell pairs
          la=2 lb=1:   7976 shell pairs
          la=2 lb=2:   1931 shell pairs
          la=3 lb=0:   5801 shell pairs
          la=3 lb=1:   3758 shell pairs
          la=3 lb=2:   1747 shell pairs
          la=3 lb=3:    413 shell pairs

Calculating one electron integrals          ... done (  0.2 sec)
Calculating RI/J V-Matrix + Cholesky decomp.... done (  0.3 sec)
Calculating RI/C V-Matrix + Cholesky decomp.... done (  0.5 sec)
Calculating Nuclear repulsion               ... done (  0.0 sec) ENN=   4796.201014714646 Eh

SHARK setup successfully completed in  13.6 seconds

Maximum memory used throughout the entire GTOINT-calculation: 153.6 MB


           ************************************************************
           *        Program running with 8 parallel MPI-processes     *
           *              working on a common directory               *
           ************************************************************
-------------------------------------------------------------------------------
                                 ORCA SCF
-------------------------------------------------------------------------------

------------
SCF SETTINGS
------------
Hamiltonian:
 Density Functional     Method          .... DFT(GTOs)
 Exchange Functional    Exchange        .... WB88
 Correlation Functional Correlation     .... LYP
 LDA part of GGA corr.  LDAOpt          .... VWN-3
 Gradients option       PostSCFGGA      .... off
 Hybrid DFT is turned on
   Fraction HF Exchange ScalHFX         ....  0.530000
   Scaling of DF-GGA-X  ScalDFX         ....  0.000000
   Scaling of DF-GGA-C  ScalDFC         ....  0.730000
   Scaling of DF-LDA-C  ScalLDAC        ....  0.730000
   Perturbative correction              ....  0.270000
   Density functional embedding theory  .... OFF
 Long-range corrected/Screened/Range-Separated Hybrid DFT is turned on
   Amount of maximum screened exact exchange              ....  0.470000
   Range separation parameter mu (erf(mu*r12)/r12)        ....  0.300000
 RI-approximation to the Coulomb term is turned on
   Number of AuxJ basis functions       .... 2349
   RIJ-COSX (HFX calculated with COS-X)).... on


General Settings:
 Integral files         IntName         .... Eos_1_M06L_def2TZVP_coords
 Hartree-Fock type      HFTyp           .... RHF
 Total Charge           Charge          ....   -2
 Multiplicity           Mult            ....    1
 Number of Electrons    NEL             ....  292
 Basis Dimension        Dim             .... 1465
 Nuclear Repulsion      ENuc            ....   4796.2010147146 Eh

Convergence Acceleration:
 DIIS                   CNVDIIS         .... on
   Start iteration      DIISMaxIt       ....    12
   Startup error        DIISStart       ....  0.200000
   # of expansion vecs  DIISMaxEq       ....     5
   Bias factor          DIISBfac        ....   1.050
   Max. coefficient     DIISMaxC        ....  10.000
 Trust-Rad. Augm. Hess. CNVTRAH         .... auto
   Auto Start mean grad. ratio tolernc. ....  1.125000
   Auto Start start iteration           ....    20
   Auto Start num. interpolation iter.  ....    10
   Max. Number of Micro iterations      ....    16
   Max. Number of Macro iterations      .... Maxiter - #DIIS iter
   Number of Davidson start vectors     ....     2
   Converg. threshold I  (grad. norm)   ....   1.000e-05
   Converg. threshold II (energy diff.) ....   1.000e-08
   Grad. Scal. Fac. for Micro threshold ....   0.100
   Minimum threshold for Micro iter.    ....   0.010
   NR start threshold (gradient norm)   ....   0.001
   Initial trust radius                 ....   0.400
   Minimum AH scaling param. (alpha)    ....   1.000
   Maximum AH scaling param. (alpha)    .... 1000.000
   Orbital update algorithm             .... Taylor
   White noise on init. David. guess    .... on
   Maximum white noise                  ....   0.010
   Quad. conv. algorithm                .... NR
 SOSCF                  CNVSOSCF        .... on
   Start iteration      SOSCFMaxIt      ....   150
   Startup grad/error   SOSCFStart      ....  0.003300
 Level Shifting         CNVShift        .... on
   Level shift para.    LevelShift      ....    0.2500
   Turn off err/grad.   ShiftErr        ....    0.0010
 Zerner damping         CNVZerner       .... off
 Static damping         CNVDamp         .... on
   Fraction old density DampFac         ....    0.7000
   Max. Damping (<1)    DampMax         ....    0.9800
   Min. Damping (>=0)   DampMin         ....    0.0000
   Turn off err/grad.   DampErr         ....    0.1000
 Fernandez-Rico         CNVRico         .... off

SCF Procedure:
 Maximum # iterations   MaxIter         ....   125
 SCF integral mode      SCFMode         .... Direct
   Integral package                     .... SHARK and LIBINT hybrid scheme
 Reset frequency        DirectResetFreq ....    20
 Integral Threshold     Thresh          ....  2.500e-11 Eh
 Primitive CutOff       TCut            ....  2.500e-12 Eh

Convergence Tolerance:
 Convergence Check Mode ConvCheckMode   .... Total+1el-Energy
 Convergence forced     ConvForced      .... 1
 Energy Change          TolE            ....  1.000e-08 Eh
 1-El. energy change                    ....  1.000e-05 Eh
 Orbital Gradient       TolG            ....  1.000e-05
 Orbital Rotation angle TolX            ....  1.000e-05
 DIIS Error             TolErr          ....  5.000e-07


Diagonalization of the overlap matrix:
Smallest eigenvalue                        ... 3.197e-06
Time for diagonalization                   ...    0.323 sec
Threshold for overlap eigenvalues          ... 1.000e-08
Number of eigenvalues below threshold      ... 0
Time for construction of square roots      ...    0.169 sec
Total time needed                          ...    0.499 sec

Time for model grid setup =    0.621 sec

------------------------------
INITIAL GUESS: MODEL POTENTIAL
------------------------------
Loading Hartree-Fock densities                     ... done
Calculating cut-offs                               ... done
Initializing the effective Hamiltonian             ... done
Setting up the integral package (SHARK)            ... done
Starting the Coulomb interaction                   ... done (   1.6 sec)
Reading the grid                                   ... done
Mapping shells                                     ... done
Starting the XC term evaluation                    ... done (   0.5 sec)
  promolecular density results
     # of electrons  =    289.982025297
     EX              =   -241.668829169
     EC              =     -3.357008296
     EX+EC           =   -245.025837465
Transforming the Hamiltonian                       ... done (   0.1 sec)
Diagonalizing the Hamiltonian                      ... done (   0.2 sec)
Back transforming the eigenvectors                 ... done (   0.1 sec)
Now organizing SCF variables                       ... done
                      ------------------
                      INITIAL GUESS DONE (   3.2 sec)
                      ------------------
-------------------
DFT GRID GENERATION
-------------------

General Integration Accuracy     IntAcc      ... 4.388
Radial Grid Type                 RadialGrid  ... OptM3 with GC (2021)
Angular Grid (max. ang.)         AngularGrid ... 4 (Lebedev-302)
Angular grid pruning method      GridPruning ... 4 (adaptive)
Weight generation scheme         WeightScheme... Becke
Basis function cutoff            BFCut       ... 1.0000e-11
Integration weight cutoff        WCut        ... 1.0000e-14
Angular grids for H and He will be reduced by one unit
Partially contracted basis set               ... off
Rotationally invariant grid construction     ... off

Total number of grid points                  ...   325181
Total number of batches                      ...     5113
Average number of points per batch           ...       63
Average number of grid points per atom       ...     5003
Time for grid setup =    2.332 sec

--------------------
COSX GRID GENERATION
--------------------

GRIDX 1
-------
General Integration Accuracy     IntAcc      ... 3.816
Radial Grid Type                 RadialGrid  ... OptM3 with GC (2021)
Angular Grid (max. ang.)         AngularGrid ... 1 (Lebedev-50)
Angular grid pruning method      GridPruning ... 4 (adaptive)
Weight generation scheme         WeightScheme... Becke
Basis function cutoff            BFCut       ... 1.0000e-11
Integration weight cutoff        WCut        ... 1.0000e-14
Angular grids for H and He will be reduced by one unit
Partially contracted basis set               ... on
Rotationally invariant grid construction     ... off

Total number of grid points                  ...    41100
Total number of batches                      ...      663
Average number of points per batch           ...       61
Average number of grid points per atom       ...      632
UseSFitting                                  ... on

GRIDX 2
-------
General Integration Accuracy     IntAcc      ... 4.020
Radial Grid Type                 RadialGrid  ... OptM3 with GC (2021)
Angular Grid (max. ang.)         AngularGrid ... 2 (Lebedev-110)
Angular grid pruning method      GridPruning ... 4 (adaptive)
Weight generation scheme         WeightScheme... Becke
Basis function cutoff            BFCut       ... 1.0000e-11
Integration weight cutoff        WCut        ... 1.0000e-14
Angular grids for H and He will be reduced by one unit
Partially contracted basis set               ... on
Rotationally invariant grid construction     ... off

Total number of grid points                  ...    90274
Total number of batches                      ...     1441
Average number of points per batch           ...       62
Average number of grid points per atom       ...     1389
UseSFitting                                  ... on

GRIDX 3
-------
General Integration Accuracy     IntAcc      ... 4.338
Radial Grid Type                 RadialGrid  ... OptM3 with GC (2021)
Angular Grid (max. ang.)         AngularGrid ... 3 (Lebedev-194)
Angular grid pruning method      GridPruning ... 4 (adaptive)
Weight generation scheme         WeightScheme... Becke
Basis function cutoff            BFCut       ... 1.0000e-11
Integration weight cutoff        WCut        ... 1.0000e-14
Angular grids for H and He will be reduced by one unit
Partially contracted basis set               ... on
Rotationally invariant grid construction     ... off

Total number of grid points                  ...   197290
Total number of batches                      ...     3119
Average number of points per batch           ...       63
Average number of grid points per atom       ...     3035
UseSFitting                                  ... on

Time for X-Grid setup             =    4.201 sec


--------------------
CPCM SOLVATION MODEL
--------------------
CPCM parameters:
  Epsilon                                         ...      35.6880
  Refrac                                          ...       1.3442
  Rsolv                                           ...       1.3000
  Surface type                                    ... GAUSSIAN VDW
  Epsilon function type                           ...         CPCM
Solvent:                                     ... ACETONITRILE
SMD-CDS solvent descriptors:
  Soln                                       ...    1.3442
  Soln25                                     ...    1.3416
  Sola                                       ...    0.0700
  Solb                                       ...    0.3200
  Solg                                       ...   41.2500
  Solc                                       ...    0.0000
  Solh                                       ...    0.0000
Radii:
 Radius for C  used is    3.4960 Bohr (=   1.8500 Ang.)
 Radius for H  used is    2.2677 Bohr (=   1.2000 Ang.)
 Radius for O  used is    4.0969 Bohr (=   2.1680 Ang.)
Calculating surface                               ...        done! (  0.0s)
GEPOL surface points                              ...         3413
GEPOL Volume                                      ...    3999.3529
GEPOL Surface-area                                ...    1970.1646
Calculating surface distance matrix               ...        done! (  0.1s)
Performing Cholesky decomposition & store         ...        done! (  0.5s)
Overall time for CPCM initialization              ...                 0.5s
--------------
SCF ITERATIONS
--------------
ITER       Energy         Delta-E        Max-DP      RMS-DP      [F,P]     Damp
               ***  Starting incremental Fock matrix formation  ***
  0  -1831.5070831417   0.000000000000 0.30518999  0.00150723  0.3228004 0.7000
  1  -1831.9924782199  -0.485395078139 0.31933742  0.00153069  0.1749590 0.7000
                               ***Turning on DIIS***
  2  -1832.2630899994  -0.270611779532 0.58622466  0.00287754  0.0815620 0.0000
  3  -1832.7574453976  -0.494355398192 0.30164608  0.00132502  0.0754236 0.0000
  4  -1832.8008232368  -0.043377839213 0.03788499  0.00023974  0.0157277 0.0000
  5  -1832.8031224836  -0.002299246746 0.04906971  0.00020705  0.0077482 0.0000
                      *** Initiating the SOSCF procedure ***
                           *** Shutting down DIIS ***
                      *** Re-Reading the Fockian *** 
                      *** Removing any level shift *** 
ITER      Energy       Delta-E        Grad      Rot      Max-DP    RMS-DP
  6  -1832.80369722  -0.0005747374  0.002519  0.002519  0.023457  0.000098
               *** Restarting incremental Fock matrix formation ***
  7  -1832.80390874  -0.0002115214  0.001579  0.004345  0.027690  0.000328
  8  -1832.80400160  -0.0000928585  0.000740  0.005032  0.019949  0.000150
  9  -1832.80403439  -0.0000327902  0.000159  0.000303  0.009642  0.000116
 10  -1832.80404018  -0.0000057872  0.000087  0.000223  0.002502  0.000013
 11  -1832.80404104  -0.0000008601  0.000043  0.000167  0.001103  0.000008
 12  -1832.80404122  -0.0000001797  0.000021  0.000107  0.000547  0.000003
 13  -1832.80404122  -0.0000000060  0.000009  0.000060  0.000668  0.000004
 14  -1832.80404125  -0.0000000248  0.000003  0.000017  0.000861  0.000003
                  ***Gradient check signals convergence***
              ***Rediagonalizing the Fockian in SOSCF/NRSCF***

               *****************************************************
               *                     SUCCESS                       *
               *           SCF CONVERGED AFTER  15 CYCLES          *
               *****************************************************

Old exchange energy                            =   -152.323210123 Eh
New exchange energy                            =   -152.323181061 Eh
Exchange energy change after final integration =      0.000029061 Eh
Total energy after final integration           =  -1832.804012222 Eh
Final COS-X integration done in                =   142.292 sec

SMD CDS free energy correction energy :                -9.35476     Kcal/mol
Total Energy after SMD CDS correction =             -1832.818919972 Eh

----------------
TOTAL SCF ENERGY
----------------

Total Energy       :        -1832.81891997 Eh          -49873.53833 eV

Components:
Nuclear Repulsion  :         4796.20101471 Eh          130511.26467 eV
Electronic Energy  :        -6629.01993469 Eh         -180384.80301 eV
One Electron Energy:       -12104.99561871 Eh         -329393.67684 eV
Two Electron Energy:         5475.97568402 Eh          149008.87383 eV
Max COSX asymmetry :            0.00000950 Eh               0.00026 eV
CPCM Dielectric    :           -0.25347608 Eh              -6.89743 eV
SMD CDS (Gcds)     :           -0.01490775 Eh              -0.40566 eV

Virial components:
Potential Energy   :        -3659.68783927 Eh          -99585.16892 eV
Kinetic Energy     :         1826.86891930 Eh           49711.63058 eV
Virial Ratio       :            2.00325694


DFT components:
N(Alpha)           :      145.999725620613 electrons
N(Beta)            :      145.999725620613 electrons
N(Total)           :      291.999451241225 electrons
E(X)               :      -93.072444964927 Eh       
E(C)               :       -7.355613572556 Eh       
E(XC)              :     -100.428058537483 Eh       
DFET-embed. en.    :        0.000000000000 Eh       
CPCM Solvation Model Properties:
Surface-charge          :            1.92727276
Charge-correction       :           -0.01252224 Eh              -0.34075 eV
Free-energy (cav+disp)  :           -0.01490775 Eh              -0.40566 eV

---------------
SCF CONVERGENCE
---------------

  Last Energy change         ...   -3.4031e-08  Tolerance :   1.0000e-08
  Last MAX-Density change    ...    2.8866e-15  Tolerance :   1.0000e-07
  Last RMS-Density change    ...    1.3200e-17  Tolerance :   5.0000e-09
  Last Orbital Gradient      ...    2.2736e-06  Tolerance :   1.0000e-05
  Last Orbital Rotation      ...    1.5208e-05  Tolerance :   1.0000e-05

             **** THE GBW FILE WAS UPDATED (Eos_1_M06L_def2TZVP_coords.gbw) ****
             **** DENSITY Eos_1_M06L_def2TZVP_coords.scfp WAS UPDATED ****
             **** ENERGY FILE WAS UPDATED (Eos_1_M06L_def2TZVP_coords.en.tmp) ****
             **** THE GBW FILE WAS UPDATED (Eos_1_M06L_def2TZVP_coords.gbw) ****
             **** DENSITY Eos_1_M06L_def2TZVP_coords.scfp WAS UPDATED ****
----------------
ORBITAL ENERGIES
----------------

  NO   OCC          E(Eh)            E(eV) 
   0   2.0000     -19.854243      -540.2614 
   1   2.0000     -19.724794      -536.7389 
   2   2.0000     -19.724726      -536.7371 
   3   2.0000     -19.708828      -536.3045 
   4   2.0000     -19.708473      -536.2948 
   5   2.0000     -10.765599      -292.9468 
   6   2.0000     -10.763357      -292.8858 
   7   2.0000     -10.757544      -292.7276 
   8   2.0000     -10.744899      -292.3836 
   9   2.0000     -10.742161      -292.3091 
  10   2.0000     -10.736135      -292.1451 
  11   2.0000     -10.698518      -291.1215 
  12   2.0000     -10.690466      -290.9024 
  13   2.0000     -10.688058      -290.8368 
  14   2.0000     -10.687785      -290.8294 
  15   2.0000     -10.687645      -290.8256 
  16   2.0000     -10.687603      -290.8245 
  17   2.0000     -10.685992      -290.7806 
  18   2.0000     -10.685603      -290.7700 
  19   2.0000     -10.683319      -290.7079 
  20   2.0000     -10.682363      -290.6819 
  21   2.0000     -10.681434      -290.6566 
  22   2.0000     -10.680949      -290.6434 
  23   2.0000     -10.678619      -290.5800 
  24   2.0000     -10.676180      -290.5136 
  25   2.0000     -10.676164      -290.5132 
  26   2.0000     -10.676130      -290.5123 
  27   2.0000     -10.675747      -290.5018 
  28   2.0000     -10.675698      -290.5005 
  29   2.0000     -10.675617      -290.4983 
  30   2.0000     -10.674956      -290.4803 
  31   2.0000     -10.674854      -290.4775 
  32   2.0000     -10.674835      -290.4770 
  33   2.0000     -10.674691      -290.4731 
  34   2.0000     -10.674287      -290.4621 
  35   2.0000     -10.674111      -290.4573 
  36   2.0000     -10.673785      -290.4484 
  37   2.0000     -10.673725      -290.4468 
  38   2.0000     -10.672155      -290.4041 
  39   2.0000     -10.671826      -290.3952 
  40   2.0000     -10.668337      -290.3002 
  41   2.0000     -10.667420      -290.2752 
  42   2.0000     -10.662554      -290.1429 
  43   2.0000      -1.332210       -36.2513 
  44   2.0000      -1.228874       -33.4394 
  45   2.0000      -1.207714       -32.8636 
  46   2.0000      -1.204228       -32.7687 
  47   2.0000      -1.131551       -30.7911 
  48   2.0000      -1.083669       -29.4881 
  49   2.0000      -1.069737       -29.1090 
  50   2.0000      -1.061023       -28.8719 
  51   2.0000      -1.059695       -28.8358 
  52   2.0000      -1.049137       -28.5485 
  53   2.0000      -1.045277       -28.4434 
  54   2.0000      -0.994644       -27.0656 
  55   2.0000      -0.982407       -26.7327 
  56   2.0000      -0.962821       -26.1997 
  57   2.0000      -0.944771       -25.7085 
  58   2.0000      -0.939664       -25.5696 
  59   2.0000      -0.930060       -25.3082 
  60   2.0000      -0.929127       -25.2828 
  61   2.0000      -0.928422       -25.2637 
  62   2.0000      -0.927498       -25.2385 
  63   2.0000      -0.913791       -24.8655 
  64   2.0000      -0.892732       -24.2925 
  65   2.0000      -0.886555       -24.1244 
  66   2.0000      -0.822489       -22.3811 
  67   2.0000      -0.814983       -22.1768 
  68   2.0000      -0.800046       -21.7704 
  69   2.0000      -0.783425       -21.3181 
  70   2.0000      -0.778187       -21.1755 
  71   2.0000      -0.765274       -20.8242 
  72   2.0000      -0.763612       -20.7789 
  73   2.0000      -0.760739       -20.7008 
  74   2.0000      -0.757770       -20.6200 
  75   2.0000      -0.750875       -20.4324 
  76   2.0000      -0.731307       -19.8999 
  77   2.0000      -0.722271       -19.6540 
  78   2.0000      -0.693104       -18.8603 
  79   2.0000      -0.685696       -18.6587 
  80   2.0000      -0.680736       -18.5238 
  81   2.0000      -0.666417       -18.1341 
  82   2.0000      -0.659750       -17.9527 
  83   2.0000      -0.649279       -17.6678 
  84   2.0000      -0.643371       -17.5070 
  85   2.0000      -0.628132       -17.0923 
  86   2.0000      -0.620556       -16.8862 
  87   2.0000      -0.616363       -16.7721 
  88   2.0000      -0.608845       -16.5675 
  89   2.0000      -0.600071       -16.3288 
  90   2.0000      -0.596537       -16.2326 
  91   2.0000      -0.588257       -16.0073 
  92   2.0000      -0.585965       -15.9449 
  93   2.0000      -0.584749       -15.9118 
  94   2.0000      -0.582878       -15.8609 
  95   2.0000      -0.579363       -15.7653 
  96   2.0000      -0.574397       -15.6301 
  97   2.0000      -0.571749       -15.5581 
  98   2.0000      -0.565504       -15.3882 
  99   2.0000      -0.562738       -15.3129 
 100   2.0000      -0.555820       -15.1246 
 101   2.0000      -0.546930       -14.8827 
 102   2.0000      -0.545369       -14.8402 
 103   2.0000      -0.545172       -14.8349 
 104   2.0000      -0.543909       -14.8005 
 105   2.0000      -0.543716       -14.7953 
 106   2.0000      -0.536873       -14.6091 
 107   2.0000      -0.532640       -14.4939 
 108   2.0000      -0.527945       -14.3661 
 109   2.0000      -0.518042       -14.0967 
 110   2.0000      -0.515487       -14.0271 
 111   2.0000      -0.512303       -13.9405 
 112   2.0000      -0.504897       -13.7390 
 113   2.0000      -0.499418       -13.5899 
 114   2.0000      -0.494472       -13.4553 
 115   2.0000      -0.490881       -13.3576 
 116   2.0000      -0.488084       -13.2814 
 117   2.0000      -0.487462       -13.2645 
 118   2.0000      -0.480160       -13.0658 
 119   2.0000      -0.477306       -12.9882 
 120   2.0000      -0.466835       -12.7032 
 121   2.0000      -0.464377       -12.6363 
 122   2.0000      -0.459372       -12.5001 
 123   2.0000      -0.457771       -12.4566 
 124   2.0000      -0.456678       -12.4268 
 125   2.0000      -0.455460       -12.3937 
 126   2.0000      -0.452308       -12.3079 
 127   2.0000      -0.438980       -11.9452 
 128   2.0000      -0.434285       -11.8175 
 129   2.0000      -0.382974       -10.4212 
 130   2.0000      -0.370053       -10.0696 
 131   2.0000      -0.366951        -9.9852 
 132   2.0000      -0.362852        -9.8737 
 133   2.0000      -0.358829        -9.7642 
 134   2.0000      -0.356090        -9.6897 
 135   2.0000      -0.352890        -9.6026 
 136   2.0000      -0.350370        -9.5341 
 137   2.0000      -0.342061        -9.3080 
 138   2.0000      -0.341350        -9.2886 
 139   2.0000      -0.338210        -9.2031 
 140   2.0000      -0.334228        -9.0948 
 141   2.0000      -0.329793        -8.9741 
 142   2.0000      -0.327194        -8.9034 
 143   2.0000      -0.307020        -8.3544 
 144   2.0000      -0.287673        -7.8280 
 145   2.0000      -0.244315        -6.6481 
 146   0.0000       0.013573         0.3693 
 147   0.0000       0.066089         1.7984 
 148   0.0000       0.076694         2.0869 
 149   0.0000       0.088225         2.4007 
 150   0.0000       0.089821         2.4442 
 151   0.0000       0.091484         2.4894 
 152   0.0000       0.095835         2.6078 
 153   0.0000       0.097523         2.6537 
 154   0.0000       0.100442         2.7332 
 155   0.0000       0.119603         3.2546 
 156   0.0000       0.130362         3.5473 
 157   0.0000       0.134788         3.6678 
 158   0.0000       0.143377         3.9015 
 159   0.0000       0.144870         3.9421 
 160   0.0000       0.149202         4.0600 
 161   0.0000       0.151478         4.1219 
 162   0.0000       0.154026         4.1913 
 163   0.0000       0.157690         4.2910 
 164   0.0000       0.160162         4.3582 
 165   0.0000       0.167644         4.5618 
 166   0.0000       0.170210         4.6316 
 167   0.0000       0.176805         4.8111 
 168   0.0000       0.178777         4.8648 
 169   0.0000       0.184751         5.0273 
 170   0.0000       0.187435         5.1004 
 171   0.0000       0.189894         5.1673 
 172   0.0000       0.193420         5.2632 
 173   0.0000       0.195809         5.3282 
 174   0.0000       0.199389         5.4256 
 175   0.0000       0.201088         5.4719 
 176   0.0000       0.204131         5.5547 
 177   0.0000       0.206314         5.6141 
 178   0.0000       0.208599         5.6763 
 179   0.0000       0.212095         5.7714 
 180   0.0000       0.216412         5.8889 
 181   0.0000       0.220008         5.9867 
 182   0.0000       0.224307         6.1037 
 183   0.0000       0.226972         6.1762 
 184   0.0000       0.232978         6.3397 
 185   0.0000       0.243405         6.6234 
 186   0.0000       0.247798         6.7429 
 187   0.0000       0.250476         6.8158 
 188   0.0000       0.256752         6.9866 
 189   0.0000       0.262232         7.1357 
 190   0.0000       0.266547         7.2531 
 191   0.0000       0.269793         7.3414 
 192   0.0000       0.272418         7.4129 
 193   0.0000       0.277396         7.5483 
 194   0.0000       0.281230         7.6527 
 195   0.0000       0.283491         7.7142 
 196   0.0000       0.285694         7.7741 
 197   0.0000       0.289594         7.8802 
 198   0.0000       0.293030         7.9738 
 199   0.0000       0.297161         8.0862 
 200   0.0000       0.299299         8.1443 
 201   0.0000       0.302082         8.2201 
 202   0.0000       0.303806         8.2670 
 203   0.0000       0.304949         8.2981 
 204   0.0000       0.307781         8.3752 
 205   0.0000       0.311265         8.4700 
 206   0.0000       0.312456         8.5024 
 207   0.0000       0.314765         8.5652 
 208   0.0000       0.316401         8.6097 
 209   0.0000       0.318088         8.6556 
 210   0.0000       0.321042         8.7360 
 211   0.0000       0.322660         8.7800 
 212   0.0000       0.327104         8.9009 
 213   0.0000       0.329478         8.9655 
 214   0.0000       0.330378         8.9900 
 215   0.0000       0.334003         9.0887 
 216   0.0000       0.336052         9.1444 
 217   0.0000       0.340110         9.2549 
 218   0.0000       0.342076         9.3084 
 219   0.0000       0.343528         9.3479 
 220   0.0000       0.346118         9.4183 
 221   0.0000       0.351460         9.5637 
 222   0.0000       0.353417         9.6170 
 223   0.0000       0.356054         9.6887 
 224   0.0000       0.357903         9.7390 
 225   0.0000       0.360880         9.8200 
 226   0.0000       0.362485         9.8637 
 227   0.0000       0.363485         9.8909 
 228   0.0000       0.371909        10.1202 
 229   0.0000       0.372795        10.1443 
 230   0.0000       0.377524        10.2729 
 231   0.0000       0.381179        10.3724 
 232   0.0000       0.382898        10.4192 
 233   0.0000       0.385079        10.4785 
 234   0.0000       0.389718        10.6048 
 235   0.0000       0.396150        10.7798 
 236   0.0000       0.398066        10.8319 
 237   0.0000       0.398612        10.8468 
 238   0.0000       0.401495        10.9252 
 239   0.0000       0.402409        10.9501 
 240   0.0000       0.405352        11.0302 
 241   0.0000       0.412872        11.2348 
 242   0.0000       0.414992        11.2925 
 243   0.0000       0.416626        11.3370 
 244   0.0000       0.421482        11.4691 
 245   0.0000       0.423775        11.5315 
 246   0.0000       0.429317        11.6823 
 247   0.0000       0.430894        11.7252 
 248   0.0000       0.433150        11.7866 
 249   0.0000       0.434264        11.8169 
 250   0.0000       0.437204        11.8969 
 251   0.0000       0.438537        11.9332 
 252   0.0000       0.440453        11.9853 
 253   0.0000       0.444398        12.0927 
 254   0.0000       0.445897        12.1335 
 255   0.0000       0.448500        12.2043 
 256   0.0000       0.452549        12.3145 
 257   0.0000       0.456383        12.4188 
 258   0.0000       0.459220        12.4960 
 259   0.0000       0.459334        12.4991 
 260   0.0000       0.461445        12.5566 
 261   0.0000       0.462880        12.5956 
 262   0.0000       0.464327        12.6350 
 263   0.0000       0.469762        12.7829 
 264   0.0000       0.474663        12.9162 
 265   0.0000       0.476109        12.9556 
 266   0.0000       0.477948        13.0056 
 267   0.0000       0.482430        13.1276 
 268   0.0000       0.487039        13.2530 
 269   0.0000       0.488415        13.2905 
 270   0.0000       0.491924        13.3859 
 271   0.0000       0.494109        13.4454 
 272   0.0000       0.494231        13.4487 
 273   0.0000       0.496870        13.5205 
 274   0.0000       0.503257        13.6943 
 275   0.0000       0.505097        13.7444 
 276   0.0000       0.507722        13.8158 
 277   0.0000       0.509529        13.8650 
 278   0.0000       0.512456        13.9446 
 279   0.0000       0.515221        14.0199 
 280   0.0000       0.517131        14.0719 
 281   0.0000       0.517551        14.0833 
 282   0.0000       0.520731        14.1698 
 283   0.0000       0.521910        14.2019 
 284   0.0000       0.524518        14.2729 
 285   0.0000       0.525840        14.3088 
 286   0.0000       0.527476        14.3533 
 287   0.0000       0.528564        14.3829 
 288   0.0000       0.536192        14.5905 
 289   0.0000       0.537416        14.6238 
 290   0.0000       0.538093        14.6422 
 291   0.0000       0.541595        14.7375 
 292   0.0000       0.543006        14.7760 
 293   0.0000       0.545967        14.8565 
 294   0.0000       0.548642        14.9293 
 295   0.0000       0.549301        14.9472 
 296   0.0000       0.552959        15.0468 
 297   0.0000       0.554477        15.0881 
 298   0.0000       0.558773        15.2050 
 299   0.0000       0.561788        15.2870 
 300   0.0000       0.564176        15.3520 
 301   0.0000       0.567209        15.4345 
 302   0.0000       0.569341        15.4926 
 303   0.0000       0.571504        15.5514 
 304   0.0000       0.574513        15.6333 
 305   0.0000       0.576123        15.6771 
 306   0.0000       0.578264        15.7354 
 307   0.0000       0.582823        15.8594 
 308   0.0000       0.584239        15.8980 
 309   0.0000       0.588479        16.0133 
 310   0.0000       0.591597        16.0982 
 311   0.0000       0.594615        16.1803 
 312   0.0000       0.595376        16.2010 
 313   0.0000       0.598185        16.2774 
 314   0.0000       0.599791        16.3211 
 315   0.0000       0.608001        16.5446 
 316   0.0000       0.608859        16.5679 
 317   0.0000       0.610581        16.6148 
 318   0.0000       0.615221        16.7410 
 319   0.0000       0.617972        16.8159 
 320   0.0000       0.619273        16.8513 
 321   0.0000       0.621698        16.9173 
 322   0.0000       0.624272        16.9873 
 323   0.0000       0.630782        17.1645 
 324   0.0000       0.634355        17.2617 
 325   0.0000       0.635279        17.2868 
 326   0.0000       0.636973        17.3329 
 327   0.0000       0.637664        17.3517 
 328   0.0000       0.639803        17.4099 
 329   0.0000       0.642004        17.4698 
 330   0.0000       0.645232        17.5577 
 331   0.0000       0.649427        17.6718 
 332   0.0000       0.653476        17.7820 
 333   0.0000       0.655582        17.8393 
 334   0.0000       0.656897        17.8751 
 335   0.0000       0.659680        17.9508 
 336   0.0000       0.664375        18.0786 
 337   0.0000       0.667028        18.1507 
 338   0.0000       0.671167        18.2634 
 339   0.0000       0.677861        18.4455 
 340   0.0000       0.678397        18.4601 
 341   0.0000       0.679981        18.5032 
 342   0.0000       0.680532        18.5182 
 343   0.0000       0.686853        18.6902 
 344   0.0000       0.692296        18.8383 
 345   0.0000       0.695378        18.9222 
 346   0.0000       0.699884        19.0448 
 347   0.0000       0.702488        19.1157 
 348   0.0000       0.705387        19.1946 
 349   0.0000       0.712970        19.4009 
 350   0.0000       0.718727        19.5576 
 351   0.0000       0.722516        19.6607 
 352   0.0000       0.726195        19.7608 
 353   0.0000       0.729113        19.8402 
 354   0.0000       0.731903        19.9161 
 355   0.0000       0.734054        19.9746 
 356   0.0000       0.737207        20.0604 
 357   0.0000       0.746483        20.3128 
 358   0.0000       0.750139        20.4123 
 359   0.0000       0.752177        20.4678 
 360   0.0000       0.758947        20.6520 
 361   0.0000       0.761922        20.7330 
 362   0.0000       0.763495        20.7758 
 363   0.0000       0.767912        20.8959 
 364   0.0000       0.771246        20.9867 
 365   0.0000       0.776071        21.1180 
 366   0.0000       0.779519        21.2118 
 367   0.0000       0.782056        21.2808 
 368   0.0000       0.785445        21.3730 
 369   0.0000       0.789887        21.4939 
 370   0.0000       0.794675        21.6242 
 371   0.0000       0.797283        21.6952 
 372   0.0000       0.800979        21.7957 
 373   0.0000       0.805248        21.9119 
 374   0.0000       0.807487        21.9729 
 375   0.0000       0.812390        22.1063 
 376   0.0000       0.814969        22.1764 
 377   0.0000       0.818549        22.2738 
 378   0.0000       0.820765        22.3341 
 379   0.0000       0.824341        22.4315 
 380   0.0000       0.826743        22.4968 
 381   0.0000       0.828701        22.5501 
 382   0.0000       0.830762        22.6062 
 383   0.0000       0.836380        22.7591 
 384   0.0000       0.838335        22.8123 
 385   0.0000       0.840719        22.8771 
 386   0.0000       0.843189        22.9443 
 387   0.0000       0.846195        23.0261 
 388   0.0000       0.846407        23.0319 
 389   0.0000       0.847857        23.0714 
 390   0.0000       0.851706        23.1761 
 391   0.0000       0.856309        23.3014 
 392   0.0000       0.859433        23.3864 
 393   0.0000       0.860379        23.4121 
 394   0.0000       0.864053        23.5121 
 395   0.0000       0.868163        23.6239 
 396   0.0000       0.869966        23.6730 
 397   0.0000       0.870635        23.6912 
 398   0.0000       0.873762        23.7763 
 399   0.0000       0.878135        23.8953 
 400   0.0000       0.880192        23.9513 
 401   0.0000       0.882339        24.0097 
 402   0.0000       0.883062        24.0293 
 403   0.0000       0.886383        24.1197 
 404   0.0000       0.888354        24.1733 
 405   0.0000       0.891636        24.2627 
[...]
   145a -> 157a  :     0.025709 

STATE 19:  E=   0.201352 au      5.479 eV    44191.7 cm**-1 <S**2> =   0.000000
   130a -> 146a  :     0.019691 
   131a -> 146a  :     0.019768 
   134a -> 149a  :     0.017556 
   135a -> 146a  :     0.011152 
   136a -> 147a  :     0.025546 
   137a -> 146a  :     0.010401 
   140a -> 152a  :     0.012354 
   140a -> 154a  :     0.010873 
   141a -> 146a  :     0.018023 
   141a -> 149a  :     0.016293 
   143a -> 146a  :     0.018161 
   144a -> 147a  :     0.055958 
   144a -> 150a  :     0.053063 
   144a -> 155a  :     0.014758 
   144a -> 159a  :     0.019799 
   145a -> 148a  :     0.027939 
   145a -> 149a  :     0.037204 
   145a -> 150a  :     0.019672 
   145a -> 151a  :     0.053499 
   145a -> 155a  :     0.194826 
   145a -> 157a  :     0.021061 
   145a -> 159a  :     0.016525 

STATE 20:  E=   0.199887 au      5.439 eV    43870.1 cm**-1 <S**2> =   0.000000
   130a -> 146a  :     0.019785 
   131a -> 146a  :     0.016678 
   134a -> 146a  :     0.013940 
   134a -> 148a  :     0.010214 
   134a -> 149a  :     0.029149 
   135a -> 146a  :     0.015221 
   135a -> 149a  :     0.012231 
   136a -> 149a  :     0.039763 
   141a -> 146a  :     0.012611 
   143a -> 146a  :     0.018822 
   144a -> 147a  :     0.055355 
   145a -> 149a  :     0.111183 
   145a -> 150a  :     0.182528 
   145a -> 151a  :     0.092726 
   145a -> 155a  :     0.041262 
   145a -> 157a  :     0.011013 

STATE 21:  E=   0.205345 au      5.588 eV    45068.1 cm**-1 <S**2> =   0.000000
   136a -> 146a  :     0.013312 
   137a -> 146a  :     0.010171 
   139a -> 153a  :     0.031152 
   141a -> 148a  :     0.011929 
   143a -> 150a  :     0.015586 
   144a -> 147a  :     0.016310 
   144a -> 151a  :     0.011116 
   145a -> 147a  :     0.014156 
   145a -> 149a  :     0.357099 
   145a -> 153a  :     0.013077 
   145a -> 155a  :     0.107197 
   145a -> 156a  :     0.015608 
   145a -> 157a  :     0.062167 
   145a -> 159a  :     0.013399 

STATE 22:  E=   0.204749 au      5.572 eV    44937.3 cm**-1 <S**2> =   0.000000
   131a -> 149a  :     0.030051 
   134a -> 149a  :     0.016802 
   137a -> 146a  :     0.027200 
   137a -> 151a  :     0.033675 
   138a -> 150a  :     0.016777 
   139a -> 147a  :     0.017596 
   141a -> 146a  :     0.055006 
   142a -> 146a  :     0.063688 
   142a -> 148a  :     0.018241 
   142a -> 151a  :     0.022132 
   145a -> 149a  :     0.011165 
   145a -> 150a  :     0.062383 
   145a -> 151a  :     0.082349 
   145a -> 152a  :     0.106492 
   145a -> 156a  :     0.030346 
   145a -> 157a  :     0.025410 
   145a -> 158a  :     0.013387 
   145a -> 161a  :     0.020498 

STATE 23:  E=   0.205542 au      5.593 eV    45111.3 cm**-1 <S**2> =   0.000000
   131a -> 149a  :     0.018596 
   136a -> 146a  :     0.033080 
   137a -> 146a  :     0.064717 
   137a -> 150a  :     0.020710 
   138a -> 146a  :     0.072480 
   138a -> 149a  :     0.010073 
   138a -> 151a  :     0.028622 
   139a -> 147a  :     0.013672 
   140a -> 148a  :     0.012918 
   140a -> 149a  :     0.010370 
   141a -> 146a  :     0.032766 
   142a -> 146a  :     0.099504 
   142a -> 150a  :     0.017735 
   142a -> 151a  :     0.038328 
   145a -> 152a  :     0.147043 
   145a -> 156a  :     0.041347 
   145a -> 158a  :     0.018957 
   145a -> 161a  :     0.022742 

STATE 24:  E=   0.209455 au      5.700 eV    45970.0 cm**-1 <S**2> =   0.000000
   130a -> 149a  :     0.011105 
   136a -> 146a  :     0.018187 
   137a -> 146a  :     0.033379 
   138a -> 146a  :     0.014447 
   138a -> 151a  :     0.012538 
   139a -> 147a  :     0.012357 
   140a -> 148a  :     0.029775 
   140a -> 150a  :     0.013735 
   142a -> 146a  :     0.017358 
   142a -> 151a  :     0.012899 
   145a -> 149a  :     0.103601 
   145a -> 150a  :     0.022463 
   145a -> 151a  :     0.294400 
   145a -> 152a  :     0.089969 
   145a -> 153a  :     0.012653 

STATE 25:  E=   0.215302 au      5.859 eV    47253.3 cm**-1 <S**2> =   0.000000
   136a -> 146a  :     0.014598 
   137a -> 148a  :     0.012052 
   138a -> 150a  :     0.031979 
   139a -> 148a  :     0.052107 
   139a -> 151a  :     0.016716 
   139a -> 152a  :     0.013835 
   139a -> 154a  :     0.011843 
   140a -> 147a  :     0.041451 
   140a -> 148a  :     0.021943 
   140a -> 151a  :     0.010563 
   140a -> 152a  :     0.013965 
   140a -> 153a  :     0.013631 
   141a -> 147a  :     0.016673 
   143a -> 152a  :     0.012546 
   144a -> 148a  :     0.020356 
   144a -> 152a  :     0.013990 
   145a -> 150a  :     0.019477 
   145a -> 151a  :     0.031049 
   145a -> 153a  :     0.162193 
   145a -> 154a  :     0.135655 

STATE 26:  E=   0.220046 au      5.988 eV    48294.4 cm**-1 <S**2> =   0.000000
   134a -> 147a  :     0.017295 
   136a -> 146a  :     0.024157 
   137a -> 146a  :     0.021595 
   137a -> 150a  :     0.013851 
   137a -> 153a  :     0.015992 
   137a -> 154a  :     0.016418 
   138a -> 147a  :     0.016407 
   138a -> 152a  :     0.015114 
   138a -> 154a  :     0.020681 
   139a -> 146a  :     0.012349 
   139a -> 147a  :     0.012678 
   139a -> 148a  :     0.023008 
   139a -> 150a  :     0.014819 
   139a -> 151a  :     0.023032 
   139a -> 152a  :     0.020934 
   139a -> 154a  :     0.037463 
   140a -> 147a  :     0.013137 
   140a -> 152a  :     0.040577 
   140a -> 153a  :     0.061048 
   144a -> 147a  :     0.011415 
   144a -> 148a  :     0.025046 
   144a -> 155a  :     0.020775 
   144a -> 157a  :     0.017595 
   145a -> 150a  :     0.042165 
   145a -> 151a  :     0.014284 
   145a -> 153a  :     0.107174 
   145a -> 157a  :     0.013356 

STATE 27:  E=   0.216430 au      5.889 eV    47500.8 cm**-1 <S**2> =   0.000000
   130a -> 146a  :     0.031784 
   130a -> 147a  :     0.032395 
   130a -> 149a  :     0.081854 
   130a -> 179a  :     0.013768 
   131a -> 147a  :     0.020129 
   131a -> 149a  :     0.049391 
   131a -> 150a  :     0.012367 
   131a -> 151a  :     0.020625 
   131a -> 179a  :     0.016530 
   134a -> 146a  :     0.010818 
   136a -> 146a  :     0.033438 
   137a -> 146a  :     0.021090 
   137a -> 148a  :     0.017583 
   137a -> 151a  :     0.024091 
   138a -> 146a  :     0.021437 
   138a -> 149a  :     0.020050 
   140a -> 150a  :     0.012103 
   141a -> 146a  :     0.010600 
   141a -> 148a  :     0.012569 
   141a -> 151a  :     0.034782 
   142a -> 149a  :     0.011203 
   142a -> 178a  :     0.010452 
   142a -> 179a  :     0.021230 
   145a -> 149a  :     0.012211 
   145a -> 150a  :     0.017803 
   145a -> 151a  :     0.046040 
   145a -> 153a  :     0.012703 

STATE 28:  E=   0.216738 au      5.898 eV    47568.4 cm**-1 <S**2> =   0.000000
   137a -> 147a  :     0.024730 
   137a -> 149a  :     0.016078 
   138a -> 146a  :     0.010945 
   138a -> 147a  :     0.031252 
   138a -> 148a  :     0.020464 
   138a -> 152a  :     0.013219 
   139a -> 146a  :     0.042597 
   139a -> 147a  :     0.051584 
   139a -> 150a  :     0.040608 
   140a -> 146a  :     0.010121 
   140a -> 150a  :     0.048922 
   140a -> 151a  :     0.036762 
   140a -> 154a  :     0.012376 
   143a -> 153a  :     0.026799 
   144a -> 152a  :     0.029494 
   145a -> 151a  :     0.020215 
   145a -> 153a  :     0.072553 
   145a -> 154a  :     0.249154 

STATE 29:  E=   0.196771 au      5.354 eV    43186.3 cm**-1 <S**2> =   0.000000
   134a -> 146a  :     0.139392 
   135a -> 146a  :     0.526939 
   136a -> 146a  :     0.026335 
   136a -> 149a  :     0.024022 
   137a -> 146a  :     0.013229 
   143a -> 147a  :     0.011482 

STATE 30:  E=   0.213666 au      5.814 eV    46894.2 cm**-1 <S**2> =   0.000000
   129a -> 147a  :     0.015185 
   135a -> 146a  :     0.093220 
   136a -> 146a  :     0.040548 
   138a -> 152a  :     0.011587 
   143a -> 147a  :     0.043443 
   143a -> 155a  :     0.019731 
   143a -> 157a  :     0.010324 
   144a -> 148a  :     0.105422 
   144a -> 154a  :     0.010582 
   144a -> 155a  :     0.065820 
   144a -> 159a  :     0.016952 
   145a -> 147a  :     0.014241 
   145a -> 148a  :     0.062295 
   145a -> 150a  :     0.015121 
   145a -> 151a  :     0.048908 
   145a -> 155a  :     0.037878 
   145a -> 157a  :     0.125014 


-------------------------
TD-DFT-EXCITATION SPECTRA
-------------------------

Center of mass = ( -0.0027, -0.0291,  0.0205)
Calculating the Dipole integrals                  ... done
Transforming integrals                            ... done
Calculating the Linear Momentum integrals         ... done
Transforming integrals                            ... done
Calculating angular momentum integrals            ... done
Transforming integrals                            ... done

-----------------------------------------------------------------------------
         ABSORPTION SPECTRUM VIA TRANSITION ELECTRIC DIPOLE MOMENTS
-----------------------------------------------------------------------------
State   Energy    Wavelength  fosc         T2        TX        TY        TZ  
        (cm-1)      (nm)                 (au**2)    (au)      (au)      (au) 
-----------------------------------------------------------------------------
   1   21507.7    464.9   0.970106577  14.84911   2.56264  -2.87644  -0.09007
   2   30374.7    329.2   0.151086686   1.63753  -1.21307  -0.39603  -0.09573
   3   32437.0    308.3   0.041269376   0.41885   0.62865  -0.11936   0.09701
   4   34480.3    290.0   0.070968833   0.67760  -0.52938  -0.62940   0.03471
   5   36082.2    277.1   0.646629385   5.89981   2.03350   1.32590   0.08178
   6   35428.7    282.3   0.149952183   1.39339  -0.93987  -0.71060  -0.07137
   7   35182.8    284.2   0.016353124   0.15302   0.32952   0.21040  -0.01289
   8   39504.9    253.1   0.161843504   1.34871   0.76783  -0.86858  -0.06864
   9   38997.1    256.4   0.038439410   0.32450   0.21463   0.48578  -0.20606
  10   39517.6    253.1   0.115629881   0.96328   0.63976   0.68391   0.29369
  11   40565.7    246.5   0.008731375   0.07086   0.23203   0.12947  -0.01609
  12   40976.5    244.0   0.004272274   0.03432  -0.11990   0.08685  -0.11138
  13   41065.7    243.5   0.009583632   0.07683  -0.22408   0.15430  -0.05298
  14   41488.4    241.0   0.184124398   1.46103   1.20853  -0.00301   0.02173
  15   41265.0    242.3   0.186014753   1.48403   0.21870  -1.18843  -0.15437
  16   43955.2    227.5   0.062348324   0.46697   0.64271   0.17505   0.15246
  17   43596.4    229.4   0.036016300   0.27197  -0.41718  -0.07833  -0.30298
  18   43231.8    231.3   0.092834917   0.70694   0.32601  -0.74168  -0.22487
  19   44191.7    226.3   0.145890557   1.08683   0.92484  -0.46470  -0.12474
  20   43870.1    227.9   0.042469379   0.31870  -0.31901   0.38815   0.25744
  21   45068.1    221.9   0.000538018   0.00393   0.03034  -0.01609   0.05245
  22   44937.3    222.5   0.047457454   0.34767  -0.04553   0.53720   0.23879
  23   45111.3    221.7   0.035380392   0.25820   0.06569   0.02279   0.50335
  24   45970.0    217.5   0.012943686   0.09270  -0.05820   0.29821  -0.01941
  25   47253.3    211.6   0.149060888   1.03850   0.10033   0.77554  -0.65343
  26   48294.4    207.1   0.315436967   2.15026   0.82856  -1.13202   0.42695
  27   47500.8    210.5   0.031802531   0.22041  -0.43998   0.03347  -0.16035
  28   47568.4    210.2   0.062444726   0.43217   0.62232  -0.07198   0.19927
  29   43186.3    231.6   0.052927574   0.40347   0.52288   0.35830   0.04112
  30   46894.2    213.2   0.119586821   0.83954   0.80757   0.42701   0.07090

-----------------------------------------------------------------------------
         ABSORPTION SPECTRUM VIA TRANSITION VELOCITY DIPOLE MOMENTS
-----------------------------------------------------------------------------
State   Energy    Wavelength   fosc        P2         PX        PY        PZ  
        (cm-1)      (nm)                 (au**2)     (au)      (au)      (au) 
-----------------------------------------------------------------------------
   1   21507.7    464.9   1.223274494   0.17981  -0.28186   0.31665   0.01031
   2   30374.7    329.2   0.184659105   0.03833   0.18571   0.06024   0.01473
   3   32437.0    308.3   0.052781578   0.01170  -0.10514   0.01969  -0.01611
   4   34480.3    290.0   0.086087538   0.02029   0.09226   0.10835  -0.00602
   5   36082.2    277.1   0.787524573   0.19421  -0.36904  -0.24039  -0.01517
   6   35428.7    282.3   0.195424524   0.04732   0.17322   0.13091   0.01329
   7   35182.8    284.2   0.021844075   0.00525  -0.06113  -0.03887   0.00207
   8   39504.9    253.1   0.179280143   0.04840  -0.14502   0.16492   0.01325
   9   38997.1    256.4   0.046290788   0.01234  -0.04169  -0.09485   0.04002
  10   39517.6    253.1   0.137168508   0.03705  -0.12489  -0.13483  -0.05719
  11   40565.7    246.5   0.010079201   0.00279  -0.04569  -0.02629   0.00396
  12   40976.5    244.0   0.005102897   0.00143   0.02413  -0.01660   0.02391
  13   41065.7    243.5   0.010835702   0.00304   0.04391  -0.03129   0.01160
  14   41488.4    241.0   0.213029167   0.06041  -0.24572   0.00063  -0.00488
  15   41265.0    242.3   0.219571469   0.06192  -0.04487   0.24262   0.03236
  16   43955.2    227.5   0.069318639   0.02082  -0.13574  -0.03717  -0.03188
  17   43596.4    229.4   0.042098459   0.01254   0.08980   0.01754   0.06459
  18   43231.8    231.3   0.113764383   0.03361  -0.07008   0.16269   0.04725
  19   44191.7    226.3   0.171482511   0.05179  -0.20191   0.10124   0.02788
  20   43870.1    227.9   0.052072132   0.01561   0.07057  -0.08509  -0.05825
  21   45068.1    221.9   0.000715694   0.00022  -0.00850   0.00275  -0.01186
  22   44937.3    222.5   0.059668584   0.01833   0.00776  -0.12448  -0.05263
  23   45111.3    221.7   0.042764325   0.01318  -0.01141  -0.00357  -0.11420
  24   45970.0    217.5   0.015773375   0.00496   0.01379  -0.06891   0.00408
  25   47253.3    211.6   0.177660474   0.05738  -0.02258  -0.17906   0.15749
  26   48294.4    207.1   0.349465941   0.11535  -0.19220   0.26073  -0.10211
  27   47500.8    210.5   0.036803533   0.01195   0.10177  -0.00766   0.03913
  28   47568.4    210.2   0.071621948   0.02328  -0.14379   0.01583  -0.04857
  29   43186.3    231.6   0.077300450   0.02282  -0.12427  -0.08523  -0.01036
  30   46894.2    213.2   0.146969604   0.04710  -0.19170  -0.10000  -0.01882

-------------------------------------------------------------------
                             CD SPECTRUM
-------------------------------------------------------------------
State  Energy     Wavelength     R         MX        MY        MZ   
       (cm-1)       (nm)     (1e40*cgs)   (au)      (au)      (au)  
-------------------------------------------------------------------
   1   21507.7    464.9    -109.43412  -0.13184  -0.06227   0.81482
   2   30374.7    329.2      8.62480  -0.02193   0.01955   0.00586
   3   32437.0    308.3    -26.39782  -0.05591  -0.02737  -0.24853
   4   34480.3    290.0     -5.04049  -0.02276   0.01898  -0.31099
   5   36082.2    277.1    329.41987   0.33879  -0.03004   0.60699
   6   35428.7    282.3    -98.44246   0.10973   0.16685  -0.18052
   7   35182.8    284.2      1.29523  -0.16027   0.26871   0.07591
   8   39504.9    253.1     -5.12010  -0.10168  -0.12541   0.60778
   9   38997.1    256.4    -103.14591   0.22380  -0.28231   0.62933
  10   39517.6    253.1     98.68344  -0.17496   0.25163   0.50789
  11   40565.7    246.5    -15.57712  -0.11038  -0.10376  -0.37328
  12   40976.5    244.0     -0.38698  -0.08731   0.20174   0.25866
  13   41065.7    243.5     17.42780  -0.13577   0.10172   0.17279
  14   41488.4    241.0    -29.23769  -0.06125   0.07692   0.56292
  15   41265.0    242.3     67.90346   0.03582  -0.08299  -0.24339
  16   43955.2    227.5    -46.11871  -0.02877   0.07484  -0.60629
  17   43596.4    229.4    -97.22899   0.29042  -0.01235   0.28399
  18   43231.8    231.3    -77.93283  -0.32089   0.09096  -0.03013
  19   44191.7    226.3      5.54453   0.09134   0.03100   0.46746
  20   43870.1    227.9     -1.90264  -0.15421   0.15774  -0.44460
  21   45068.1    221.9      1.30546  -0.20593   0.13631   0.21375
  22   44937.3    222.5    -64.73238  -0.35693  -0.00991  -0.62077
  23   45111.3    221.7     -2.02055  -0.07704   0.45211  -0.01893
  24   45970.0    217.5    -14.79678  -0.35458  -0.19146  -0.26146
  25   47253.3    211.6      8.88025  -0.41852   0.45173   0.44307
  26   48294.4    207.1    244.31017   0.08854   0.01200   1.07374
  27   47500.8    210.5      3.02284   0.00557  -0.03576  -0.06274
  28   47568.4    210.2    -60.34806   0.22723  -1.14832  -1.76676
  29   43186.3    231.6     60.81782   0.26152  -0.04279   0.18458
  30   46894.2    213.2    105.48625   0.20628   0.11514   0.11279

Total run time:    23127.318 sec

           *** ORCA-CIS/TD-DFT FINISHED WITHOUT ERROR ***

Maximum memory used throughout the entire CIS-calculation: 4226.9 MB

-----------------------
CIS/TD-DFT TOTAL ENERGY
-----------------------

    E(SCF)  =  -1832.818919972 Eh
    DE(CIS) =      0.097996441 Eh (Root  1)
    ----------------------------- ---------
    E(tot)  =  -1832.720923531 Eh


-------------------------   --------------------
FINAL SINGLE POINT ENERGY     -1832.720923531048
-------------------------   --------------------


                            ***************************************
                            *     ORCA property calculations      *
                            ***************************************


  WARNING: The energy has been calculated at the MP2 level but the densities
           used in the property calculations are still SCF densities
           MP2 response densities have not been calculated 
           use %mp2 Density relaxed end
           or  %mp2 Density unrelaxed end

                                    ---------------------
                                    Active property flags
                                    ---------------------
   (+) Dipole Moment


------------------------------------------------------------------------------
                       ORCA ELECTRIC PROPERTIES CALCULATION
------------------------------------------------------------------------------

Dipole Moment Calculation                       ... on
Quadrupole Moment Calculation                   ... off
Polarizability Calculation                      ... off
GBWName                                         ... Eos_1_M06L_def2TZVP_coords.gbw
Electron density                                ... Eos_1_M06L_def2TZVP_coords.scfp
The origin for moment calculation is the CENTER OF MASS  = (-0.002674, -0.029096  0.020538)

-------------
DIPOLE MOMENT
-------------
                                X             Y             Z
Electronic contribution:     -0.23895      -7.24503       1.43576
Nuclear contribution   :      0.77540       8.43793      -5.95590
                        -----------------------------------------
Total Dipole Moment    :      0.53645       1.19290      -4.52014
                        -----------------------------------------
Magnitude (a.u.)       :      4.70558
Magnitude (Debye)      :     11.96063



--------------------
Rotational spectrum 
--------------------
 
Rotational constants in cm-1:     0.003689     0.002324     0.001549 
Rotational constants in MHz :   110.604063    69.659728    46.447533 

 Dipole components along the rotational axes: 
x,y,z [a.u.] :     0.537534    -1.205650    -4.516627 
x,y,z [Debye]:     1.366302    -3.064519   -11.480353 

 

Timings for individual modules:

Sum of individual times         ...    26106.685 sec (= 435.111 min)
GTO integral calculation        ...       14.374 sec (=   0.240 min)   0.1 %
SCF iterations                  ...      991.649 sec (=  16.527 min)   3.8 %
MP2 module                      ...     1967.500 sec (=  32.792 min)   7.5 %
CIS module                      ...    23133.161 sec (= 385.553 min)  88.6 %
                             ****ORCA TERMINATED NORMALLY****
TOTAL RUN TIME: 0 days 7 hours 15 minutes 20 seconds 72 msec
