 Entering Gaussian System, Link 0=g09
 Input=/home/png4rjv/fotokatalizis/benchmark/OPCs/Eos_1_B3LYP-D3_def2TZVP.gjf
 Output=/home/png4rjv/fotokatalizis/benchmark/OPCs/Eos_1_B3LYP-D3_def2TZVP.log
 Initial command:
 /opt/nce/packages/global/g09/l1.exe "/home/png4rjv/fotokatalizis/benchmark/OPCs/Eos_1_B3LYP-D3_def2TZVP/Gau-33791.inp" -scrdir="/home/png4rjv/fotokatalizis/benchmark/OPCs/Eos_1_B3LYP-D3_def2TZVP/"
 Default is to use a total of  12 processors:
                               12 via shared-memory
                                1 via Linda
 Entering Link 1 = /opt/nce/packages/global/g09/l1.exe PID=     33792.
  
 Copyright (c) 1988,1990,1992,1993,1995,1998,2003,2009,2015,
            Gaussian, Inc.  All Rights Reserved.
  
 This is part of the Gaussian(R) 09 program.  It is based on
 the Gaussian(R) 03 system (copyright 2003, Gaussian, Inc.),
 the Gaussian(R) 98 system (copyright 1998, Gaussian, Inc.),
 the Gaussian(R) 94 system (copyright 1995, Gaussian, Inc.),
 the Gaussian 92(TM) system (copyright 1992, Gaussian, Inc.),
 the Gaussian 90(TM) system (copyright 1990, Gaussian, Inc.),
 the Gaussian 88(TM) system (copyright 1988, Gaussian, Inc.),
 the Gaussian 86(TM) system (copyright 1986, Carnegie Mellon
 University), and the Gaussian 82(TM) system (copyright 1983,
 Carnegie Mellon University). Gaussian is a federally registered
 trademark of Gaussian, Inc.
  
 This software contains proprietary and confidential information,
 including trade secrets, belonging to Gaussian, Inc.
  
 This software is provided under written license and may be
 used, copied, transmitted, or stored only in accord with that
 written license.
  
 The following legend is applicable only to US Government
 contracts under FAR:
  
                    RESTRICTED RIGHTS LEGEND
  
 Use, reproduction and disclosure by the US Government is
 subject to restrictions as set forth in subparagraphs (a)
 and (c) of the Commercial Computer Software - Restricted
 Rights clause in FAR 52.227-19.
  
 Gaussian, Inc.
 340 Quinnipiac St., Bldg. 40, Wallingford CT 06492
  
  
 ---------------------------------------------------------------
 Warning -- This program may not be used in any manner that
 competes with the business of Gaussian, Inc. or will provide
 assistance to any competitor of Gaussian, Inc.  The licensee
 of this program is prohibited from giving any competitor of
 Gaussian, Inc. access to this program.  By using this program,
 the user acknowledges that Gaussian, Inc. is engaged in the
 business of creating and licensing software in the field of
 computational chemistry and represents and warrants to the
 licensee that it is not a competitor of Gaussian, Inc. and that
 it will not use this program in any manner prohibited above.
 ---------------------------------------------------------------
  

 Cite this work as:
 Gaussian 09, Revision E.01,
 M. J. Frisch, G. W. Trucks, H. B. Schlegel, G. E. Scuseria, 
 M. A. Robb, J. R. Cheeseman, G. Scalmani, V. Barone, B. Mennucci, 
 G. A. Petersson, H. Nakatsuji, M. Caricato, X. Li, H. P. Hratchian, 
 A. F. Izmaylov, J. Bloino, G. Zheng, J. L. Sonnenberg, M. Hada, 
 M. Ehara, K. Toyota, R. Fukuda, J. Hasegawa, M. Ishida, T. Nakajima, 
 Y. Honda, O. Kitao, H. Nakai, T. Vreven, J. A. Montgomery, Jr., 
 J. E. Peralta, F. Ogliaro, M. Bearpark, J. J. Heyd, E. Brothers, 
 K. N. Kudin, V. N. Staroverov, T. Keith, R. Kobayashi, J. Normand, 
 K. Raghavachari, A. Rendell, J. C. Burant, S. S. Iyengar, J. Tomasi, 
 M. Cossi, N. Rega, J. M. Millam, M. Klene, J. E. Knox, J. B. Cross, 
 V. Bakken, C. Adamo, J. Jaramillo, R. Gomperts, R. E. Stratmann, 
 O. Yazyev, A. J. Austin, R. Cammi, C. Pomelli, J. W. Ochterski, 
 R. L. Martin, K. Morokuma, V. G. Zakrzewski, G. A. Voth, 
 P. Salvador, J. J. Dannenberg, S. Dapprich, A. D. Daniels, 
 O. Farkas, J. B. Foresman, J. V. Ortiz, J. Cioslowski, 
 and D. J. Fox, Gaussian, Inc., Wallingford CT, 2013.
 
 ******************************************
 Gaussian 09:  ES64L-G09RevE.01 30-Nov-2015
                31-Jan-2022 
 ******************************************
 %chk=cp.chk
 Default route:  MaxDisk=500GB
 ----------------------------------------------------------------------
 #p b3lyp/def2TZVP opt freq=noraman nosymm int=ultrafine scrf=(SMD,solv
 ent=Acetonitrile) EmpiricalDispersion=GD3BJ
 ----------------------------------------------------------------------
 1/14=-1,18=20,19=15,26=4,38=1/1,3;
 2/9=110,12=2,15=1,17=6,18=5,40=1/2;
 3/5=44,7=101,11=2,16=1,25=1,30=1,70=32201,71=1,72=2,74=-5,75=-5,124=41/1,2,3;
 4//1;
 5/5=2,38=5,53=2/2;
 6/7=2,8=2,9=2,10=2,28=1/1;
 7/30=1/1,2,3,16;
 1/14=-1,18=20,19=15,26=4/3(2);
 2/9=110,15=1/2;
 99//99;
 2/9=110,15=1/2;
 3/5=44,7=101,11=2,16=1,25=1,30=1,70=32205,71=1,72=2,74=-5,75=-5,124=41/1,2,3;
 4/5=5,16=3,69=1/1;
 5/5=2,38=5,53=2/2;
 7/30=1/1,2,3,16;
 1/14=-1,18=20,19=15,26=4/3(-5);
 2/9=110,15=1/2;
 6/7=2,8=2,9=2,10=2,19=2,28=1/1;
 99/9=1/99;
 Leave Link    1 at Mon Jan 31 18:58:40 2022, MaxMem=           0 cpu:         1.0
 (Enter /opt/nce/packages/global/g09/l101.exe)
 -----
 Title
 -----
 Symbolic Z-matrix:
 Charge = -2 Multiplicity = 1
 C                    -5.06141  -2.31805   1.46291 
 C                    -3.67091  -2.00625   1.18343 
 C                    -3.38623  -0.97861   0.28814 
 C                    -4.38644  -0.22882  -0.39188 
 C                    -5.74206  -0.55494  -0.1197 
 C                    -6.06537  -1.54464   0.76617 
 C                    -4.00358   0.80796  -1.26348 
 C                    -2.63424   1.05068  -1.48694 
 C                    -1.66597   0.29696  -0.76956 
 C                    -0.29848   0.48511  -0.92287 
 C                     0.18486   1.4914   -1.8538 
 C                    -0.81713   2.26841  -2.59393 
 C                    -2.158     2.02853  -2.39061 
 H                    -6.52891   0.02117  -0.63713 
 H                    -7.118    -1.79736   0.98195 
 H                    -2.90984   2.60065  -2.9631 
 O                    -2.067    -0.68274   0.09245 
 O                     1.42527   1.71065  -1.9965 
 O                    -5.40302  -3.24347   2.26979 
 C                    -5.02397   1.48645  -2.1032 
 C                    -5.36435   0.88564  -3.32344 
 C                    -5.64959   2.68745  -1.73084 
 C                    -6.31255   1.46738  -4.16453 
 H                    -4.87039  -0.05782  -3.61385 
 C                    -6.59977   3.261    -2.58184 
 C                    -6.93499   2.66165  -3.79297 
 H                    -6.56716   0.98064  -5.12079 
 H                    -7.06847   4.20308  -2.24922 
 H                    -7.68638   3.12496  -4.45424 
 C                    -5.30856   3.36076  -0.4184 
 O                    -5.90723   4.44329  -0.14123 
 O                    -4.44538   2.77764   0.30149 
 C                    -2.6015   -2.78042   1.84217 
 C                    -2.65819  -3.03167   3.2242 
 C                    -1.5173   -3.30154   1.1169 
 C                    -1.65628  -3.76494   3.85957 
 H                    -3.5099   -2.63752   3.80173 
 C                    -0.51934  -4.0398    1.75026 
 H                    -1.45309  -3.11438   0.03237 
 C                    -0.58224  -4.27418   3.12502 
 H                    -1.71582  -3.94289   4.94708 
 H                     0.32894  -4.42671   1.16077 
 H                     0.21008  -4.8543    3.62773 
 C                     0.6796   -0.31384  -0.15908 
 C                     0.55811  -0.49827   1.22742 
 C                     1.77089  -0.90799  -0.81581 
 C                     1.48942  -1.25778   1.93392 
 H                    -0.29317  -0.04308   1.76006 
 C                     2.69869  -1.67422  -0.11124 
 H                     1.88258  -0.75722  -1.90168 
 C                     2.56336  -1.85104   1.2685 
 H                     1.36522  -1.39964   3.02079 
 H                     3.54327  -2.13964  -0.64789 
 H                     3.29742  -2.45731   1.82587 
 C                    -0.39674   3.31842  -3.53776 
 C                    -1.15752   4.49405  -3.67416 
 C                     0.74505   3.17328  -4.34776 
 C                    -0.80436   5.48093  -4.59273 
 H                    -2.0374    4.6429   -3.02398 
 C                     1.09627   4.15937  -5.26896 
 H                     1.35597   2.26421  -4.23829 
 C                     0.32634   5.31821  -5.39683 
 H                    -1.41486   6.39618  -4.67389 
 H                     1.99012   4.02023  -5.90089 
 H                     0.61126   6.09954  -6.12126 
 
 NAtoms=     65 NQM=       65 NQMF=       0 NMMI=      0 NMMIF=      0
                NMic=       0 NMicF=      0.
                    Isotopes and Nuclear Properties:
 (Nuclear quadrupole moments (NQMom) in fm**2, nuclear magnetic moments (NMagM)
  in nuclear magnetons)

  Atom         1           2           3           4           5           6           7           8           9          10
 IAtWgt=          12          12          12          12          12          12          12          12          12          12
 AtmWgt=  12.0000000  12.0000000  12.0000000  12.0000000  12.0000000  12.0000000  12.0000000  12.0000000  12.0000000  12.0000000
 NucSpn=           0           0           0           0           0           0           0           0           0           0
 AtZEff=   0.0000000   0.0000000   0.0000000   0.0000000   0.0000000   0.0000000   0.0000000   0.0000000   0.0000000   0.0000000
 NQMom=    0.0000000   0.0000000   0.0000000   0.0000000   0.0000000   0.0000000   0.0000000   0.0000000   0.0000000   0.0000000
 NMagM=    0.0000000   0.0000000   0.0000000   0.0000000   0.0000000   0.0000000   0.0000000   0.0000000   0.0000000   0.0000000
 AtZNuc=   6.0000000   6.0000000   6.0000000   6.0000000   6.0000000   6.0000000   6.0000000   6.0000000   6.0000000   6.0000000

  Atom        11          12          13          14          15          16          17          18          19          20
 IAtWgt=          12          12          12           1           1           1          16          16          16          12
 AtmWgt=  12.0000000  12.0000000  12.0000000   1.0078250   1.0078250   1.0078250  15.9949146  15.9949146  15.9949146  12.0000000
 NucSpn=           0           0           0           1           1           1           0           0           0           0
 AtZEff=   0.0000000   0.0000000   0.0000000   0.0000000   0.0000000   0.0000000   0.0000000   0.0000000   0.0000000   0.0000000
 NQMom=    0.0000000   0.0000000   0.0000000   0.0000000   0.0000000   0.0000000   0.0000000   0.0000000   0.0000000   0.0000000
 NMagM=    0.0000000   0.0000000   0.0000000   2.7928460   2.7928460   2.7928460   0.0000000   0.0000000   0.0000000   0.0000000
 AtZNuc=   6.0000000   6.0000000   6.0000000   1.0000000   1.0000000   1.0000000   8.0000000   8.0000000   8.0000000   6.0000000

  Atom        21          22          23          24          25          26          27          28          29          30
 IAtWgt=          12          12          12           1          12          12           1           1           1          12
 AtmWgt=  12.0000000  12.0000000  12.0000000   1.0078250  12.0000000  12.0000000   1.0078250   1.0078250   1.0078250  12.0000000
 NucSpn=           0           0           0           1           0           0           1           1           1           0
 AtZEff=   0.0000000   0.0000000   0.0000000   0.0000000   0.0000000   0.0000000   0.0000000   0.0000000   0.0000000   0.0000000
 NQMom=    0.0000000   0.0000000   0.0000000   0.0000000   0.0000000   0.0000000   0.0000000   0.0000000   0.0000000   0.0000000
 NMagM=    0.0000000   0.0000000   0.0000000   2.7928460   0.0000000   0.0000000   2.7928460   2.7928460   2.7928460   0.0000000
 AtZNuc=   6.0000000   6.0000000   6.0000000   1.0000000   6.0000000   6.0000000   1.0000000   1.0000000   1.0000000   6.0000000

  Atom        31          32          33          34          35          36          37          38          39          40
 IAtWgt=          16          16          12          12          12          12           1          12           1          12
 AtmWgt=  15.9949146  15.9949146  12.0000000  12.0000000  12.0000000  12.0000000   1.0078250  12.0000000   1.0078250  12.0000000
 NucSpn=           0           0           0           0           0           0           1           0           1           0
 AtZEff=   0.0000000   0.0000000   0.0000000   0.0000000   0.0000000   0.0000000   0.0000000   0.0000000   0.0000000   0.0000000
 NQMom=    0.0000000   0.0000000   0.0000000   0.0000000   0.0000000   0.0000000   0.0000000   0.0000000   0.0000000   0.0000000
 NMagM=    0.0000000   0.0000000   0.0000000   0.0000000   0.0000000   0.0000000   2.7928460   0.0000000   2.7928460   0.0000000
 AtZNuc=   8.0000000   8.0000000   6.0000000   6.0000000   6.0000000   6.0000000   1.0000000   6.0000000   1.0000000   6.0000000

  Atom        41          42          43          44          45          46          47          48          49          50
 IAtWgt=           1           1           1          12          12          12          12           1          12           1
 AtmWgt=   1.0078250   1.0078250   1.0078250  12.0000000  12.0000000  12.0000000  12.0000000   1.0078250  12.0000000   1.0078250
 NucSpn=           1           1           1           0           0           0           0           1           0           1
 AtZEff=   0.0000000   0.0000000   0.0000000   0.0000000   0.0000000   0.0000000   0.0000000   0.0000000   0.0000000   0.0000000
 NQMom=    0.0000000   0.0000000   0.0000000   0.0000000   0.0000000   0.0000000   0.0000000   0.0000000   0.0000000   0.0000000
 NMagM=    2.7928460   2.7928460   2.7928460   0.0000000   0.0000000   0.0000000   0.0000000   2.7928460   0.0000000   2.7928460
 AtZNuc=   1.0000000   1.0000000   1.0000000   6.0000000   6.0000000   6.0000000   6.0000000   1.0000000   6.0000000   1.0000000

  Atom        51          52          53          54          55          56          57          58          59          60
 IAtWgt=          12           1           1           1          12          12          12          12           1          12
 AtmWgt=  12.0000000   1.0078250   1.0078250   1.0078250  12.0000000  12.0000000  12.0000000  12.0000000   1.0078250  12.0000000
 NucSpn=           0           1           1           1           0           0           0           0           1           0
 AtZEff=   0.0000000   0.0000000   0.0000000   0.0000000   0.0000000   0.0000000   0.0000000   0.0000000   0.0000000   0.0000000
 NQMom=    0.0000000   0.0000000   0.0000000   0.0000000   0.0000000   0.0000000   0.0000000   0.0000000   0.0000000   0.0000000
 NMagM=    0.0000000   2.7928460   2.7928460   2.7928460   0.0000000   0.0000000   0.0000000   0.0000000   2.7928460   0.0000000
 AtZNuc=   6.0000000   1.0000000   1.0000000   1.0000000   6.0000000   6.0000000   6.0000000   6.0000000   1.0000000   6.0000000

  Atom        61          62          63          64          65
 IAtWgt=           1          12           1           1           1
 AtmWgt=   1.0078250  12.0000000   1.0078250   1.0078250   1.0078250
 NucSpn=           1           0           1           1           1
 AtZEff=   0.0000000   0.0000000   0.0000000   0.0000000   0.0000000
 NQMom=    0.0000000   0.0000000   0.0000000   0.0000000   0.0000000
 NMagM=    2.7928460   0.0000000   2.7928460   2.7928460   2.7928460
 AtZNuc=   1.0000000   6.0000000   1.0000000   1.0000000   1.0000000
 Leave Link  101 at Mon Jan 31 18:58:40 2022, MaxMem=  5242880000 cpu:         4.4
 (Enter /opt/nce/packages/global/g09/l103.exe)

 GradGradGradGradGradGradGradGradGradGradGradGradGradGradGradGradGradGrad
 Berny optimization.
 Initialization pass.
                           ----------------------------
                           !    Initial Parameters    !
                           ! (Angstroms and Degrees)  !
 --------------------------                            --------------------------
 ! Name  Definition              Value          Derivative Info.                !
 --------------------------------------------------------------------------------
 ! R1    R(1,2)                  1.4522         estimate D2E/DX2                !
 ! R2    R(1,6)                  1.4462         estimate D2E/DX2                !
 ! R3    R(1,19)                 1.2744         estimate D2E/DX2                !
 ! R4    R(2,3)                  1.3924         estimate D2E/DX2                !
 ! R5    R(2,33)                 1.4754         estimate D2E/DX2                !
 ! R6    R(3,4)                  1.423          estimate D2E/DX2                !
 ! R7    R(3,17)                 1.3661         estimate D2E/DX2                !
 ! R8    R(4,5)                  1.4206         estimate D2E/DX2                !
 ! R9    R(4,7)                  1.4075         estimate D2E/DX2                !
 ! R10   R(5,6)                  1.367          estimate D2E/DX2                !
 ! R11   R(5,14)                 1.104          estimate D2E/DX2                !
 ! R12   R(6,15)                 1.1038         estimate D2E/DX2                !
 ! R13   R(7,8)                  1.4085         estimate D2E/DX2                !
 ! R14   R(7,20)                 1.4855         estimate D2E/DX2                !
 ! R15   R(8,9)                  1.4214         estimate D2E/DX2                !
 ! R16   R(8,13)                 1.4141         estimate D2E/DX2                !
 ! R17   R(9,10)                 1.3889         estimate D2E/DX2                !
 ! R18   R(9,17)                 1.3652         estimate D2E/DX2                !
 ! R19   R(10,11)                1.4536         estimate D2E/DX2                !
 ! R20   R(10,44)                1.4759         estimate D2E/DX2                !
 ! R21   R(11,12)                1.4682         estimate D2E/DX2                !
 ! R22   R(11,18)                1.2677         estimate D2E/DX2                !
 ! R23   R(12,13)                1.3772         estimate D2E/DX2                !
 ! R24   R(12,55)                1.4731         estimate D2E/DX2                !
 ! R25   R(13,16)                1.1047         estimate D2E/DX2                !
 ! R26   R(20,21)                1.4021         estimate D2E/DX2                !
 ! R27   R(20,22)                1.4044         estimate D2E/DX2                !
 ! R28   R(21,23)                1.3946         estimate D2E/DX2                !
 ! R29   R(21,24)                1.1038         estimate D2E/DX2                !
 ! R30   R(22,25)                1.3986         estimate D2E/DX2                !
 ! R31   R(22,30)                1.514          estimate D2E/DX2                !
 ! R32   R(23,26)                1.3971         estimate D2E/DX2                !
 ! R33   R(23,27)                1.1028         estimate D2E/DX2                !
 ! R34   R(25,26)                1.3923         estimate D2E/DX2                !
 ! R35   R(25,28)                1.1036         estimate D2E/DX2                !
 ! R36   R(26,29)                1.103          estimate D2E/DX2                !
 ! R37   R(30,31)                1.2677         estimate D2E/DX2                !
 ! R38   R(30,32)                1.2662         estimate D2E/DX2                !
 ! R39   R(33,34)                1.4058         estimate D2E/DX2                !
 ! R40   R(33,35)                1.4047         estimate D2E/DX2                !
 ! R41   R(34,36)                1.3947         estimate D2E/DX2                !
 ! R42   R(34,37)                1.1019         estimate D2E/DX2                !
 ! R43   R(35,38)                1.3936         estimate D2E/DX2                !
 ! R44   R(35,39)                1.1024         estimate D2E/DX2                !
 ! R45   R(36,40)                1.3973         estimate D2E/DX2                !
 ! R46   R(36,41)                1.1036         estimate D2E/DX2                !
 ! R47   R(38,40)                1.396          estimate D2E/DX2                !
 ! R48   R(38,42)                1.1031         estimate D2E/DX2                !
 ! R49   R(40,43)                1.1032         estimate D2E/DX2                !
 ! R50   R(44,45)                1.404          estimate D2E/DX2                !
 ! R51   R(44,46)                1.4054         estimate D2E/DX2                !
 ! R52   R(45,47)                1.394          estimate D2E/DX2                !
 ! R53   R(45,48)                1.1025         estimate D2E/DX2                !
 ! R54   R(46,49)                1.3944         estimate D2E/DX2                !
 ! R55   R(46,50)                1.102          estimate D2E/DX2                !
 ! R56   R(47,51)                1.3957         estimate D2E/DX2                !
 ! R57   R(47,52)                1.1031         estimate D2E/DX2                !
 ! R58   R(49,51)                1.3976         estimate D2E/DX2                !
 ! R59   R(49,53)                1.1036         estimate D2E/DX2                !
 ! R60   R(51,54)                1.1032         estimate D2E/DX2                !
 ! R61   R(55,56)                1.4069         estimate D2E/DX2                !
 ! R62   R(55,57)                1.4074         estimate D2E/DX2                !
 ! R63   R(56,58)                1.3937         estimate D2E/DX2                !
 ! R64   R(56,59)                1.1041         estimate D2E/DX2                !
 ! R65   R(57,60)                1.3944         estimate D2E/DX2                !
 ! R66   R(57,61)                1.1007         estimate D2E/DX2                !
 ! R67   R(58,62)                1.397          estimate D2E/DX2                !
 ! R68   R(58,63)                1.1032         estimate D2E/DX2                !
 ! R69   R(60,62)                1.3972         estimate D2E/DX2                !
 ! R70   R(60,64)                1.1035         estimate D2E/DX2                !
 ! R71   R(62,65)                1.1029         estimate D2E/DX2                !
 ! A1    A(2,1,6)              117.2048         estimate D2E/DX2                !
 ! A2    A(2,1,19)             122.3053         estimate D2E/DX2                !
 ! A3    A(6,1,19)             120.4821         estimate D2E/DX2                !
 ! A4    A(1,2,3)              118.5548         estimate D2E/DX2                !
 ! A5    A(1,2,33)             119.6988         estimate D2E/DX2                !
 ! A6    A(3,2,33)             121.7459         estimate D2E/DX2                !
 ! A7    A(2,3,4)              123.5346         estimate D2E/DX2                !
 ! A8    A(2,3,17)             116.7055         estimate D2E/DX2                !
 ! A9    A(4,3,17)             119.7488         estimate D2E/DX2                !
 ! A10   A(3,4,5)              117.271          estimate D2E/DX2                !
 ! A11   A(3,4,7)              119.5264         estimate D2E/DX2                !
 ! A12   A(5,4,7)              123.1822         estimate D2E/DX2                !
 ! A13   A(4,5,6)              121.0671         estimate D2E/DX2                !
 ! A14   A(4,5,14)             118.0687         estimate D2E/DX2                !
 ! A15   A(6,5,14)             120.8615         estimate D2E/DX2                !
 ! A16   A(1,6,5)              122.3562         estimate D2E/DX2                !
 ! A17   A(1,6,15)             116.4478         estimate D2E/DX2                !
 ! A18   A(5,6,15)             121.1953         estimate D2E/DX2                !
 ! A19   A(4,7,8)              119.3151         estimate D2E/DX2                !
 ! A20   A(4,7,20)             119.9753         estimate D2E/DX2                !
 ! A21   A(8,7,20)             119.9611         estimate D2E/DX2                !
 ! A22   A(7,8,9)              119.3945         estimate D2E/DX2                !
 ! A23   A(7,8,13)             123.2274         estimate D2E/DX2                !
 ! A24   A(9,8,13)             117.3749         estimate D2E/DX2                !
 ! A25   A(8,9,10)             122.9009         estimate D2E/DX2                !
 ! A26   A(8,9,17)             119.9423         estimate D2E/DX2                !
 ! A27   A(10,9,17)            117.1395         estimate D2E/DX2                !
 ! A28   A(9,10,11)            119.4646         estimate D2E/DX2                !
 ! A29   A(9,10,44)            121.4692         estimate D2E/DX2                !
 ! A30   A(11,10,44)           119.0661         estimate D2E/DX2                !
 ! A31   A(10,11,12)           117.5361         estimate D2E/DX2                !
 ! A32   A(10,11,18)           121.1442         estimate D2E/DX2                !
 ! A33   A(12,11,18)           121.2988         estimate D2E/DX2                !
 ! A34   A(11,12,13)           119.8577         estimate D2E/DX2                !
 ! A35   A(11,12,55)           120.3621         estimate D2E/DX2                !
 ! A36   A(13,12,55)           119.7731         estimate D2E/DX2                !
 ! A37   A(8,13,12)            122.8657         estimate D2E/DX2                !
 ! A38   A(8,13,16)            117.394          estimate D2E/DX2                !
 ! A39   A(12,13,16)           119.7293         estimate D2E/DX2                !
 ! A40   A(3,17,9)             121.9754         estimate D2E/DX2                !
 ! A41   A(7,20,21)            117.5812         estimate D2E/DX2                !
 ! A42   A(7,20,22)            123.1409         estimate D2E/DX2                !
 ! A43   A(21,20,22)           119.2778         estimate D2E/DX2                !
 ! A44   A(20,21,23)           120.743          estimate D2E/DX2                !
 ! A45   A(20,21,24)           119.1168         estimate D2E/DX2                !
 ! A46   A(23,21,24)           120.1402         estimate D2E/DX2                !
 ! A47   A(20,22,25)           119.4729         estimate D2E/DX2                !
 ! A48   A(20,22,30)           120.6504         estimate D2E/DX2                !
 ! A49   A(25,22,30)           119.8764         estimate D2E/DX2                !
 ! A50   A(21,23,26)           119.9416         estimate D2E/DX2                !
 ! A51   A(21,23,27)           119.7237         estimate D2E/DX2                !
 ! A52   A(26,23,27)           120.3347         estimate D2E/DX2                !
 ! A53   A(22,25,26)           121.0877         estimate D2E/DX2                !
 ! A54   A(22,25,28)           117.0808         estimate D2E/DX2                !
 ! A55   A(26,25,28)           121.8314         estimate D2E/DX2                !
 ! A56   A(23,26,25)           119.477          estimate D2E/DX2                !
 ! A57   A(23,26,29)           120.2096         estimate D2E/DX2                !
 ! A58   A(25,26,29)           120.3134         estimate D2E/DX2                !
 ! A59   A(22,30,31)           117.5758         estimate D2E/DX2                !
 ! A60   A(22,30,32)           116.2056         estimate D2E/DX2                !
 ! A61   A(31,30,32)           126.2185         estimate D2E/DX2                !
 ! A62   A(2,33,34)            120.2288         estimate D2E/DX2                !
 ! A63   A(2,33,35)            121.5735         estimate D2E/DX2                !
 ! A64   A(34,33,35)           118.1911         estimate D2E/DX2                !
 ! A65   A(33,34,36)           120.8528         estimate D2E/DX2                !
 ! A66   A(33,34,37)           118.8467         estimate D2E/DX2                !
 ! A67   A(36,34,37)           120.3005         estimate D2E/DX2                !
 ! A68   A(33,35,38)           120.971          estimate D2E/DX2                !
 ! A69   A(33,35,39)           119.3351         estimate D2E/DX2                !
 ! A70   A(38,35,39)           119.6916         estimate D2E/DX2                !
 ! A71   A(34,36,40)           120.2852         estimate D2E/DX2                !
 ! A72   A(34,36,41)           119.6659         estimate D2E/DX2                !
 ! A73   A(40,36,41)           120.0488         estimate D2E/DX2                !
 ! A74   A(35,38,40)           120.2809         estimate D2E/DX2                !
 ! A75   A(35,38,42)           119.5791         estimate D2E/DX2                !
 ! A76   A(40,38,42)           120.1347         estimate D2E/DX2                !
 ! A77   A(36,40,38)           119.4151         estimate D2E/DX2                !
 ! A78   A(36,40,43)           120.2747         estimate D2E/DX2                !
 ! A79   A(38,40,43)           120.31           estimate D2E/DX2                !
 ! A80   A(10,44,45)           121.6564         estimate D2E/DX2                !
 ! A81   A(10,44,46)           120.1057         estimate D2E/DX2                !
 ! A82   A(45,44,46)           118.2372         estimate D2E/DX2                !
 ! A83   A(44,45,47)           120.9475         estimate D2E/DX2                !
 ! A84   A(44,45,48)           119.3185         estimate D2E/DX2                !
 ! A85   A(47,45,48)           119.7309         estimate D2E/DX2                !
 ! A86   A(44,46,49)           120.8538         estimate D2E/DX2                !
 ! A87   A(44,46,50)           118.772          estimate D2E/DX2                !
 ! A88   A(49,46,50)           120.3742         estimate D2E/DX2                !
 ! A89   A(45,47,51)           120.2653         estimate D2E/DX2                !
 ! A90   A(45,47,52)           119.6166         estimate D2E/DX2                !
 ! A91   A(51,47,52)           120.1125         estimate D2E/DX2                !
 ! A92   A(46,49,51)           120.2599         estimate D2E/DX2                !
 ! A93   A(46,49,53)           119.6861         estimate D2E/DX2                !
 ! A94   A(51,49,53)           120.0539         estimate D2E/DX2                !
 ! A95   A(47,51,49)           119.432          estimate D2E/DX2                !
 ! A96   A(47,51,54)           120.3111         estimate D2E/DX2                !
 ! A97   A(49,51,54)           120.2566         estimate D2E/DX2                !
 ! A98   A(12,55,56)           120.2254         estimate D2E/DX2                !
 ! A99   A(12,55,57)           121.7858         estimate D2E/DX2                !
 ! A100  A(56,55,57)           117.9721         estimate D2E/DX2                !
 ! A101  A(55,56,58)           121.2356         estimate D2E/DX2                !
 ! A102  A(55,56,59)           119.1084         estimate D2E/DX2                !
 ! A103  A(58,56,59)           119.6428         estimate D2E/DX2                !
 ! A104  A(55,57,60)           120.7723         estimate D2E/DX2                !
 ! A105  A(55,57,61)           118.5665         estimate D2E/DX2                !
 ! A106  A(60,57,61)           120.6612         estimate D2E/DX2                !
 ! A107  A(56,58,62)           120.1314         estimate D2E/DX2                !
 ! A108  A(56,58,63)           119.7181         estimate D2E/DX2                !
 ! A109  A(62,58,63)           120.1468         estimate D2E/DX2                !
 ! A110  A(57,60,62)           120.5448         estimate D2E/DX2                !
 ! A111  A(57,60,64)           119.5504         estimate D2E/DX2                !
 ! A112  A(62,60,64)           119.9048         estimate D2E/DX2                !
 ! A113  A(58,62,60)           119.3385         estimate D2E/DX2                !
 ! A114  A(58,62,65)           120.3074         estimate D2E/DX2                !
 ! A115  A(60,62,65)           120.3532         estimate D2E/DX2                !
 ! D1    D(6,1,2,3)              1.0168         estimate D2E/DX2                !
 ! D2    D(6,1,2,33)          -178.7121         estimate D2E/DX2                !
 ! D3    D(19,1,2,3)          -179.9948         estimate D2E/DX2                !
 ! D4    D(19,1,2,33)            0.2762         estimate D2E/DX2                !
 ! D5    D(2,1,6,5)             -0.1644         estimate D2E/DX2                !
 ! D6    D(2,1,6,15)           179.5348         estimate D2E/DX2                !
 ! D7    D(19,1,6,5)          -179.1723         estimate D2E/DX2                !
 ! D8    D(19,1,6,15)            0.527          estimate D2E/DX2                !
 ! D9    D(1,2,3,4)             -1.2408         estimate D2E/DX2                !
 ! D10   D(1,2,3,17)           177.5369         estimate D2E/DX2                !
 ! D11   D(33,2,3,4)           178.4823         estimate D2E/DX2                !
 ! D12   D(33,2,3,17)           -2.74           estimate D2E/DX2                !
 ! D13   D(1,2,33,34)          -46.6067         estimate D2E/DX2                !
 ! D14   D(1,2,33,35)          132.4376         estimate D2E/DX2                !
 ! D15   D(3,2,33,34)          133.6733         estimate D2E/DX2                !
 ! D16   D(3,2,33,35)          -47.2824         estimate D2E/DX2                !
 ! D17   D(2,3,4,5)              0.5498         estimate D2E/DX2                !
 ! D18   D(2,3,4,7)            178.9613         estimate D2E/DX2                !
 ! D19   D(17,3,4,5)          -178.1925         estimate D2E/DX2                !
 ! D20   D(17,3,4,7)             0.219          estimate D2E/DX2                !
 ! D21   D(2,3,17,9)           179.4452         estimate D2E/DX2                !
 ! D22   D(4,3,17,9)            -1.7283         estimate D2E/DX2                !
 ! D23   D(3,4,5,6)              0.3624         estimate D2E/DX2                !
 ! D24   D(3,4,5,14)           179.7668         estimate D2E/DX2                !
 ! D25   D(7,4,5,6)           -177.986          estimate D2E/DX2                !
 ! D26   D(7,4,5,14)             1.4183         estimate D2E/DX2                !
 ! D27   D(3,4,7,8)              2.4533         estimate D2E/DX2                !
 ! D28   D(3,4,7,20)           172.541          estimate D2E/DX2                !
 ! D29   D(5,4,7,8)           -179.2337         estimate D2E/DX2                !
 ! D30   D(5,4,7,20)            -9.1461         estimate D2E/DX2                !
 ! D31   D(4,5,6,1)             -0.5355         estimate D2E/DX2                !
 ! D32   D(4,5,6,15)           179.7793         estimate D2E/DX2                !
 ! D33   D(14,5,6,1)          -179.9232         estimate D2E/DX2                !
 ! D34   D(14,5,6,15)            0.3916         estimate D2E/DX2                !
 ! D35   D(4,7,8,9)             -3.6476         estimate D2E/DX2                !
 ! D36   D(4,7,8,13)           177.0297         estimate D2E/DX2                !
 ! D37   D(20,7,8,9)          -173.7367         estimate D2E/DX2                !
 ! D38   D(20,7,8,13)            6.9406         estimate D2E/DX2                !
 ! D39   D(4,7,20,21)          -84.4635         estimate D2E/DX2                !
 ! D40   D(4,7,20,22)           95.6495         estimate D2E/DX2                !
 ! D41   D(8,7,20,21)           85.5597         estimate D2E/DX2                !
 ! D42   D(8,7,20,22)          -94.3272         estimate D2E/DX2                !
 ! D43   D(7,8,9,10)          -179.3384         estimate D2E/DX2                !
 ! D44   D(7,8,9,17)             2.2169         estimate D2E/DX2                !
 ! D45   D(13,8,9,10)            0.0236         estimate D2E/DX2                !
 ! D46   D(13,8,9,17)         -178.4211         estimate D2E/DX2                !
 ! D47   D(7,8,13,12)          179.3625         estimate D2E/DX2                !
 ! D48   D(7,8,13,16)           -1.8486         estimate D2E/DX2                !
 ! D49   D(9,8,13,12)            0.0271         estimate D2E/DX2                !
 ! D50   D(9,8,13,16)          178.8159         estimate D2E/DX2                !
 ! D51   D(8,9,10,11)           -0.0532         estimate D2E/DX2                !
 ! D52   D(8,9,10,44)          179.862          estimate D2E/DX2                !
 ! D53   D(17,9,10,11)         178.4324         estimate D2E/DX2                !
 ! D54   D(17,9,10,44)          -1.6524         estimate D2E/DX2                !
 ! D55   D(8,9,17,3)             0.5068         estimate D2E/DX2                !
 ! D56   D(10,9,17,3)         -178.0259         estimate D2E/DX2                !
 ! D57   D(9,10,11,12)           0.0335         estimate D2E/DX2                !
 ! D58   D(9,10,11,18)         178.3901         estimate D2E/DX2                !
 ! D59   D(44,10,11,12)       -179.8837         estimate D2E/DX2                !
 ! D60   D(44,10,11,18)         -1.5272         estimate D2E/DX2                !
 ! D61   D(9,10,44,45)         -47.98           estimate D2E/DX2                !
 ! D62   D(9,10,44,46)         132.3417         estimate D2E/DX2                !
 ! D63   D(11,10,44,45)        131.9355         estimate D2E/DX2                !
 ! D64   D(11,10,44,46)        -47.7428         estimate D2E/DX2                !
 ! D65   D(10,11,12,13)          0.0139         estimate D2E/DX2                !
 ! D66   D(10,11,12,55)        179.0488         estimate D2E/DX2                !
 ! D67   D(18,11,12,13)       -178.3399         estimate D2E/DX2                !
 ! D68   D(18,11,12,55)          0.6949         estimate D2E/DX2                !
 ! D69   D(11,12,13,8)          -0.045          estimate D2E/DX2                !
 ! D70   D(11,12,13,16)       -178.8066         estimate D2E/DX2                !
 ! D71   D(55,12,13,8)        -179.0855         estimate D2E/DX2                !
 ! D72   D(55,12,13,16)          2.1528         estimate D2E/DX2                !
 ! D73   D(11,12,55,56)       -144.3314         estimate D2E/DX2                !
 ! D74   D(11,12,55,57)         37.1801         estimate D2E/DX2                !
 ! D75   D(13,12,55,56)         34.7042         estimate D2E/DX2                !
 ! D76   D(13,12,55,57)       -143.7843         estimate D2E/DX2                !
 ! D77   D(7,20,21,23)        -179.8822         estimate D2E/DX2                !
 ! D78   D(7,20,21,24)           0.0581         estimate D2E/DX2                !
 ! D79   D(22,20,21,23)          0.0093         estimate D2E/DX2                !
 ! D80   D(22,20,21,24)        179.9496         estimate D2E/DX2                !
 ! D81   D(7,20,22,25)         179.9304         estimate D2E/DX2                !
 ! D82   D(7,20,22,30)          -0.2941         estimate D2E/DX2                !
 ! D83   D(21,20,22,25)          0.0452         estimate D2E/DX2                !
 ! D84   D(21,20,22,30)        179.8208         estimate D2E/DX2                !
 ! D85   D(20,21,23,26)         -0.0489         estimate D2E/DX2                !
 ! D86   D(20,21,23,27)        179.9682         estimate D2E/DX2                !
 ! D87   D(24,21,23,26)       -179.9887         estimate D2E/DX2                !
 ! D88   D(24,21,23,27)          0.0285         estimate D2E/DX2                !
 ! D89   D(20,22,25,26)         -0.0612         estimate D2E/DX2                !
 ! D90   D(20,22,25,28)        179.8469         estimate D2E/DX2                !
 ! D91   D(30,22,25,26)       -179.8386         estimate D2E/DX2                !
 ! D92   D(30,22,25,28)          0.0696         estimate D2E/DX2                !
 ! D93   D(20,22,30,31)        179.9312         estimate D2E/DX2                !
 ! D94   D(20,22,30,32)         -0.1861         estimate D2E/DX2                !
 ! D95   D(25,22,30,31)         -0.2941         estimate D2E/DX2                !
 ! D96   D(25,22,30,32)        179.5885         estimate D2E/DX2                !
 ! D97   D(21,23,26,25)          0.0334         estimate D2E/DX2                !
 ! D98   D(21,23,26,29)       -179.9287         estimate D2E/DX2                !
 ! D99   D(27,23,26,25)       -179.9839         estimate D2E/DX2                !
 ! D100  D(27,23,26,29)          0.0541         estimate D2E/DX2                !
 ! D101  D(22,25,26,23)          0.0218         estimate D2E/DX2                !
 ! D102  D(22,25,26,29)        179.9838         estimate D2E/DX2                !
 ! D103  D(28,25,26,23)       -179.8819         estimate D2E/DX2                !
 ! D104  D(28,25,26,29)          0.0801         estimate D2E/DX2                !
 ! D105  D(2,33,34,36)         179.8295         estimate D2E/DX2                !
 ! D106  D(2,33,34,37)          -0.2474         estimate D2E/DX2                !
 ! D107  D(35,33,34,36)          0.7533         estimate D2E/DX2                !
 ! D108  D(35,33,34,37)       -179.3235         estimate D2E/DX2                !
 ! D109  D(2,33,35,38)        -179.5033         estimate D2E/DX2                !
 ! D110  D(2,33,35,39)           1.0472         estimate D2E/DX2                !
 ! D111  D(34,33,35,38)         -0.4402         estimate D2E/DX2                !
 ! D112  D(34,33,35,39)       -179.8897         estimate D2E/DX2                !
 ! D113  D(33,34,36,40)         -0.6183         estimate D2E/DX2                !
 ! D114  D(33,34,36,41)        179.4561         estimate D2E/DX2                !
 ! D115  D(37,34,36,40)        179.4597         estimate D2E/DX2                !
 ! D116  D(37,34,36,41)         -0.4659         estimate D2E/DX2                !
 ! D117  D(33,35,38,40)         -0.011          estimate D2E/DX2                !
 ! D118  D(33,35,38,42)       -179.1757         estimate D2E/DX2                !
 ! D119  D(39,35,38,40)        179.4367         estimate D2E/DX2                !
 ! D120  D(39,35,38,42)          0.2719         estimate D2E/DX2                !
 ! D121  D(34,36,40,38)          0.1506         estimate D2E/DX2                !
 ! D122  D(34,36,40,43)       -179.9906         estimate D2E/DX2                !
 ! D123  D(41,36,40,38)       -179.9241         estimate D2E/DX2                !
 ! D124  D(41,36,40,43)         -0.0653         estimate D2E/DX2                !
 ! D125  D(35,38,40,36)          0.1613         estimate D2E/DX2                !
 ! D126  D(35,38,40,43)       -179.6975         estimate D2E/DX2                !
 ! D127  D(42,38,40,36)        179.3214         estimate D2E/DX2                !
 ! D128  D(42,38,40,43)         -0.5374         estimate D2E/DX2                !
 ! D129  D(10,44,45,47)        179.8914         estimate D2E/DX2                !
 ! D130  D(10,44,45,48)          0.5327         estimate D2E/DX2                !
 ! D131  D(46,44,45,47)         -0.4245         estimate D2E/DX2                !
 ! D132  D(46,44,45,48)       -179.7832         estimate D2E/DX2                !
 ! D133  D(10,44,46,49)       -179.5162         estimate D2E/DX2                !
 ! D134  D(10,44,46,50)          0.5326         estimate D2E/DX2                !
 ! D135  D(45,44,46,49)          0.7946         estimate D2E/DX2                !
 ! D136  D(45,44,46,50)       -179.1566         estimate D2E/DX2                !
 ! D137  D(44,45,47,51)         -0.0471         estimate D2E/DX2                !
 ! D138  D(44,45,47,52)       -179.1818         estimate D2E/DX2                !
 ! D139  D(48,45,47,51)        179.3089         estimate D2E/DX2                !
 ! D140  D(48,45,47,52)          0.1743         estimate D2E/DX2                !
 ! D141  D(44,46,49,51)         -0.6958         estimate D2E/DX2                !
 ! D142  D(44,46,49,53)        179.4393         estimate D2E/DX2                !
 ! D143  D(50,46,49,51)        179.2546         estimate D2E/DX2                !
 ! D144  D(50,46,49,53)         -0.6103         estimate D2E/DX2                !
 ! D145  D(45,47,51,49)          0.161          estimate D2E/DX2                !
 ! D146  D(45,47,51,54)       -179.6287         estimate D2E/DX2                !
 ! D147  D(52,47,51,49)        179.2914         estimate D2E/DX2                !
 ! D148  D(52,47,51,54)         -0.4984         estimate D2E/DX2                !
 ! D149  D(46,49,51,47)          0.2071         estimate D2E/DX2                !
 ! D150  D(46,49,51,54)        179.997          estimate D2E/DX2                !
 ! D151  D(53,49,51,47)       -179.9285         estimate D2E/DX2                !
 ! D152  D(53,49,51,54)         -0.1386         estimate D2E/DX2                !
 ! D153  D(12,55,56,58)       -177.8177         estimate D2E/DX2                !
 ! D154  D(12,55,56,59)          3.5126         estimate D2E/DX2                !
 ! D155  D(57,55,56,58)          0.7275         estimate D2E/DX2                !
 ! D156  D(57,55,56,59)       -177.9422         estimate D2E/DX2                !
 ! D157  D(12,55,57,60)        177.641          estimate D2E/DX2                !
 ! D158  D(12,55,57,61)         -2.3915         estimate D2E/DX2                !
 ! D159  D(56,55,57,60)         -0.8802         estimate D2E/DX2                !
 ! D160  D(56,55,57,61)        179.0873         estimate D2E/DX2                !
 ! D161  D(55,56,58,62)         -0.2753         estimate D2E/DX2                !
 ! D162  D(55,56,58,63)       -179.5733         estimate D2E/DX2                !
 ! D163  D(59,56,58,62)        178.3874         estimate D2E/DX2                !
 ! D164  D(59,56,58,63)         -0.9106         estimate D2E/DX2                !
 ! D165  D(55,57,60,62)          0.5876         estimate D2E/DX2                !
 ! D166  D(55,57,60,64)       -179.3976         estimate D2E/DX2                !
 ! D167  D(61,57,60,62)       -179.3792         estimate D2E/DX2                !
 ! D168  D(61,57,60,64)          0.6355         estimate D2E/DX2                !
 ! D169  D(56,58,62,60)         -0.0436         estimate D2E/DX2                !
 ! D170  D(56,58,62,65)       -179.7023         estimate D2E/DX2                !
 ! D171  D(63,58,62,60)        179.2514         estimate D2E/DX2                !
 ! D172  D(63,58,62,65)         -0.4073         estimate D2E/DX2                !
 ! D173  D(57,60,62,58)         -0.1121         estimate D2E/DX2                !
 ! D174  D(57,60,62,65)        179.5465         estimate D2E/DX2                !
 ! D175  D(64,60,62,58)        179.8731         estimate D2E/DX2                !
 ! D176  D(64,60,62,65)         -0.4684         estimate D2E/DX2                !
 --------------------------------------------------------------------------------
 Trust Radius=3.00D-01 FncErr=1.00D-07 GrdErr=1.00D-06
 Number of steps in this run=    372 maximum allowed number of steps=    390.
 GradGradGradGradGradGradGradGradGradGradGradGradGradGradGradGradGradGrad

 Leave Link  103 at Mon Jan 31 18:58:40 2022, MaxMem=  5242880000 cpu:         0.2
 (Enter /opt/nce/packages/global/g09/l202.exe)
 Symmetry turned off by external request.
 Stoichiometry    C38H22O5(2-)
 Framework group  C1[X(C38H22O5)]
 Deg. of freedom   189
 Full point group                 C1      NOp   1
                          Input orientation:                          
 ---------------------------------------------------------------------
 Center     Atomic      Atomic             Coordinates (Angstroms)
 Number     Number       Type             X           Y           Z
 ---------------------------------------------------------------------
      1          6           0       -5.061408   -2.318051    1.462909
      2          6           0       -3.670908   -2.006248    1.183434
      3          6           0       -3.386225   -0.978605    0.288135
      4          6           0       -4.386441   -0.228815   -0.391884
      5          6           0       -5.742060   -0.554941   -0.119698
      6          6           0       -6.065369   -1.544644    0.766168
      7          6           0       -4.003578    0.807963   -1.263481
      8          6           0       -2.634238    1.050683   -1.486942
      9          6           0       -1.665971    0.296957   -0.769559
     10          6           0       -0.298484    0.485109   -0.922870
     11          6           0        0.184858    1.491395   -1.853801
     12          6           0       -0.817130    2.268407   -2.593930
     13          6           0       -2.158001    2.028532   -2.390607
     14          1           0       -6.528908    0.021167   -0.637132
     15          1           0       -7.118004   -1.797363    0.981949
     16          1           0       -2.909835    2.600645   -2.963102
     17          8           0       -2.067000   -0.682741    0.092450
     18          8           0        1.425266    1.710651   -1.996504
     19          8           0       -5.403022   -3.243471    2.269791
     20          6           0       -5.023974    1.486448   -2.103198
     21          6           0       -5.364349    0.885636   -3.323443
     22          6           0       -5.649590    2.687453   -1.730844
     23          6           0       -6.312546    1.467381   -4.164525
     24          1           0       -4.870391   -0.057824   -3.613850
     25          6           0       -6.599768    3.260999   -2.581835
     26          6           0       -6.934993    2.661646   -3.792969
     27          1           0       -6.567156    0.980639   -5.120792
     28          1           0       -7.068473    4.203080   -2.249217
     29          1           0       -7.686384    3.124965   -4.454239
     30          6           0       -5.308560    3.360761   -0.418404
     31          8           0       -5.907233    4.443290   -0.141229
     32          8           0       -4.445376    2.777637    0.301488
     33          6           0       -2.601499   -2.780420    1.842165
     34          6           0       -2.658192   -3.031667    3.224205
     35          6           0       -1.517296   -3.301541    1.116897
     36          6           0       -1.656283   -3.764944    3.859567
     37          1           0       -3.509898   -2.637518    3.801729
     38          6           0       -0.519335   -4.039798    1.750263
     39          1           0       -1.453088   -3.114382    0.032368
     40          6           0       -0.582240   -4.274184    3.125018
     41          1           0       -1.715820   -3.942893    4.947079
     42          1           0        0.328938   -4.426714    1.160767
     43          1           0        0.210079   -4.854303    3.627731
     44          6           0        0.679603   -0.313835   -0.159079
     45          6           0        0.558114   -0.498266    1.227423
     46          6           0        1.770885   -0.907988   -0.815812
     47          6           0        1.489415   -1.257776    1.933915
     48          1           0       -0.293166   -0.043075    1.760056
     49          6           0        2.698694   -1.674221   -0.111239
     50          1           0        1.882584   -0.757216   -1.901675
     51          6           0        2.563363   -1.851039    1.268495
     52          1           0        1.365221   -1.399638    3.020787
     53          1           0        3.543274   -2.139642   -0.647892
     54          1           0        3.297424   -2.457314    1.825872
     55          6           0       -0.396744    3.318419   -3.537758
     56          6           0       -1.157519    4.494050   -3.674161
     57          6           0        0.745052    3.173283   -4.347765
     58          6           0       -0.804360    5.480927   -4.592733
     59          1           0       -2.037396    4.642895   -3.023976
     60          6           0        1.096272    4.159374   -5.268962
     61          1           0        1.355965    2.264209   -4.238287
     62          6           0        0.326342    5.318206   -5.396828
     63          1           0       -1.414860    6.396177   -4.673892
     64          1           0        1.990116    4.020232   -5.900886
     65          1           0        0.611264    6.099541   -6.121258
 ---------------------------------------------------------------------
 Rotational constants (GHZ):      0.1027612      0.0702795      0.0456835
 Leave Link  202 at Mon Jan 31 18:58:40 2022, MaxMem=  5242880000 cpu:         0.1
 (Enter /opt/nce/packages/global/g09/l301.exe)
 Standard basis: def2TZVP (5D, 7F)
 Ernie: Thresh=  0.10000D-02 Tol=  0.10000D-05 Strict=F.
  1465 basis functions,  2369 primitive gaussians,  1680 cartesian basis functions
   146 alpha electrons      146 beta electrons
       nuclear repulsion energy      4754.4150242511 Hartrees.
 IExCor=  402 DFT=T Ex+Corr=B3LYP ExCW=0 ScaHFX=  0.200000
 ScaDFX=  0.800000  0.720000  1.000000  0.810000 ScalE2=  1.000000  1.000000
 IRadAn=      5 IRanWt=     -1 IRanGd=            0 ICorTp=0 IEmpDi=141
 NAtoms=   65 NActive=   65 NUniq=   65 SFac= 1.00D+00 NAtFMM=   60 NAOKFM=T Big=T
 Integral buffers will be    131072 words long.
 Raffenetti 2 integral format.
 Two-electron integral symmetry is turned off.
 R6Disp:  Grimme-D3(BJ) Dispersion energy=       -0.1835857332 Hartrees.
 Nuclear repulsion after empirical dispersion term =     4754.2314385179 Hartrees.
 ------------------------------------------------------------------------------
 Polarizable Continuum Model (PCM)
 =================================
 Model                : PCM (using non-symmetric T matrix).
 Atomic radii         : SMD-Coulomb.
 Polarization charges : Total charges.
 Charge compensation  : None.
 Solution method      : On-the-fly selection.
 Cavity type          : VdW (van der Waals Surface) (Alpha=1.000).
 Cavity algorithm     : GePol (No added spheres)
                        Default sphere list used, NSphG=   65.
                        Lebedev-Laikov grids with approx.  5.0 points / Ang**2.
                        Smoothing algorithm: York/Karplus (Gamma=1.0000).
                        Polarization charges: spherical gaussians, with
                                              point-specific exponents (IZeta= 3).
                        Self-potential: point-specific (ISelfS= 7).
                        Self-field    : sphere-specific E.n sum rule (ISelfD= 2).
 1st derivatives      : Analytical E(r).r(x)/FMM algorithm (CHGder, D1EAlg=3).
                        Cavity 1st derivative terms included.
 Solvent              : Acetonitrile, Eps=  35.688000 Eps(inf)=   1.806874
 ------------------------------------------------------------------------------
 GePol: Number of generator spheres                  =      65
 GePol: Total number of spheres                      =      65
 GePol: Number of exposed spheres                    =      65 (100.00%)
 GePol: Number of points                             =    4820
 GePol: Average weight of points                     =       0.12
 GePol: Minimum weight of points                     =   0.12D-09
 GePol: Maximum weight of points                     =    0.21559
 GePol: Number of points with low weight             =     267
 GePol: Fraction of low-weight points (<1% of avg)   =       5.54%
 GePol: Cavity surface area                          =    564.777 Ang**2
 GePol: Cavity volume                                =    598.451 Ang**3
 ------------------------------------------------------------------------------
 Atomic radii for non-electrostatic terms: SMD-CDS.
 ------------------------------------------------------------------------------
 PCM non-electrostatic energy =        -0.0140226638 Hartrees.
 Nuclear repulsion after PCM non-electrostatic terms =     4754.2174158541 Hartrees.
 Leave Link  301 at Mon Jan 31 18:58:40 2022, MaxMem=  5242880000 cpu:         1.8
 (Enter /opt/nce/packages/global/g09/l302.exe)
 NPDir=0 NMtPBC=     1 NCelOv=     1 NCel=       1 NClECP=     1 NCelD=      1
         NCelK=      1 NCelE2=     1 NClLst=     1 CellRange=     0.0.
 One-electron integrals computed using PRISM.
   1 Symmetry operations used in ECPInt.
 ECPInt:  NShTT=  157641 NPrTT=  493540 LenC2=  119516 LenP2D=  246576.
 LDataN:  DoStor=T MaxTD1= 6 Len=  172
 NBasis=  1465 RedAO= T EigKep=  3.82D-06  NBF=  1465
 NBsUse=  1465 1.00D-06 EigRej= -1.00D+00 NBFU=  1465
 Precomputing XC quadrature grid using
 IXCGrd= 4 IRadAn=           5 IRanWt=          -1 IRanGd=           0 AccXCQ= 0.00D+00.
 Generated NRdTot=       0 NPtTot=           0 NUsed=           0 NTot=          32
 NSgBfM=  1614  1614  1614  1614  1614 MxSgAt=    65 MxSgA2=    65.
 Leave Link  302 at Mon Jan 31 18:58:45 2022, MaxMem=  5242880000 cpu:        58.2
 (Enter /opt/nce/packages/global/g09/l303.exe)
 DipDrv:  MaxL=1.
 Leave Link  303 at Mon Jan 31 18:58:46 2022, MaxMem=  5242880000 cpu:         5.1
 (Enter /opt/nce/packages/global/g09/l401.exe)
 ExpMin= 9.52D-02 ExpMax= 2.70D+04 ExpMxC= 9.22D+02 IAcc=3 IRadAn=         5 AccDes= 0.00D+00
 Harris functional with IExCor=  402 and IRadAn=       5 diagonalized for initial guess.
 HarFok:  IExCor=  402 AccDes= 0.00D+00 IRadAn=         5 IDoV= 1 UseB2=F ITyADJ=14
 ICtDFT=  3500011 ScaDFX=  1.000000  1.000000  1.000000  1.000000
 FoFCou: FMM=F IPFlag=           0 FMFlag=      100000 FMFlg1=        2001
         NFxFlg=           0 DoJE=T BraDBF=F KetDBF=T FulRan=T
         wScrn=  0.000000 ICntrl=     500 IOpCl=  0 I1Cent=   200000004 NGrid=           0
         NMat0=    1 NMatS0=      1 NMatT0=    0 NMatD0=    1 NMtDS0=    0 NMtDT0=    0
 Symmetry not used in FoFCou.
 Harris En= -1838.84579095430    
 JPrj=0 DoOrth=F DoCkMO=F.
 Leave Link  401 at Mon Jan 31 18:59:04 2022, MaxMem=  5242880000 cpu:       213.1
 (Enter /opt/nce/packages/global/g09/l502.exe)
 Closed shell SCF:
 Using DIIS extrapolation, IDIIS=  1040.
 Two-electron integral symmetry not used.
 IVT=     8516120 IEndB=     8516120 NGot=  5242880000 MDV=  5237204601
 LenX=  5237204601 LenY=  5234380521
 Requested convergence on RMS density matrix=1.00D-08 within 128 cycles.
 Requested convergence on MAX density matrix=1.00D-06.
 Requested convergence on             energy=1.00D-06.
 No special actions if energy rises.
 Fock matrices will be formed incrementally for  20 cycles.

 Cycle   1  Pass 1  IDiag  1:
 FoFJK:  IHMeth= 1 ICntrl=       0 DoSepK=F KAlg= 0 I1Cent=   0 FoldK=F
 IRaf= 710000000 NMat=   1 IRICut=       1 DoRegI=T DoRafI=F ISym2E= 0.
 FoFCou: FMM=T IPFlag=           0 FMFlag=      100000 FMFlg1=        2001
         NFxFlg=           0 DoJE=F BraDBF=F KetDBF=F FulRan=T
         wScrn=  0.000000 ICntrl=       0 IOpCl=  0 I1Cent=           0 NGrid=           0
         NMat0=    1 NMatS0=      1 NMatT0=    0 NMatD0=    1 NMtDS0=    0 NMtDT0=    0
 Symmetry not used in FoFCou.
 FMM levels:  10  Number of levels for PrismC:   9
 Inv3:  Mode=1 IEnd=    69697200.
 Iteration    1 A*A^-1 deviation from unit magnitude is 8.44D-15 for   4809.
 Iteration    1 A*A^-1 deviation from orthogonality  is 4.22D-15 for   2465   2268.
 Iteration    1 A^-1*A deviation from unit magnitude is 8.44D-15 for   4814.
 Iteration    1 A^-1*A deviation from orthogonality  is 4.43D-12 for   4272   3679.
 E= -1837.50297497532    
 DIIS: error= 2.07D-02 at cycle   1 NSaved=   1.
 NSaved= 1 IEnMin= 1 EnMin= -1837.50297497532     IErMin= 1 ErrMin= 2.07D-02
 ErrMax= 2.07D-02  0.00D+00 EMaxC= 1.00D-01 BMatC= 1.23D+00 BMatP= 1.23D+00
 IDIUse=3 WtCom= 7.93D-01 WtEn= 2.07D-01
 Coeff-Com:  0.100D+01
 Coeff-En:   0.100D+01
 Coeff:      0.100D+01
 Gap=     0.080 Goal=   None    Shift=    0.000
 GapD=    0.080 DampG=0.500 DampE=0.500 DampFc=0.2500 IDamp=-1.
 Damping current iteration by 2.50D-01
 RMSDP=2.27D-02 MaxDP=4.56D+00              OVMax= 4.36D-01

 Cycle   2  Pass 1  IDiag  1:
 RMSU=  5.59D-03    CP:  1.21D+00
 E= -1837.87878599839     Delta-E=       -0.375811023069 Rises=F Damp=T
 DIIS: error= 8.14D-03 at cycle   2 NSaved=   2.
 NSaved= 2 IEnMin= 2 EnMin= -1837.87878599839     IErMin= 2 ErrMin= 8.14D-03
 ErrMax= 8.14D-03  0.00D+00 EMaxC= 1.00D-01 BMatC= 2.98D-01 BMatP= 1.23D+00
 IDIUse=3 WtCom= 9.19D-01 WtEn= 8.14D-02
 Coeff-Com: -0.662D+00 0.166D+01
 Coeff-En:   0.000D+00 0.100D+01
 Coeff:     -0.608D+00 0.161D+01
 Gap=     0.159 Goal=   None    Shift=    0.000
 RMSDP=3.66D-03 MaxDP=7.94D-01 DE=-3.76D-01 OVMax= 2.85D-01

 Cycle   3  Pass 1  IDiag  1:
 RMSU=  1.48D-03    CP:  1.06D+00  4.13D-01
 E= -1838.41645711181     Delta-E=       -0.537671113415 Rises=F Damp=F
 DIIS: error= 7.59D-03 at cycle   3 NSaved=   3.
 NSaved= 3 IEnMin= 3 EnMin= -1838.41645711181     IErMin= 3 ErrMin= 7.59D-03
 ErrMax= 7.59D-03  0.00D+00 EMaxC= 1.00D-01 BMatC= 1.96D-01 BMatP= 2.98D-01
 IDIUse=3 WtCom= 9.24D-01 WtEn= 7.59D-02
 Coeff-Com: -0.496D+00 0.103D+01 0.463D+00
 Coeff-En:   0.000D+00 0.000D+00 0.100D+01
 Coeff:     -0.458D+00 0.955D+00 0.504D+00
 Gap=     0.106 Goal=   None    Shift=    0.000
 RMSDP=2.09D-03 MaxDP=4.47D-01 DE=-5.38D-01 OVMax= 1.71D-01

 Cycle   4  Pass 1  IDiag  1:
 RMSU=  9.70D-04    CP:  1.13D+00  7.30D-01  7.27D-01
 E= -1838.57052114171     Delta-E=       -0.154064029900 Rises=F Damp=F
 DIIS: error= 3.33D-03 at cycle   4 NSaved=   4.
 NSaved= 4 IEnMin= 4 EnMin= -1838.57052114171     IErMin= 4 ErrMin= 3.33D-03
 ErrMax= 3.33D-03  0.00D+00 EMaxC= 1.00D-01 BMatC= 2.70D-02 BMatP= 1.96D-01
 IDIUse=3 WtCom= 9.67D-01 WtEn= 3.33D-02
 Coeff-Com: -0.179D+00 0.347D+00 0.304D+00 0.528D+00
 Coeff-En:   0.000D+00 0.000D+00 0.134D+00 0.866D+00
 Coeff:     -0.173D+00 0.336D+00 0.298D+00 0.539D+00
 Gap=     0.109 Goal=   None    Shift=    0.000
 RMSDP=1.13D-03 MaxDP=2.47D-01 DE=-1.54D-01 OVMax= 6.38D-02

 Cycle   5  Pass 1  IDiag  1:
 RMSU=  3.33D-04    CP:  1.10D+00  5.70D-01  8.85D-01  4.52D-01
 E= -1838.59234348883     Delta-E=       -0.021822347123 Rises=F Damp=F
 DIIS: error= 1.43D-03 at cycle   5 NSaved=   5.
 NSaved= 5 IEnMin= 5 EnMin= -1838.59234348883     IErMin= 5 ErrMin= 1.43D-03
 ErrMax= 1.43D-03  0.00D+00 EMaxC= 1.00D-01 BMatC= 3.96D-03 BMatP= 2.70D-02
 IDIUse=3 WtCom= 9.86D-01 WtEn= 1.43D-02
 Coeff-Com: -0.466D-01 0.769D-01 0.122D+00 0.351D+00 0.497D+00
 Coeff-En:   0.000D+00 0.000D+00 0.000D+00 0.111D+00 0.889D+00
 Coeff:     -0.459D-01 0.758D-01 0.120D+00 0.347D+00 0.503D+00
 Gap=     0.106 Goal=   None    Shift=    0.000
 RMSDP=2.98D-04 MaxDP=5.22D-02 DE=-2.18D-02 OVMax= 1.84D-02

 Cycle   6  Pass 1  IDiag  1:
 RMSU=  5.69D-05    CP:  1.11D+00  6.02D-01  8.51D-01  6.15D-01  5.40D-01
 E= -1838.59556365026     Delta-E=       -0.003220161432 Rises=F Damp=F
 DIIS: error= 4.29D-04 at cycle   6 NSaved=   6.
 NSaved= 6 IEnMin= 6 EnMin= -1838.59556365026     IErMin= 6 ErrMin= 4.29D-04
 ErrMax= 4.29D-04  0.00D+00 EMaxC= 1.00D-01 BMatC= 2.85D-04 BMatP= 3.96D-03
 IDIUse=3 WtCom= 9.96D-01 WtEn= 4.29D-03
 Coeff-Com: -0.926D-02 0.105D-01 0.336D-01 0.132D+00 0.277D+00 0.555D+00
 Coeff-En:   0.000D+00 0.000D+00 0.000D+00 0.000D+00 0.000D+00 0.100D+01
 Coeff:     -0.922D-02 0.105D-01 0.335D-01 0.132D+00 0.276D+00 0.557D+00
 Gap=     0.107 Goal=   None    Shift=    0.000
 RMSDP=4.04D-05 MaxDP=6.36D-03 DE=-3.22D-03 OVMax= 4.18D-03

 Cycle   7  Pass 1  IDiag  1:
 RMSU=  3.13D-05    CP:  1.11D+00  6.06D-01  8.57D-01  6.07D-01  5.67D-01
                    CP:  8.73D-01
 E= -1838.59575929055     Delta-E=       -0.000195640291 Rises=F Damp=F
 DIIS: error= 2.35D-04 at cycle   7 NSaved=   7.
 NSaved= 7 IEnMin= 7 EnMin= -1838.59575929055     IErMin= 7 ErrMin= 2.35D-04
 ErrMax= 2.35D-04  0.00D+00 EMaxC= 1.00D-01 BMatC= 5.69D-05 BMatP= 2.85D-04
 IDIUse=3 WtCom= 9.98D-01 WtEn= 2.35D-03
 Coeff-Com: -0.216D-02 0.910D-03 0.926D-02 0.481D-01 0.126D+00 0.366D+00
 Coeff-Com:  0.452D+00
 Coeff-En:   0.000D+00 0.000D+00 0.000D+00 0.000D+00 0.000D+00 0.153D+00
 Coeff-En:   0.847D+00
 Coeff:     -0.215D-02 0.908D-03 0.924D-02 0.480D-01 0.126D+00 0.365D+00
 Coeff:      0.453D+00
 Gap=     0.107 Goal=   None    Shift=    0.000
 RMSDP=2.28D-05 MaxDP=4.17D-03 DE=-1.96D-04 OVMax= 2.46D-03

 Cycle   8  Pass 1  IDiag  1:
 RMSU=  9.68D-06    CP:  1.11D+00  6.04D-01  8.57D-01  6.06D-01  5.86D-01
                    CP:  9.19D-01  4.87D-01
 E= -1838.59580264409     Delta-E=       -0.000043353532 Rises=F Damp=F
 DIIS: error= 8.57D-05 at cycle   8 NSaved=   8.
 NSaved= 8 IEnMin= 8 EnMin= -1838.59580264409     IErMin= 8 ErrMin= 8.57D-05
 ErrMax= 8.57D-05  0.00D+00 EMaxC= 1.00D-01 BMatC= 7.30D-06 BMatP= 5.69D-05
 IDIUse=1 WtCom= 1.00D+00 WtEn= 0.00D+00
 Coeff-Com:  0.669D-04-0.106D-02 0.711D-03 0.105D-01 0.406D-01 0.159D+00
 Coeff-Com:  0.298D+00 0.492D+00
 Coeff:      0.669D-04-0.106D-02 0.711D-03 0.105D-01 0.406D-01 0.159D+00
 Coeff:      0.298D+00 0.492D+00
 Gap=     0.107 Goal=   None    Shift=    0.000
 RMSDP=8.66D-06 MaxDP=2.07D-03 DE=-4.34D-05 OVMax= 8.37D-04

 Cycle   9  Pass 1  IDiag  1:
 RMSU=  3.68D-06    CP:  1.11D+00  6.03D-01  8.56D-01  6.06D-01  5.85D-01
                    CP:  9.14D-01  6.13D-01  7.61D-01
 E= -1838.59580784743     Delta-E=       -0.000005203344 Rises=F Damp=F
 DIIS: error= 1.63D-05 at cycle   9 NSaved=   9.
 NSaved= 9 IEnMin= 9 EnMin= -1838.59580784743     IErMin= 9 ErrMin= 1.63D-05
 ErrMax= 1.63D-05  0.00D+00 EMaxC= 1.00D-01 BMatC= 5.54D-07 BMatP= 7.30D-06
 IDIUse=1 WtCom= 1.00D+00 WtEn= 0.00D+00
 Coeff-Com:  0.336D-03-0.627D-03-0.901D-03-0.192D-02 0.309D-02 0.289D-01
 Coeff-Com:  0.871D-01 0.258D+00 0.626D+00
 Coeff:      0.336D-03-0.627D-03-0.901D-03-0.192D-02 0.309D-02 0.289D-01
 Coeff:      0.871D-01 0.258D+00 0.626D+00
 Gap=     0.107 Goal=   None    Shift=    0.000
 RMSDP=1.53D-06 MaxDP=3.15D-04 DE=-5.20D-06 OVMax= 1.90D-04

 Cycle  10  Pass 1  IDiag  1:
 RMSU=  9.01D-07    CP:  1.11D+00  6.03D-01  8.57D-01  6.06D-01  5.85D-01
                    CP:  9.23D-01  6.10D-01  8.30D-01  8.55D-01
 E= -1838.59580831178     Delta-E=       -0.000000464345 Rises=F Damp=F
 DIIS: error= 6.12D-06 at cycle  10 NSaved=  10.
 NSaved=10 IEnMin=10 EnMin= -1838.59580831178     IErMin=10 ErrMin= 6.12D-06
 ErrMax= 6.12D-06  0.00D+00 EMaxC= 1.00D-01 BMatC= 6.60D-08 BMatP= 5.54D-07
 IDIUse=1 WtCom= 1.00D+00 WtEn= 0.00D+00
 Coeff-Com:  0.162D-03-0.263D-03-0.512D-03-0.165D-02-0.409D-03 0.735D-02
 Coeff-Com:  0.310D-01 0.111D+00 0.353D+00 0.500D+00
 Coeff:      0.162D-03-0.263D-03-0.512D-03-0.165D-02-0.409D-03 0.735D-02
 Coeff:      0.310D-01 0.111D+00 0.353D+00 0.500D+00
 Gap=     0.107 Goal=   None    Shift=    0.000
 RMSDP=5.32D-07 MaxDP=7.29D-05 DE=-4.64D-07 OVMax= 8.28D-05

 Cycle  11  Pass 1  IDiag  1:
 RMSU=  3.21D-07    CP:  1.11D+00  6.03D-01  8.57D-01  6.06D-01  5.86D-01
                    CP:  9.23D-01  6.12D-01  8.30D-01  8.96D-01  7.52D-01
 E= -1838.59580836917     Delta-E=       -0.000000057390 Rises=F Damp=F
 DIIS: error= 1.57D-06 at cycle  11 NSaved=  11.
 NSaved=11 IEnMin=11 EnMin= -1838.59580836917     IErMin=11 ErrMin= 1.57D-06
 ErrMax= 1.57D-06  0.00D+00 EMaxC= 1.00D-01 BMatC= 6.67D-09 BMatP= 6.60D-08
 IDIUse=1 WtCom= 1.00D+00 WtEn= 0.00D+00
 Coeff-Com:  0.101D-04-0.355D-05-0.123D-03-0.609D-03-0.781D-03-0.110D-02
 Coeff-Com:  0.107D-02 0.111D-01 0.746D-01 0.263D+00 0.652D+00
 Coeff:      0.101D-04-0.355D-05-0.123D-03-0.609D-03-0.781D-03-0.110D-02
 Coeff:      0.107D-02 0.111D-01 0.746D-01 0.263D+00 0.652D+00
 Gap=     0.107 Goal=   None    Shift=    0.000
 RMSDP=3.00D-07 MaxDP=7.04D-05 DE=-5.74D-08 OVMax= 2.81D-05

 Cycle  12  Pass 1  IDiag  1:
 RMSU=  1.26D-07    CP:  1.11D+00  6.03D-01  8.57D-01  6.06D-01  5.86D-01
                    CP:  9.24D-01  6.13D-01  8.32D-01  8.96D-01  8.52D-01
                    CP:  8.85D-01
 E= -1838.59580837507     Delta-E=       -0.000000005901 Rises=F Damp=F
 DIIS: error= 9.27D-07 at cycle  12 NSaved=  12.
 NSaved=12 IEnMin=12 EnMin= -1838.59580837507     IErMin=12 ErrMin= 9.27D-07
 ErrMax= 9.27D-07  0.00D+00 EMaxC= 1.00D-01 BMatC= 1.37D-09 BMatP= 6.67D-09
 IDIUse=1 WtCom= 1.00D+00 WtEn= 0.00D+00
 Coeff-Com: -0.144D-04 0.301D-04-0.238D-04-0.212D-03-0.483D-03-0.163D-02
 Coeff-Com: -0.316D-02-0.645D-02 0.708D-02 0.114D+00 0.409D+00 0.482D+00
 Coeff:     -0.144D-04 0.301D-04-0.238D-04-0.212D-03-0.483D-03-0.163D-02
 Coeff:     -0.316D-02-0.645D-02 0.708D-02 0.114D+00 0.409D+00 0.482D+00
 Gap=     0.107 Goal=   None    Shift=    0.000
 RMSDP=9.23D-08 MaxDP=1.78D-05 DE=-5.90D-09 OVMax= 8.05D-06

 Cycle  13  Pass 1  IDiag  1:
 RMSU=  4.26D-08    CP:  1.11D+00  6.03D-01  8.57D-01  6.06D-01  5.86D-01
                    CP:  9.24D-01  6.13D-01  8.33D-01  9.03D-01  8.52D-01
                    CP:  9.85D-01  9.24D-01
 E= -1838.59580837639     Delta-E=       -0.000000001328 Rises=F Damp=F
 DIIS: error= 2.57D-07 at cycle  13 NSaved=  13.
 NSaved=13 IEnMin=13 EnMin= -1838.59580837639     IErMin=13 ErrMin= 2.57D-07
 ErrMax= 2.57D-07  0.00D+00 EMaxC= 1.00D-01 BMatC= 6.85D-11 BMatP= 1.37D-09
 IDIUse=1 WtCom= 1.00D+00 WtEn= 0.00D+00
 Coeff-Com: -0.905D-05 0.143D-04 0.767D-05 0.412D-05-0.746D-04-0.465D-03
 Coeff-Com: -0.145D-02-0.448D-02-0.795D-02 0.109D-01 0.756D-01 0.211D+00
 Coeff-Com:  0.717D+00
 Coeff:     -0.905D-05 0.143D-04 0.767D-05 0.412D-05-0.746D-04-0.465D-03
 Coeff:     -0.145D-02-0.448D-02-0.795D-02 0.109D-01 0.756D-01 0.211D+00
 Coeff:      0.717D+00
 Gap=     0.107 Goal=   None    Shift=    0.000
 RMSDP=2.58D-08 MaxDP=2.95D-06 DE=-1.33D-09 OVMax= 3.57D-06

 Cycle  14  Pass 1  IDiag  1:
 RMSU=  1.40D-08    CP:  1.11D+00  6.03D-01  8.57D-01  6.06D-01  5.86D-01
                    CP:  9.24D-01  6.13D-01  8.33D-01  9.03D-01  8.64D-01
                    CP:  9.93D-01  1.02D+00  8.93D-01
 E= -1838.59580837638     Delta-E=        0.000000000014 Rises=F Damp=F
 DIIS: error= 1.20D-07 at cycle  14 NSaved=  14.
 NSaved=14 IEnMin=13 EnMin= -1838.59580837639     IErMin=14 ErrMin= 1.20D-07
 ErrMax= 1.20D-07  0.00D+00 EMaxC= 1.00D-01 BMatC= 1.37D-11 BMatP= 6.85D-11
 IDIUse=1 WtCom= 1.00D+00 WtEn= 0.00D+00
 Coeff-Com: -0.392D-05 0.597D-05 0.548D-05 0.124D-04-0.149D-04-0.162D-03
 Coeff-Com: -0.613D-03-0.205D-02-0.469D-02-0.102D-02 0.146D-01 0.806D-01
 Coeff-Com:  0.406D+00 0.507D+00
 Coeff:     -0.392D-05 0.597D-05 0.548D-05 0.124D-04-0.149D-04-0.162D-03
 Coeff:     -0.613D-03-0.205D-02-0.469D-02-0.102D-02 0.146D-01 0.806D-01
 Coeff:      0.406D+00 0.507D+00
 Gap=     0.107 Goal=   None    Shift=    0.000
 RMSDP=1.22D-08 MaxDP=1.77D-06 DE= 1.36D-11 OVMax= 1.06D-06

 Cycle  15  Pass 1  IDiag  1:
 RMSU=  6.52D-09    CP:  1.11D+00  6.03D-01  8.57D-01  6.06D-01  5.86D-01
                    CP:  9.24D-01  6.13D-01  8.33D-01  9.04D-01  8.63D-01
                    CP:  1.00D+00  1.01D+00  9.20D-01  8.72D-01
 E= -1838.59580837643     Delta-E=       -0.000000000051 Rises=F Damp=F
 DIIS: error= 2.58D-08 at cycle  15 NSaved=  15.
 NSaved=15 IEnMin=15 EnMin= -1838.59580837643     IErMin=15 ErrMin= 2.58D-08
 ErrMax= 2.58D-08  0.00D+00 EMaxC= 1.00D-01 BMatC= 1.13D-12 BMatP= 1.37D-11
 IDIUse=1 WtCom= 1.00D+00 WtEn= 0.00D+00
 Coeff-Com: -0.208D-06 0.262D-06 0.185D-05 0.513D-05 0.514D-05-0.751D-05
 Coeff-Com: -0.842D-04-0.320D-03-0.106D-02-0.219D-02-0.530D-02 0.341D-02
 Coeff-Com:  0.851D-01 0.237D+00 0.684D+00
 Coeff:     -0.208D-06 0.262D-06 0.185D-05 0.513D-05 0.514D-05-0.751D-05
 Coeff:     -0.842D-04-0.320D-03-0.106D-02-0.219D-02-0.530D-02 0.341D-02
 Coeff:      0.851D-01 0.237D+00 0.684D+00
 Gap=     0.107 Goal=   None    Shift=    0.000
 RMSDP=9.56D-09 MaxDP=1.86D-06 DE=-5.09D-11 OVMax= 3.29D-07

 Cycle  16  Pass 1  IDiag  1:
 RMSU=  7.02D-09    CP:  1.11D+00  6.03D-01  8.57D-01  6.06D-01  5.86D-01
                    CP:  9.24D-01  6.13D-01  8.33D-01  9.04D-01  8.65D-01
                    CP:  1.00D+00  1.03D+00  9.75D-01  1.03D+00  1.13D+00
 E= -1838.59580837639     Delta-E=        0.000000000042 Rises=F Damp=F
 DIIS: error= 7.63D-09 at cycle  16 NSaved=  16.
 NSaved=16 IEnMin=15 EnMin= -1838.59580837643     IErMin=16 ErrMin= 7.63D-09
 ErrMax= 7.63D-09  0.00D+00 EMaxC= 1.00D-01 BMatC= 2.66D-13 BMatP= 1.13D-12
 IDIUse=1 WtCom= 1.00D+00 WtEn= 0.00D+00
 Coeff-Com:  0.237D-06-0.395D-06 0.818D-06 0.224D-05 0.514D-05 0.101D-04
 Coeff-Com: -0.375D-06-0.331D-04-0.278D-03-0.121D-02-0.434D-02-0.402D-02
 Coeff-Com:  0.242D-01 0.110D+00 0.420D+00 0.456D+00
 Coeff:      0.237D-06-0.395D-06 0.818D-06 0.224D-05 0.514D-05 0.101D-04
 Coeff:     -0.375D-06-0.331D-04-0.278D-03-0.121D-02-0.434D-02-0.402D-02
 Coeff:      0.242D-01 0.110D+00 0.420D+00 0.456D+00
 Gap=     0.107 Goal=   None    Shift=    0.000
 RMSDP=6.84D-09 MaxDP=4.80D-07 DE= 4.18D-11 OVMax= 1.72D-07

 Error on total polarization charges =  0.07280
 SCF Done:  E(RB3LYP) =  -1838.59580838     A.U. after   16 cycles
            NFock= 16  Conv=0.68D-08     -V/T= 2.0056
 KE= 1.828395121788D+03 PE=-1.385164729525D+04 EE= 5.430438949231D+03
 SMD-CDS (non-electrostatic) energy       (kcal/mol) =      -8.80
 (included in total energy above)
 Leave Link  502 at Mon Jan 31 20:04:16 2022, MaxMem=  5242880000 cpu:     46857.2
 (Enter /opt/nce/packages/global/g09/l601.exe)
 Copying SCF densities to generalized density rwf, IOpCl= 0 IROHF=0.

 **********************************************************************

            Population analysis using the SCF density.

 **********************************************************************

 Alpha  occ. eigenvalues --  -19.18049 -19.05588 -19.05363 -19.04318 -19.03983
 Alpha  occ. eigenvalues --  -10.23975 -10.23898 -10.23401 -10.22058 -10.21648
 Alpha  occ. eigenvalues --  -10.20798 -10.18336 -10.17695 -10.17535 -10.17510
 Alpha  occ. eigenvalues --  -10.17386 -10.17329 -10.17225 -10.17159 -10.17146
 Alpha  occ. eigenvalues --  -10.17118 -10.17050 -10.16914 -10.16898 -10.16830
 Alpha  occ. eigenvalues --  -10.16777 -10.16703 -10.16701 -10.16656 -10.16648
 Alpha  occ. eigenvalues --  -10.16594 -10.16593 -10.16557 -10.16540 -10.16531
 Alpha  occ. eigenvalues --  -10.16409 -10.16387 -10.16386 -10.16381 -10.16354
 Alpha  occ. eigenvalues --  -10.16030 -10.16028 -10.15431  -1.09864  -0.99665
 Alpha  occ. eigenvalues --   -0.97594  -0.96843  -0.90881  -0.86803  -0.85729
 Alpha  occ. eigenvalues --   -0.85104  -0.84868  -0.83912  -0.83576  -0.79089
 Alpha  occ. eigenvalues --   -0.78136  -0.76403  -0.74884  -0.74262  -0.73580
 Alpha  occ. eigenvalues --   -0.73518  -0.73427  -0.73215  -0.72236  -0.70209
 Alpha  occ. eigenvalues --   -0.69720  -0.64282  -0.64027  -0.62363  -0.60785
 Alpha  occ. eigenvalues --   -0.60680  -0.59535  -0.59374  -0.59152  -0.58830
 Alpha  occ. eigenvalues --   -0.58200  -0.56404  -0.55659  -0.53212  -0.52520
 Alpha  occ. eigenvalues --   -0.52438  -0.50772  -0.50532  -0.49501  -0.48880
 Alpha  occ. eigenvalues --   -0.47368  -0.46685  -0.46500  -0.45981  -0.45271
 Alpha  occ. eigenvalues --   -0.44843  -0.44232  -0.44033  -0.43737  -0.43563
 Alpha  occ. eigenvalues --   -0.43281  -0.42924  -0.42784  -0.41758  -0.41534
 Alpha  occ. eigenvalues --   -0.41454  -0.40850  -0.40624  -0.40598  -0.40541
 Alpha  occ. eigenvalues --   -0.40074  -0.39075  -0.38947  -0.38691  -0.37999
 Alpha  occ. eigenvalues --   -0.37585  -0.37480  -0.36543  -0.36471  -0.36135
 Alpha  occ. eigenvalues --   -0.35805  -0.35580  -0.35117  -0.34807  -0.34775
 Alpha  occ. eigenvalues --   -0.33996  -0.33795  -0.33233  -0.33185  -0.33133
 Alpha  occ. eigenvalues --   -0.33006  -0.32601  -0.31157  -0.31002  -0.27861
 Alpha  occ. eigenvalues --   -0.26249  -0.25621  -0.25496  -0.25230  -0.25105
 Alpha  occ. eigenvalues --   -0.24742  -0.24231  -0.24081  -0.23156  -0.22831
 Alpha  occ. eigenvalues --   -0.22127  -0.21912  -0.21706  -0.20632  -0.19570
 Alpha  occ. eigenvalues --   -0.17184
 Alpha virt. eigenvalues --   -0.06518  -0.03162  -0.02325  -0.01877  -0.01150
 Alpha virt. eigenvalues --   -0.00980  -0.00768  -0.00535   0.00407   0.01656
 Alpha virt. eigenvalues --    0.02927   0.03623   0.04838   0.05621   0.06319
 Alpha virt. eigenvalues --    0.06794   0.06889   0.07415   0.07833   0.08059
 Alpha virt. eigenvalues --    0.08405   0.08807   0.08968   0.09336   0.09732
 Alpha virt. eigenvalues --    0.10416   0.10486   0.10997   0.11442   0.11685
 Alpha virt. eigenvalues --    0.11760   0.12025   0.12215   0.12559   0.13055
 Alpha virt. eigenvalues --    0.13197   0.13809   0.14040   0.14310   0.14616
 Alpha virt. eigenvalues --    0.14968   0.15173   0.15288   0.15777   0.16262
 Alpha virt. eigenvalues --    0.16447   0.17000   0.17495   0.18030   0.18812
 Alpha virt. eigenvalues --    0.18903   0.19158   0.19417   0.19719   0.19946
 Alpha virt. eigenvalues --    0.20235   0.20628   0.20720   0.20965   0.21349
 Alpha virt. eigenvalues --    0.21457   0.21613   0.21943   0.22058   0.22324
 Alpha virt. eigenvalues --    0.22568   0.22763   0.22916   0.23249   0.23469
 Alpha virt. eigenvalues --    0.23499   0.23936   0.24034   0.24367   0.24491
 Alpha virt. eigenvalues --    0.24618   0.24901   0.25369   0.25529   0.25883
 Alpha virt. eigenvalues --    0.25901   0.26445   0.26467   0.26592   0.26862
 Alpha virt. eigenvalues --    0.27434   0.27554   0.28117   0.28169   0.28500
 Alpha virt. eigenvalues --    0.28639   0.28873   0.28985   0.29170   0.29353
 Alpha virt. eigenvalues --    0.29461   0.29785   0.30189   0.30310   0.30869
 Alpha virt. eigenvalues --    0.31246   0.31804   0.31913   0.32200   0.32480
 Alpha virt. eigenvalues --    0.32687   0.32858   0.32936   0.33464   0.33619
 Alpha virt. eigenvalues --    0.34015   0.34293   0.34444   0.34530   0.34681
 Alpha virt. eigenvalues --    0.35124   0.35341   0.35602   0.35736   0.36068
 Alpha virt. eigenvalues --    0.36334   0.36536   0.36686   0.36927   0.37133
 Alpha virt. eigenvalues --    0.37192   0.37826   0.38049   0.38123   0.38249
 Alpha virt. eigenvalues --    0.38464   0.38768   0.38899   0.39555   0.39859
 Alpha virt. eigenvalues --    0.40119   0.40385   0.40553   0.40678   0.41079
 Alpha virt. eigenvalues --    0.41108   0.41508   0.41560   0.41855   0.42239
 Alpha virt. eigenvalues --    0.42485   0.42799   0.42999   0.43140   0.43325
 Alpha virt. eigenvalues --    0.43722   0.43859   0.43984   0.44069   0.44306
 Alpha virt. eigenvalues --    0.44685   0.44921   0.45118   0.45497   0.45548
 Alpha virt. eigenvalues --    0.45874   0.46074   0.46247   0.46592   0.46909
 Alpha virt. eigenvalues --    0.47123   0.47558   0.47733   0.48294   0.48543
 Alpha virt. eigenvalues --    0.48669   0.48728   0.48943   0.49244   0.49264
 Alpha virt. eigenvalues --    0.49492   0.49964   0.50098   0.50398   0.50558
 Alpha virt. eigenvalues --    0.50785   0.50978   0.51321   0.51485   0.51887
 Alpha virt. eigenvalues --    0.52397   0.52616   0.52908   0.52986   0.53263
 Alpha virt. eigenvalues --    0.53730   0.54044   0.54510   0.54769   0.55385
 Alpha virt. eigenvalues --    0.55506   0.55687   0.56250   0.56348   0.56847
 Alpha virt. eigenvalues --    0.57191   0.57753   0.57939   0.58332   0.58960
 Alpha virt. eigenvalues --    0.59091   0.59580   0.59748   0.60395   0.60775
 Alpha virt. eigenvalues --    0.61098   0.61548   0.61663   0.62206   0.62497
 Alpha virt. eigenvalues --    0.63396   0.63633   0.63736   0.64089   0.64196
 Alpha virt. eigenvalues --    0.64549   0.64922   0.65516   0.65752   0.66032
 Alpha virt. eigenvalues --    0.66283   0.66332   0.66914   0.67382   0.67548
 Alpha virt. eigenvalues --    0.67700   0.68262   0.68553   0.68715   0.68827
 Alpha virt. eigenvalues --    0.68935   0.69504   0.69521   0.70066   0.70116
 Alpha virt. eigenvalues --    0.70479   0.70570   0.70578   0.70899   0.71168
 Alpha virt. eigenvalues --    0.71656   0.71715   0.72037   0.72076   0.72701
 Alpha virt. eigenvalues --    0.72950   0.73366   0.73541   0.73745   0.74180
 Alpha virt. eigenvalues --    0.74321   0.74673   0.74811   0.75337   0.75357
 Alpha virt. eigenvalues --    0.76210   0.76346   0.76514   0.76718   0.77236
 Alpha virt. eigenvalues --    0.77530   0.77885   0.78255   0.78431   0.78713
 Alpha virt. eigenvalues --    0.79383   0.79721   0.79871   0.80015   0.80504
 Alpha virt. eigenvalues --    0.81003   0.81140   0.81736   0.82202   0.82372
 Alpha virt. eigenvalues --    0.82928   0.83185   0.83365   0.83720   0.83974
 Alpha virt. eigenvalues --    0.84437   0.84586   0.85087   0.85575   0.85760
 Alpha virt. eigenvalues --    0.86239   0.86436   0.87039   0.87347   0.87785
 Alpha virt. eigenvalues --    0.88201   0.88309   0.88832   0.89214   0.89314
 Alpha virt. eigenvalues --    0.89602   0.89798   0.90286   0.90937   0.91013
 Alpha virt. eigenvalues --    0.91198   0.91566   0.91909   0.92176   0.92438
 Alpha virt. eigenvalues --    0.93256   0.93411   0.93604   0.93944   0.94270
 Alpha virt. eigenvalues --    0.94467   0.94904   0.95180   0.95303   0.95973
 Alpha virt. eigenvalues --    0.96392   0.96719   0.97024   0.97433   0.98097
 Alpha virt. eigenvalues --    0.98493   0.98933   0.99751   1.00115   1.00774
 Alpha virt. eigenvalues --    1.01119   1.01393   1.01666   1.01927   1.02571
 Alpha virt. eigenvalues --    1.02889   1.03215   1.03625   1.04018   1.04633
 Alpha virt. eigenvalues --    1.04932   1.05544   1.06274   1.06464   1.06731
[...]
 Alpha virt. eigenvalues --    1.96340   1.97598   1.97684   1.98185   1.98841
 Alpha virt. eigenvalues --    1.98956   1.99970   2.00644   2.00806   2.01989
 Alpha virt. eigenvalues --    2.02376   2.03227   2.04088   2.04387   2.04584
 Alpha virt. eigenvalues --    2.05076   2.05723   2.06081   2.06840   2.07451
 Alpha virt. eigenvalues --    2.07604   2.08190   2.08305   2.08994   2.09440
 Alpha virt. eigenvalues --    2.09770   2.09916   2.10038   2.10514   2.10656
 Alpha virt. eigenvalues --    2.11277   2.11619   2.12100   2.12478   2.12999
 Alpha virt. eigenvalues --    2.13363   2.13901   2.14370   2.14905   2.15649
 Alpha virt. eigenvalues --    2.16345   2.16432   2.17288   2.17606   2.18025
 Alpha virt. eigenvalues --    2.18498   2.18923   2.19485   2.20005   2.20321
 Alpha virt. eigenvalues --    2.20775   2.21002   2.21697   2.22350   2.22914
 Alpha virt. eigenvalues --    2.23065   2.23652   2.24232   2.24331   2.24624
 Alpha virt. eigenvalues --    2.24913   2.25342   2.25627   2.26395   2.26613
 Alpha virt. eigenvalues --    2.27125   2.27757   2.28692   2.29430   2.29571
 Alpha virt. eigenvalues --    2.29990   2.30835   2.31199   2.31673   2.32004
 Alpha virt. eigenvalues --    2.32567   2.33540   2.33746   2.34910   2.35368
 Alpha virt. eigenvalues --    2.35689   2.36549   2.37223   2.37253   2.38344
 Alpha virt. eigenvalues --    2.38955   2.39217   2.40442   2.41435   2.41454
 Alpha virt. eigenvalues --    2.42672   2.43585   2.44425   2.45530   2.46189
 Alpha virt. eigenvalues --    2.46536   2.47655   2.48598   2.48732   2.49137
 Alpha virt. eigenvalues --    2.49376   2.50355   2.50892   2.51105   2.51425
 Alpha virt. eigenvalues --    2.52272   2.52391   2.52812   2.53088   2.53787
 Alpha virt. eigenvalues --    2.54877   2.55010   2.55608   2.55936   2.56565
 Alpha virt. eigenvalues --    2.57074   2.57776   2.58281   2.58970   2.59430
 Alpha virt. eigenvalues --    2.59697   2.60277   2.60606   2.61603   2.61854
 Alpha virt. eigenvalues --    2.62220   2.62375   2.63354   2.63598   2.63914
 Alpha virt. eigenvalues --    2.64271   2.64829   2.65071   2.65404   2.65501
 Alpha virt. eigenvalues --    2.65725   2.65941   2.66274   2.66778   2.66841
 Alpha virt. eigenvalues --    2.67165   2.67699   2.68099   2.68166   2.68231
 Alpha virt. eigenvalues --    2.68506   2.69010   2.69245   2.69362   2.69592
 Alpha virt. eigenvalues --    2.69769   2.69950   2.71100   2.71141   2.71455
 Alpha virt. eigenvalues --    2.71741   2.72004   2.72581   2.72703   2.72971
 Alpha virt. eigenvalues --    2.73468   2.74196   2.74466   2.74754   2.75143
 Alpha virt. eigenvalues --    2.75536   2.76215   2.76357   2.76639   2.76872
 Alpha virt. eigenvalues --    2.77310   2.77769   2.78041   2.78502   2.78601
 Alpha virt. eigenvalues --    2.79187   2.79516   2.79817   2.79997   2.80165
 Alpha virt. eigenvalues --    2.80513   2.80776   2.81084   2.81228   2.82087
 Alpha virt. eigenvalues --    2.82479   2.82671   2.83002   2.83377   2.83461
 Alpha virt. eigenvalues --    2.83879   2.84103   2.84381   2.85022   2.85048
 Alpha virt. eigenvalues --    2.85303   2.85439   2.85918   2.86207   2.86721
 Alpha virt. eigenvalues --    2.87118   2.87589   2.87981   2.88315   2.88423
 Alpha virt. eigenvalues --    2.88600   2.88895   2.89206   2.89419   2.89857
 Alpha virt. eigenvalues --    2.90222   2.90571   2.90751   2.92028   2.92144
 Alpha virt. eigenvalues --    2.92596   2.92841   2.93406   2.94015   2.94434
 Alpha virt. eigenvalues --    2.94684   2.95322   2.95603   2.95729   2.96398
 Alpha virt. eigenvalues --    2.97136   2.97703   2.97867   2.98279   2.98594
 Alpha virt. eigenvalues --    2.99208   2.99475   2.99773   3.00751   3.01308
 Alpha virt. eigenvalues --    3.01589   3.01990   3.02427   3.02981   3.03076
 Alpha virt. eigenvalues --    3.03326   3.03819   3.04331   3.04645   3.05098
 Alpha virt. eigenvalues --    3.05614   3.05693   3.06601   3.06759   3.06993
 Alpha virt. eigenvalues --    3.07506   3.07871   3.08350   3.08709   3.08957
 Alpha virt. eigenvalues --    3.09612   3.09832   3.10320   3.10662   3.10996
 Alpha virt. eigenvalues --    3.11130   3.11766   3.12018   3.12411   3.12855
 Alpha virt. eigenvalues --    3.13125   3.13963   3.14022   3.14240   3.14573
 Alpha virt. eigenvalues --    3.14710   3.14958   3.15340   3.15406   3.15707
 Alpha virt. eigenvalues --    3.16065   3.16371   3.16601   3.17130   3.17141
 Alpha virt. eigenvalues --    3.17622   3.18021   3.18161   3.18527   3.18721
 Alpha virt. eigenvalues --    3.18978   3.19265   3.19494   3.19827   3.20498
 Alpha virt. eigenvalues --    3.20567   3.21057   3.21490   3.22089   3.22592
 Alpha virt. eigenvalues --    3.22641   3.22938   3.23353   3.23542   3.23876
 Alpha virt. eigenvalues --    3.24108   3.24535   3.25006   3.25549   3.25745
 Alpha virt. eigenvalues --    3.26341   3.26735   3.27410   3.27660   3.28048
 Alpha virt. eigenvalues --    3.28302   3.28636   3.28843   3.28939   3.29329
 Alpha virt. eigenvalues --    3.29725   3.30193   3.30553   3.31221   3.31304
 Alpha virt. eigenvalues --    3.31504   3.32030   3.32614   3.33117   3.33280
 Alpha virt. eigenvalues --    3.34093   3.34398   3.34406   3.34600   3.35046
 Alpha virt. eigenvalues --    3.35279   3.35484   3.35840   3.36348   3.36537
 Alpha virt. eigenvalues --    3.36909   3.37009   3.37180   3.37543   3.37833
 Alpha virt. eigenvalues --    3.38223   3.38624   3.38796   3.39114   3.39453
 Alpha virt. eigenvalues --    3.39838   3.40136   3.40638   3.40909   3.41134
 Alpha virt. eigenvalues --    3.41616   3.41881   3.42045   3.42267   3.43098
 Alpha virt. eigenvalues --    3.43292   3.43846   3.44176   3.44379   3.44630
 Alpha virt. eigenvalues --    3.45117   3.45416   3.45733   3.45752   3.46104
 Alpha virt. eigenvalues --    3.46274   3.46717   3.47142   3.47403   3.47654
 Alpha virt. eigenvalues --    3.48026   3.48249   3.48326   3.48757   3.49041
 Alpha virt. eigenvalues --    3.49314   3.49984   3.49996   3.50497   3.51191
 Alpha virt. eigenvalues --    3.51408   3.51447   3.51719   3.52190   3.52950
 Alpha virt. eigenvalues --    3.53277   3.53422   3.53602   3.53832   3.54072
 Alpha virt. eigenvalues --    3.54379   3.54532   3.54981   3.55161   3.55449
 Alpha virt. eigenvalues --    3.55749   3.56072   3.56632   3.56797   3.57062
 Alpha virt. eigenvalues --    3.57429   3.57755   3.57836   3.58010   3.58667
 Alpha virt. eigenvalues --    3.59424   3.59879   3.60356   3.60851   3.60952
 Alpha virt. eigenvalues --    3.62372   3.62517   3.63274   3.63437   3.63863
 Alpha virt. eigenvalues --    3.64773   3.64956   3.65179   3.65531   3.66021
 Alpha virt. eigenvalues --    3.67051   3.67506   3.67594   3.68192   3.68560
 Alpha virt. eigenvalues --    3.69695   3.69868   3.70209   3.70860   3.71349
 Alpha virt. eigenvalues --    3.71714   3.72138   3.72247   3.73622   3.74386
 Alpha virt. eigenvalues --    3.74608   3.75639   3.76103   3.76573   3.77768
 Alpha virt. eigenvalues --    3.77954   3.78548   3.79605   3.80524   3.81504
 Alpha virt. eigenvalues --    3.81815   3.82470   3.82867   3.83692   3.84427
 Alpha virt. eigenvalues --    3.85021   3.85532   3.86604   3.87974   3.88088
 Alpha virt. eigenvalues --    3.88414   3.89457   3.89688   3.90684   3.92022
 Alpha virt. eigenvalues --    3.92335   3.93311   3.94330   3.95348   3.95835
 Alpha virt. eigenvalues --    3.95976   3.96223   3.96732   3.97568   3.97976
 Alpha virt. eigenvalues --    3.98105   3.99067   3.99768   4.00081   4.00662
 Alpha virt. eigenvalues --    4.01302   4.01596   4.02514   4.03516   4.04491
 Alpha virt. eigenvalues --    4.04827   4.05117   4.05964   4.06447   4.07294
 Alpha virt. eigenvalues --    4.07784   4.08102   4.08802   4.09698   4.09881
 Alpha virt. eigenvalues --    4.10600   4.11065   4.11630   4.12995   4.13473
 Alpha virt. eigenvalues --    4.13501   4.14268   4.15050   4.15707   4.15804
 Alpha virt. eigenvalues --    4.16062   4.16578   4.16977   4.17396   4.17515
 Alpha virt. eigenvalues --    4.18300   4.19135   4.20110   4.20417   4.21418
 Alpha virt. eigenvalues --    4.21995   4.22394   4.22956   4.23398   4.23439
 Alpha virt. eigenvalues --    4.24029   4.24320   4.24378   4.24802   4.24985
 Alpha virt. eigenvalues --    4.25725   4.26021   4.26662   4.27153   4.27413
 Alpha virt. eigenvalues --    4.27693   4.28013   4.28158   4.28799   4.29056
 Alpha virt. eigenvalues --    4.29436   4.29594   4.30759   4.31170   4.31416
 Alpha virt. eigenvalues --    4.31798   4.31905   4.32878   4.33013   4.34576
 Alpha virt. eigenvalues --    4.35199   4.35611   4.36127   4.36702   4.37166
 Alpha virt. eigenvalues --    4.37581   4.38858   4.39280   4.41186   4.41695
 Alpha virt. eigenvalues --    4.42453   4.42694   4.43974   4.45367   4.45795
 Alpha virt. eigenvalues --    4.46899   4.47849   4.48400   4.49910   4.50561
 Alpha virt. eigenvalues --    4.51512   4.52597   4.53016   4.53398   4.54516
 Alpha virt. eigenvalues --    4.55769   4.56352   4.57770   4.58195   4.60319
 Alpha virt. eigenvalues --    4.62860   4.63186   4.63856   4.65393   4.66305
 Alpha virt. eigenvalues --    4.66521   4.67240   4.68345   4.68843   4.70010
 Alpha virt. eigenvalues --    4.70432   4.71216   4.71808   4.72661   4.72847
 Alpha virt. eigenvalues --    4.73985   4.74767   4.75020   4.75321   4.76141
 Alpha virt. eigenvalues --    4.77132   4.78466   4.78964   4.79707   4.80427
 Alpha virt. eigenvalues --    4.80556   4.82750   4.84140   4.86152   4.87983
 Alpha virt. eigenvalues --    4.88763   4.90018   4.90485   4.90563   4.91492
 Alpha virt. eigenvalues --    4.93143   4.93857   4.94795   4.95675   4.97116
 Alpha virt. eigenvalues --    4.97495   4.98458   5.01107   5.01890   5.03066
 Alpha virt. eigenvalues --    5.05842   5.06759   5.08574   5.11440   5.13798
 Alpha virt. eigenvalues --    5.15940   5.16498   5.17681   5.18789   5.19574
 Alpha virt. eigenvalues --    5.21352   5.22609   5.23198   5.24131   5.24311
 Alpha virt. eigenvalues --    5.24473   5.24570   5.25196   5.25302   5.25597
 Alpha virt. eigenvalues --    5.26149   5.26298   5.26848   5.27231   5.28426
 Alpha virt. eigenvalues --    5.28694   5.29331   5.30263   5.32645   5.34706
 Alpha virt. eigenvalues --    5.37278   5.38615   5.40877   5.41480   5.42544
 Alpha virt. eigenvalues --    5.44099   5.45193   5.46864   5.47655   5.48793
 Alpha virt. eigenvalues --    5.49091   5.52249   5.54605   5.56338   5.57979
 Alpha virt. eigenvalues --    5.59005   5.60127   5.60814   5.61883   5.62276
 Alpha virt. eigenvalues --    5.63354   5.65169   5.68099   5.69260   5.70043
 Alpha virt. eigenvalues --    5.71434   5.73589   5.75685   5.78480   5.80065
 Alpha virt. eigenvalues --    5.83430   5.84801   5.89348   5.90034   5.91726
 Alpha virt. eigenvalues --    5.95140   6.00225   6.11484   6.12721   6.13414
 Alpha virt. eigenvalues --    6.20468   6.23221   6.29881   6.42573   6.44859
 Alpha virt. eigenvalues --    6.45068   6.45965   6.46661   6.47236   6.48192
 Alpha virt. eigenvalues --    6.53572   6.56400   6.59749   6.65644   6.66027
 Alpha virt. eigenvalues --    6.69620   6.72953   6.77132   6.82291   6.86392
 Alpha virt. eigenvalues --    6.87146   6.89267   6.92700   6.95970   6.98506
 Alpha virt. eigenvalues --    6.99102   7.01597   7.12573   7.15186   7.16966
 Alpha virt. eigenvalues --    7.17889   7.22383   7.22757   7.33471   7.51483
 Alpha virt. eigenvalues --    7.55351  22.09071  22.19032  22.23836  22.31540
 Alpha virt. eigenvalues --   22.49268  22.58443  22.59115  22.60929  22.62215
 Alpha virt. eigenvalues --   22.62535  22.64073  22.66372  22.70019  22.71784
 Alpha virt. eigenvalues --   22.76380  22.80368  22.81521  22.83387  22.83773
 Alpha virt. eigenvalues --   22.84254  22.85252  22.87179  22.92021  22.98395
 Alpha virt. eigenvalues --   23.07095  23.08369  23.13019  23.16581  23.19506
 Alpha virt. eigenvalues --   23.24816  23.25699  23.26860  23.34987  23.37787
 Alpha virt. eigenvalues --   23.53210  23.65423  23.79525  23.88812  43.99465
 Alpha virt. eigenvalues --   44.01338  44.02835  44.10455  44.67787
          Condensed to atoms (all electrons):
 Mulliken charges:
               1
     1  C    0.221648
     2  C   -0.095784
     3  C    0.223718
     4  C    0.038779
     5  C   -0.214818
     6  C   -0.305947
     7  C    0.371218
     8  C    0.064009
     9  C    0.208433
    10  C   -0.033347
    11  C    0.135685
    12  C    0.040839
    13  C   -0.295140
    14  H    0.157357
    15  H    0.103560
    16  H    0.174805
    17  O   -0.239245
    18  O   -0.464320
    19  O   -0.479415
    20  C   -0.029692
    21  C   -0.296837
    22  C   -0.096459
    23  C   -0.135073
    24  H    0.137747
    25  C   -0.192666
    26  C   -0.163174
    27  H    0.144255
    28  H    0.129253
    29  H    0.142698
    30  C    0.221220
    31  O   -0.511795
    32  O   -0.508563
    33  C    0.109007
    34  C   -0.227950
    35  C   -0.212743
    36  C   -0.158216
    37  H    0.127031
    38  C   -0.141271
    39  H    0.132633
    40  C   -0.160701
    41  H    0.139870
    42  H    0.138172
    43  H    0.141063
    44  C    0.051847
    45  C   -0.217019
    46  C   -0.232549
    47  C   -0.143998
    48  H    0.134685
    49  C   -0.161514
    50  H    0.128879
    51  C   -0.157160
    52  H    0.138444
    53  H    0.139555
    54  H    0.141036
    55  C    0.059127
    56  C   -0.258531
    57  C   -0.216864
    58  C   -0.169077
    59  H    0.187833
    60  C   -0.150632
    61  H    0.122954
    62  C   -0.159546
    63  H    0.139387
    64  H    0.140600
    65  H    0.142696
 Sum of Mulliken charges =  -2.00000
 Mulliken charges with hydrogens summed into heavy atoms:
               1
     1  C    0.221648
     2  C   -0.095784
     3  C    0.223718
     4  C    0.038779
     5  C   -0.057461
     6  C   -0.202387
     7  C    0.371218
     8  C    0.064009
     9  C    0.208433
    10  C   -0.033347
    11  C    0.135685
    12  C    0.040839
    13  C   -0.120336
    17  O   -0.239245
    18  O   -0.464320
    19  O   -0.479415
    20  C   -0.029692
    21  C   -0.159090
    22  C   -0.096459
    23  C    0.009183
    25  C   -0.063414
    26  C   -0.020476
    30  C    0.221220
    31  O   -0.511795
    32  O   -0.508563
    33  C    0.109007
    34  C   -0.100918
    35  C   -0.080110
    36  C   -0.018346
    38  C   -0.003099
    40  C   -0.019637
    44  C    0.051847
    45  C   -0.082334
    46  C   -0.103670
    47  C   -0.005554
    49  C   -0.021959
    51  C   -0.016124
    55  C    0.059127
    56  C   -0.070698
    57  C   -0.093910
    58  C   -0.029690
    60  C   -0.010031
    62  C   -0.016850
 Electronic spatial extent (au):  <R**2>=          22288.6909
 Charge=             -2.0000 electrons
 Dipole moment (field-independent basis, Debye):
    X=              2.3589    Y=              5.0024    Z=            -11.0720  Tot=             12.3765
 Quadrupole moment (field-independent basis, Debye-Ang):
   XX=           -342.8947   YY=           -324.4461   ZZ=           -275.5686
   XY=             44.9726   XZ=             34.6562   YZ=              9.6179
 Traceless Quadrupole moment (field-independent basis, Debye-Ang):
   XX=            -28.5916   YY=            -10.1429   ZZ=             38.7345
   XY=             44.9726   XZ=             34.6562   YZ=              9.6179
 Octapole moment (field-independent basis, Debye-Ang**2):
  XXX=           -114.8725  YYY=             -7.9954  ZZZ=            -74.1700  XYY=            -97.0375
  XXY=            233.7450  XXZ=            -25.2346  XZZ=             94.0543  YZZ=             42.9754
  YYZ=            -87.8531  XYZ=            -56.6788
 Hexadecapole moment (field-independent basis, Debye-Ang**3):
 XXXX=         -19753.0716 YYYY=         -12213.1205 ZZZZ=          -1802.5268 XXXY=           1102.4925
 XXXZ=            527.7930 YYYX=            819.3997 YYYZ=           -142.2979 ZZZX=            206.1380
 ZZZY=            129.3480 XXYY=          -5462.7042 XXZZ=          -3610.1388 YYZZ=          -2178.7183
 XXYZ=             -9.2539 YYXZ=            184.1886 ZZXY=            -33.8017
 N-N= 4.789560824858D+03 E-N=-1.392442423628D+04  KE= 1.829543389620D+03
 Leave Link  601 at Thu Feb  3 15:42:34 2022, MaxMem=  5242880000 cpu:         9.1
 (Enter /opt/nce/packages/global/g09/l9999.exe)
 1\1\GINC-CN028\SP\RB3LYP TD-FC\Gen\C38H22O5(2-)\PNG4RJV\03-Feb-2022\0\
 \#p b3lyp chkbasis geom=allcheck Guess=Read int=ultrafine scrf=(SMD,so
 lvent=Acetonitrile) td=(NStates=30) EmpiricalDispersion=GD3BJ\\Title\\
 -2,1\C,0,-5.0354850303,-2.4679794242,1.3943371486\C,0,-3.6563479535,-2
 .1212243442,1.0961457546\C,0,-3.399005288,-1.0955637381,0.2106260918\C
 ,0,-4.4074652785,-0.3563779543,-0.471090029\C,0,-5.7552408368,-0.69445
 89364,-0.1623102215\C,0,-6.0540596214,-1.685755493,0.7166363064\C,0,-4
 .0325615035,0.6629457803,-1.3587226419\C,0,-2.6721567991,0.9557269096,
 -1.5456410502\C,0,-1.6961150076,0.2361177101,-0.8065859029\C,0,-0.3452
 470272,0.4833217126,-0.8926243775\C,0,0.1452279296,1.5260686451,-1.777
 6270229\C,0,-0.8625487794,2.2566397381,-2.5601012732\C,0,-2.1885694504
 ,1.9506834337,-2.4288432526\H,0,-6.5488178805,-0.1355310501,-0.6389563
 \H,0,-7.0846991637,-1.9293047823,0.945915457\H,0,-2.9110867789,2.48866
 63055,-3.0237743711\O,0,-2.089984694,-0.7742231268,0.0156518803\O,0,1.
 3634935776,1.8009314925,-1.8486238082\O,0,-5.3467861871,-3.3887142367,
 2.1855554318\C,0,-5.0612183897,1.3931940885,-2.1433532766\C,0,-5.77541
 6188,0.6854620293,-3.1145389911\C,0,-5.2925308593,2.7674537548,-1.9788
 485045\C,0,-6.7263367271,1.3157485642,-3.9056778323\H,0,-5.5738729269,
 -0.3695425645,-3.2513663577\C,0,-6.2394171588,3.3897944199,-2.79367055
 18\C,0,-6.9637523726,2.676181392,-3.7393545968\H,0,-7.2724582406,0.748
 9444429,-4.6491375607\H,0,-6.401582132,4.4533076055,-2.6744515305\H,0,
 -7.7045601401,3.1793447127,-4.3486859303\C,0,-4.5584428188,3.602940943
 6,-0.9304904342\O,0,-4.0932436609,4.6968503403,-1.3317084763\O,0,-4.51
 33547082,3.1285207561,0.227159834\C,0,-2.5491813456,-2.8622688199,1.74
 45649184\C,0,-2.465410006,-2.9483833415,3.1373785085\C,0,-1.5580837887
 ,-3.4918573257,0.9842283077\C,0,-1.4201348196,-3.6305675874,3.74951770
 76\H,0,-3.2242624518,-2.4708083193,3.7422399158\C,0,-0.5143403089,-4.1
 771929355,1.5927066977\H,0,-1.6036523172,-3.4378926742,-0.0956211657\C
 ,0,-0.4391843235,-4.2481083054,2.9798808174\H,0,-1.3699748206,-3.67651
 15297,4.8306830255\H,0,0.2456460745,-4.648792229,0.9822610395\H,0,0.37
 82050968,-4.7747044401,3.4564410988\C,0,0.6156935229,-0.2923741243,-0.
 0722218969\C,0,0.5144163297,-0.315777713,1.3220205473\C,0,1.6392588377
 ,-1.0306692946,-0.6724182233\C,0,1.4011247634,-1.0576608127,2.09233867
 04\H,0,-0.2724210287,0.2481726702,1.8057847356\C,0,2.5267484108,-1.776
 2921645,0.0951947563\H,0,1.7347047342,-1.0227237271,-1.7501085905\C,0,
 2.4113378607,-1.7933381031,1.4817844945\H,0,1.2969284325,-1.0674269344
 ,3.1701391939\H,0,3.3079026493,-2.3479104757,-0.3911902475\H,0,3.09854
 93448,-2.3786282826,2.0799133553\C,0,-0.465310194,3.358417634,-3.46253
 26118\C,0,-1.2591356549,4.5125050271,-3.5423146168\C,0,0.6732173191,3.
 2838740839,-4.2759215543\C,0,-0.9323735766,5.5462803925,-4.4117603139\
 H,0,-2.1332504246,4.6022094016,-2.9067904085\C,0,0.9959377606,4.317542
 6177,-5.1467204155\H,0,1.3024235277,2.4083352323,-4.2219457093\C,0,0.1
 966817454,5.4549570798,-5.2196857859\H,0,-1.5585983555,6.4295029613,-4
 .451619792\H,0,1.8761300986,4.2338127428,-5.7728829008\H,0,0.453707003
 2,6.26179017,-5.8947841685\\Version=ES64L-G09RevE.01\State=1-A\HF=-183
 8.6078924\RMSD=3.658e-09\PG=C01 [X(C38H22O5)]\\@


  ON THE CHOICE OF THE CORRECT LANGUAGE -
 I SPEAK SPANISH TO GOD, ITALIAN TO WOMEN,
 FRENCH TO MEN, AND GERMAN TO MY HORSE.
          -- CHARLES V
 Job cpu time:       5 days 20 hours 30 minutes 34.0 seconds.
 File lengths (MBytes):  RWF=  10580 Int=      0 D2E=      0 Chk=   1912 Scr=      1
 Normal termination of Gaussian 09 at Thu Feb  3 15:42:37 2022.
