 Entering Gaussian System, Link 0=g09
 Input=/home/png4rjv/fotokatalizis/benchmark/OPCs/Eos_1_CAM-B3LYP-D3_def2TZVP.gjf
 Output=/home/png4rjv/fotokatalizis/benchmark/OPCs/Eos_1_CAM-B3LYP-D3_def2TZVP.log
 Initial command:
 /opt/nce/packages/global/g09/l1.exe "/home/png4rjv/fotokatalizis/benchmark/OPCs/Eos_1_CAM-B3LYP-D3_def2TZVP/Gau-47864.inp" -scrdir="/home/png4rjv/fotokatalizis/benchmark/OPCs/Eos_1_CAM-B3LYP-D3_def2TZVP/"
 Default is to use a total of  12 processors:
                               12 via shared-memory
                                1 via Linda
 Entering Link 1 = /opt/nce/packages/global/g09/l1.exe PID=     47865.
  
 Copyright (c) 1988,1990,1992,1993,1995,1998,2003,2009,2015,
            Gaussian, Inc.  All Rights Reserved.
  
 This is part of the Gaussian(R) 09 program.  It is based on
 the Gaussian(R) 03 system (copyright 2003, Gaussian, Inc.),
 the Gaussian(R) 98 system (copyright 1998, Gaussian, Inc.),
 the Gaussian(R) 94 system (copyright 1995, Gaussian, Inc.),
 the Gaussian 92(TM) system (copyright 1992, Gaussian, Inc.),
 the Gaussian 90(TM) system (copyright 1990, Gaussian, Inc.),
 the Gaussian 88(TM) system (copyright 1988, Gaussian, Inc.),
 the Gaussian 86(TM) system (copyright 1986, Carnegie Mellon
 University), and the Gaussian 82(TM) system (copyright 1983,
 Carnegie Mellon University). Gaussian is a federally registered
 trademark of Gaussian, Inc.
  
 This software contains proprietary and confidential information,
 including trade secrets, belonging to Gaussian, Inc.
  
 This software is provided under written license and may be
 used, copied, transmitted, or stored only in accord with that
 written license.
  
 The following legend is applicable only to US Government
 contracts under FAR:
  
                    RESTRICTED RIGHTS LEGEND
  
 Use, reproduction and disclosure by the US Government is
 subject to restrictions as set forth in subparagraphs (a)
 and (c) of the Commercial Computer Software - Restricted
 Rights clause in FAR 52.227-19.
  
 Gaussian, Inc.
 340 Quinnipiac St., Bldg. 40, Wallingford CT 06492
  
  
 ---------------------------------------------------------------
 Warning -- This program may not be used in any manner that
 competes with the business of Gaussian, Inc. or will provide
 assistance to any competitor of Gaussian, Inc.  The licensee
 of this program is prohibited from giving any competitor of
 Gaussian, Inc. access to this program.  By using this program,
 the user acknowledges that Gaussian, Inc. is engaged in the
 business of creating and licensing software in the field of
 computational chemistry and represents and warrants to the
 licensee that it is not a competitor of Gaussian, Inc. and that
 it will not use this program in any manner prohibited above.
 ---------------------------------------------------------------
  

 Cite this work as:
 Gaussian 09, Revision E.01,
 M. J. Frisch, G. W. Trucks, H. B. Schlegel, G. E. Scuseria, 
 M. A. Robb, J. R. Cheeseman, G. Scalmani, V. Barone, B. Mennucci, 
 G. A. Petersson, H. Nakatsuji, M. Caricato, X. Li, H. P. Hratchian, 
 A. F. Izmaylov, J. Bloino, G. Zheng, J. L. Sonnenberg, M. Hada, 
 M. Ehara, K. Toyota, R. Fukuda, J. Hasegawa, M. Ishida, T. Nakajima, 
 Y. Honda, O. Kitao, H. Nakai, T. Vreven, J. A. Montgomery, Jr., 
 J. E. Peralta, F. Ogliaro, M. Bearpark, J. J. Heyd, E. Brothers, 
 K. N. Kudin, V. N. Staroverov, T. Keith, R. Kobayashi, J. Normand, 
 K. Raghavachari, A. Rendell, J. C. Burant, S. S. Iyengar, J. Tomasi, 
 M. Cossi, N. Rega, J. M. Millam, M. Klene, J. E. Knox, J. B. Cross, 
 V. Bakken, C. Adamo, J. Jaramillo, R. Gomperts, R. E. Stratmann, 
 O. Yazyev, A. J. Austin, R. Cammi, C. Pomelli, J. W. Ochterski, 
 R. L. Martin, K. Morokuma, V. G. Zakrzewski, G. A. Voth, 
 P. Salvador, J. J. Dannenberg, S. Dapprich, A. D. Daniels, 
 O. Farkas, J. B. Foresman, J. V. Ortiz, J. Cioslowski, 
 and D. J. Fox, Gaussian, Inc., Wallingford CT, 2013.
 
 ******************************************
 Gaussian 09:  ES64L-G09RevE.01 30-Nov-2015
                 2-Feb-2022 
 ******************************************
 %chk=cp.chk
 Default route:  MaxDisk=500GB
 ----------------------------------------------------------------------
 #p cam-b3lyp/def2TZVP opt freq=noraman nosymm int=ultrafine scrf=(SMD,
 solvent=Acetonitrile) EmpiricalDispersion=GD3BJ
 ----------------------------------------------------------------------
 1/14=-1,18=20,19=15,26=4,38=1/1,3;
 2/9=110,12=2,15=1,17=6,18=5,40=1/2;
 3/5=44,7=101,11=2,16=1,25=1,30=1,70=32201,71=1,72=2,74=-40,75=-5,124=41/1,2,3;
 4//1;
 5/5=2,38=5,53=2/2;
 6/7=2,8=2,9=2,10=2,28=1/1;
 7/30=1/1,2,3,16;
 1/14=-1,18=20,19=15,26=4/3(2);
 2/9=110,15=1/2;
 99//99;
 2/9=110,15=1/2;
 3/5=44,7=101,11=2,16=1,25=1,30=1,70=32205,71=1,72=2,74=-40,75=-5,124=41/1,2,3;
 4/5=5,16=3,69=1/1;
 5/5=2,38=5,53=2/2;
 7/30=1/1,2,3,16;
 1/14=-1,18=20,19=15,26=4/3(-5);
 2/9=110,15=1/2;
 6/7=2,8=2,9=2,10=2,19=2,28=1/1;
 99/9=1/99;
 Leave Link    1 at Wed Feb  2 04:23:20 2022, MaxMem=           0 cpu:         1.3
 (Enter /opt/nce/packages/global/g09/l101.exe)
 -----
 Title
 -----
 Symbolic Z-matrix:
 Charge = -2 Multiplicity = 1
 C                    -5.06141  -2.31805   1.46291 
 C                    -3.67091  -2.00625   1.18343 
 C                    -3.38623  -0.97861   0.28814 
 C                    -4.38644  -0.22882  -0.39188 
 C                    -5.74206  -0.55494  -0.1197 
 C                    -6.06537  -1.54464   0.76617 
 C                    -4.00358   0.80796  -1.26348 
 C                    -2.63424   1.05068  -1.48694 
 C                    -1.66597   0.29696  -0.76956 
 C                    -0.29848   0.48511  -0.92287 
 C                     0.18486   1.4914   -1.8538 
 C                    -0.81713   2.26841  -2.59393 
 C                    -2.158     2.02853  -2.39061 
 H                    -6.52891   0.02117  -0.63713 
 H                    -7.118    -1.79736   0.98195 
 H                    -2.90984   2.60065  -2.9631 
 O                    -2.067    -0.68274   0.09245 
 O                     1.42527   1.71065  -1.9965 
 O                    -5.40302  -3.24347   2.26979 
 C                    -5.02397   1.48645  -2.1032 
 C                    -5.36435   0.88564  -3.32344 
 C                    -5.64959   2.68745  -1.73084 
 C                    -6.31255   1.46738  -4.16453 
 H                    -4.87039  -0.05782  -3.61385 
 C                    -6.59977   3.261    -2.58184 
 C                    -6.93499   2.66165  -3.79297 
 H                    -6.56716   0.98064  -5.12079 
 H                    -7.06847   4.20308  -2.24922 
 H                    -7.68638   3.12496  -4.45424 
 C                    -5.30856   3.36076  -0.4184 
 O                    -5.90723   4.44329  -0.14123 
 O                    -4.44538   2.77764   0.30149 
 C                    -2.6015   -2.78042   1.84217 
 C                    -2.65819  -3.03167   3.2242 
 C                    -1.5173   -3.30154   1.1169 
 C                    -1.65628  -3.76494   3.85957 
 H                    -3.5099   -2.63752   3.80173 
 C                    -0.51934  -4.0398    1.75026 
 H                    -1.45309  -3.11438   0.03237 
 C                    -0.58224  -4.27418   3.12502 
 H                    -1.71582  -3.94289   4.94708 
 H                     0.32894  -4.42671   1.16077 
 H                     0.21008  -4.8543    3.62773 
 C                     0.6796   -0.31384  -0.15908 
 C                     0.55811  -0.49827   1.22742 
 C                     1.77089  -0.90799  -0.81581 
 C                     1.48942  -1.25778   1.93392 
 H                    -0.29317  -0.04308   1.76006 
 C                     2.69869  -1.67422  -0.11124 
 H                     1.88258  -0.75722  -1.90168 
 C                     2.56336  -1.85104   1.2685 
 H                     1.36522  -1.39964   3.02079 
 H                     3.54327  -2.13964  -0.64789 
 H                     3.29742  -2.45731   1.82587 
 C                    -0.39674   3.31842  -3.53776 
 C                    -1.15752   4.49405  -3.67416 
 C                     0.74505   3.17328  -4.34776 
 C                    -0.80436   5.48093  -4.59273 
 H                    -2.0374    4.6429   -3.02398 
 C                     1.09627   4.15937  -5.26896 
 H                     1.35597   2.26421  -4.23829 
 C                     0.32634   5.31821  -5.39683 
 H                    -1.41486   6.39618  -4.67389 
 H                     1.99012   4.02023  -5.90089 
 H                     0.61126   6.09954  -6.12126 
 
 NAtoms=     65 NQM=       65 NQMF=       0 NMMI=      0 NMMIF=      0
                NMic=       0 NMicF=      0.
                    Isotopes and Nuclear Properties:
 (Nuclear quadrupole moments (NQMom) in fm**2, nuclear magnetic moments (NMagM)
  in nuclear magnetons)

  Atom         1           2           3           4           5           6           7           8           9          10
 IAtWgt=          12          12          12          12          12          12          12          12          12          12
 AtmWgt=  12.0000000  12.0000000  12.0000000  12.0000000  12.0000000  12.0000000  12.0000000  12.0000000  12.0000000  12.0000000
 NucSpn=           0           0           0           0           0           0           0           0           0           0
 AtZEff=   0.0000000   0.0000000   0.0000000   0.0000000   0.0000000   0.0000000   0.0000000   0.0000000   0.0000000   0.0000000
 NQMom=    0.0000000   0.0000000   0.0000000   0.0000000   0.0000000   0.0000000   0.0000000   0.0000000   0.0000000   0.0000000
 NMagM=    0.0000000   0.0000000   0.0000000   0.0000000   0.0000000   0.0000000   0.0000000   0.0000000   0.0000000   0.0000000
 AtZNuc=   6.0000000   6.0000000   6.0000000   6.0000000   6.0000000   6.0000000   6.0000000   6.0000000   6.0000000   6.0000000

  Atom        11          12          13          14          15          16          17          18          19          20
 IAtWgt=          12          12          12           1           1           1          16          16          16          12
 AtmWgt=  12.0000000  12.0000000  12.0000000   1.0078250   1.0078250   1.0078250  15.9949146  15.9949146  15.9949146  12.0000000
 NucSpn=           0           0           0           1           1           1           0           0           0           0
 AtZEff=   0.0000000   0.0000000   0.0000000   0.0000000   0.0000000   0.0000000   0.0000000   0.0000000   0.0000000   0.0000000
 NQMom=    0.0000000   0.0000000   0.0000000   0.0000000   0.0000000   0.0000000   0.0000000   0.0000000   0.0000000   0.0000000
 NMagM=    0.0000000   0.0000000   0.0000000   2.7928460   2.7928460   2.7928460   0.0000000   0.0000000   0.0000000   0.0000000
 AtZNuc=   6.0000000   6.0000000   6.0000000   1.0000000   1.0000000   1.0000000   8.0000000   8.0000000   8.0000000   6.0000000

  Atom        21          22          23          24          25          26          27          28          29          30
 IAtWgt=          12          12          12           1          12          12           1           1           1          12
 AtmWgt=  12.0000000  12.0000000  12.0000000   1.0078250  12.0000000  12.0000000   1.0078250   1.0078250   1.0078250  12.0000000
 NucSpn=           0           0           0           1           0           0           1           1           1           0
 AtZEff=   0.0000000   0.0000000   0.0000000   0.0000000   0.0000000   0.0000000   0.0000000   0.0000000   0.0000000   0.0000000
 NQMom=    0.0000000   0.0000000   0.0000000   0.0000000   0.0000000   0.0000000   0.0000000   0.0000000   0.0000000   0.0000000
 NMagM=    0.0000000   0.0000000   0.0000000   2.7928460   0.0000000   0.0000000   2.7928460   2.7928460   2.7928460   0.0000000
 AtZNuc=   6.0000000   6.0000000   6.0000000   1.0000000   6.0000000   6.0000000   1.0000000   1.0000000   1.0000000   6.0000000

  Atom        31          32          33          34          35          36          37          38          39          40
 IAtWgt=          16          16          12          12          12          12           1          12           1          12
 AtmWgt=  15.9949146  15.9949146  12.0000000  12.0000000  12.0000000  12.0000000   1.0078250  12.0000000   1.0078250  12.0000000
 NucSpn=           0           0           0           0           0           0           1           0           1           0
 AtZEff=   0.0000000   0.0000000   0.0000000   0.0000000   0.0000000   0.0000000   0.0000000   0.0000000   0.0000000   0.0000000
 NQMom=    0.0000000   0.0000000   0.0000000   0.0000000   0.0000000   0.0000000   0.0000000   0.0000000   0.0000000   0.0000000
 NMagM=    0.0000000   0.0000000   0.0000000   0.0000000   0.0000000   0.0000000   2.7928460   0.0000000   2.7928460   0.0000000
 AtZNuc=   8.0000000   8.0000000   6.0000000   6.0000000   6.0000000   6.0000000   1.0000000   6.0000000   1.0000000   6.0000000

  Atom        41          42          43          44          45          46          47          48          49          50
 IAtWgt=           1           1           1          12          12          12          12           1          12           1
 AtmWgt=   1.0078250   1.0078250   1.0078250  12.0000000  12.0000000  12.0000000  12.0000000   1.0078250  12.0000000   1.0078250
 NucSpn=           1           1           1           0           0           0           0           1           0           1
 AtZEff=   0.0000000   0.0000000   0.0000000   0.0000000   0.0000000   0.0000000   0.0000000   0.0000000   0.0000000   0.0000000
 NQMom=    0.0000000   0.0000000   0.0000000   0.0000000   0.0000000   0.0000000   0.0000000   0.0000000   0.0000000   0.0000000
 NMagM=    2.7928460   2.7928460   2.7928460   0.0000000   0.0000000   0.0000000   0.0000000   2.7928460   0.0000000   2.7928460
 AtZNuc=   1.0000000   1.0000000   1.0000000   6.0000000   6.0000000   6.0000000   6.0000000   1.0000000   6.0000000   1.0000000

  Atom        51          52          53          54          55          56          57          58          59          60
 IAtWgt=          12           1           1           1          12          12          12          12           1          12
 AtmWgt=  12.0000000   1.0078250   1.0078250   1.0078250  12.0000000  12.0000000  12.0000000  12.0000000   1.0078250  12.0000000
 NucSpn=           0           1           1           1           0           0           0           0           1           0
 AtZEff=   0.0000000   0.0000000   0.0000000   0.0000000   0.0000000   0.0000000   0.0000000   0.0000000   0.0000000   0.0000000
 NQMom=    0.0000000   0.0000000   0.0000000   0.0000000   0.0000000   0.0000000   0.0000000   0.0000000   0.0000000   0.0000000
 NMagM=    0.0000000   2.7928460   2.7928460   2.7928460   0.0000000   0.0000000   0.0000000   0.0000000   2.7928460   0.0000000
 AtZNuc=   6.0000000   1.0000000   1.0000000   1.0000000   6.0000000   6.0000000   6.0000000   6.0000000   1.0000000   6.0000000

  Atom        61          62          63          64          65
 IAtWgt=           1          12           1           1           1
 AtmWgt=   1.0078250  12.0000000   1.0078250   1.0078250   1.0078250
 NucSpn=           1           0           1           1           1
 AtZEff=   0.0000000   0.0000000   0.0000000   0.0000000   0.0000000
 NQMom=    0.0000000   0.0000000   0.0000000   0.0000000   0.0000000
 NMagM=    2.7928460   0.0000000   2.7928460   2.7928460   2.7928460
 AtZNuc=   1.0000000   6.0000000   1.0000000   1.0000000   1.0000000
 Leave Link  101 at Wed Feb  2 04:23:20 2022, MaxMem=  5242880000 cpu:         4.2
 (Enter /opt/nce/packages/global/g09/l103.exe)

 GradGradGradGradGradGradGradGradGradGradGradGradGradGradGradGradGradGrad
 Berny optimization.
 Initialization pass.
                           ----------------------------
                           !    Initial Parameters    !
                           ! (Angstroms and Degrees)  !
 --------------------------                            --------------------------
 ! Name  Definition              Value          Derivative Info.                !
 --------------------------------------------------------------------------------
 ! R1    R(1,2)                  1.4522         estimate D2E/DX2                !
 ! R2    R(1,6)                  1.4462         estimate D2E/DX2                !
 ! R3    R(1,19)                 1.2744         estimate D2E/DX2                !
 ! R4    R(2,3)                  1.3924         estimate D2E/DX2                !
 ! R5    R(2,33)                 1.4754         estimate D2E/DX2                !
 ! R6    R(3,4)                  1.423          estimate D2E/DX2                !
 ! R7    R(3,17)                 1.3661         estimate D2E/DX2                !
 ! R8    R(4,5)                  1.4206         estimate D2E/DX2                !
 ! R9    R(4,7)                  1.4075         estimate D2E/DX2                !
 ! R10   R(5,6)                  1.367          estimate D2E/DX2                !
 ! R11   R(5,14)                 1.104          estimate D2E/DX2                !
 ! R12   R(6,15)                 1.1038         estimate D2E/DX2                !
 ! R13   R(7,8)                  1.4085         estimate D2E/DX2                !
 ! R14   R(7,20)                 1.4855         estimate D2E/DX2                !
 ! R15   R(8,9)                  1.4214         estimate D2E/DX2                !
 ! R16   R(8,13)                 1.4141         estimate D2E/DX2                !
 ! R17   R(9,10)                 1.3889         estimate D2E/DX2                !
 ! R18   R(9,17)                 1.3652         estimate D2E/DX2                !
 ! R19   R(10,11)                1.4536         estimate D2E/DX2                !
 ! R20   R(10,44)                1.4759         estimate D2E/DX2                !
 ! R21   R(11,12)                1.4682         estimate D2E/DX2                !
 ! R22   R(11,18)                1.2677         estimate D2E/DX2                !
 ! R23   R(12,13)                1.3772         estimate D2E/DX2                !
 ! R24   R(12,55)                1.4731         estimate D2E/DX2                !
 ! R25   R(13,16)                1.1047         estimate D2E/DX2                !
 ! R26   R(20,21)                1.4021         estimate D2E/DX2                !
 ! R27   R(20,22)                1.4044         estimate D2E/DX2                !
 ! R28   R(21,23)                1.3946         estimate D2E/DX2                !
 ! R29   R(21,24)                1.1038         estimate D2E/DX2                !
 ! R30   R(22,25)                1.3986         estimate D2E/DX2                !
 ! R31   R(22,30)                1.514          estimate D2E/DX2                !
 ! R32   R(23,26)                1.3971         estimate D2E/DX2                !
 ! R33   R(23,27)                1.1028         estimate D2E/DX2                !
 ! R34   R(25,26)                1.3923         estimate D2E/DX2                !
 ! R35   R(25,28)                1.1036         estimate D2E/DX2                !
 ! R36   R(26,29)                1.103          estimate D2E/DX2                !
 ! R37   R(30,31)                1.2677         estimate D2E/DX2                !
 ! R38   R(30,32)                1.2662         estimate D2E/DX2                !
 ! R39   R(33,34)                1.4058         estimate D2E/DX2                !
 ! R40   R(33,35)                1.4047         estimate D2E/DX2                !
 ! R41   R(34,36)                1.3947         estimate D2E/DX2                !
 ! R42   R(34,37)                1.1019         estimate D2E/DX2                !
 ! R43   R(35,38)                1.3936         estimate D2E/DX2                !
 ! R44   R(35,39)                1.1024         estimate D2E/DX2                !
 ! R45   R(36,40)                1.3973         estimate D2E/DX2                !
 ! R46   R(36,41)                1.1036         estimate D2E/DX2                !
 ! R47   R(38,40)                1.396          estimate D2E/DX2                !
 ! R48   R(38,42)                1.1031         estimate D2E/DX2                !
 ! R49   R(40,43)                1.1032         estimate D2E/DX2                !
 ! R50   R(44,45)                1.404          estimate D2E/DX2                !
 ! R51   R(44,46)                1.4054         estimate D2E/DX2                !
 ! R52   R(45,47)                1.394          estimate D2E/DX2                !
 ! R53   R(45,48)                1.1025         estimate D2E/DX2                !
 ! R54   R(46,49)                1.3944         estimate D2E/DX2                !
 ! R55   R(46,50)                1.102          estimate D2E/DX2                !
 ! R56   R(47,51)                1.3957         estimate D2E/DX2                !
 ! R57   R(47,52)                1.1031         estimate D2E/DX2                !
 ! R58   R(49,51)                1.3976         estimate D2E/DX2                !
 ! R59   R(49,53)                1.1036         estimate D2E/DX2                !
 ! R60   R(51,54)                1.1032         estimate D2E/DX2                !
 ! R61   R(55,56)                1.4069         estimate D2E/DX2                !
 ! R62   R(55,57)                1.4074         estimate D2E/DX2                !
 ! R63   R(56,58)                1.3937         estimate D2E/DX2                !
 ! R64   R(56,59)                1.1041         estimate D2E/DX2                !
 ! R65   R(57,60)                1.3944         estimate D2E/DX2                !
 ! R66   R(57,61)                1.1007         estimate D2E/DX2                !
 ! R67   R(58,62)                1.397          estimate D2E/DX2                !
 ! R68   R(58,63)                1.1032         estimate D2E/DX2                !
 ! R69   R(60,62)                1.3972         estimate D2E/DX2                !
 ! R70   R(60,64)                1.1035         estimate D2E/DX2                !
 ! R71   R(62,65)                1.1029         estimate D2E/DX2                !
 ! A1    A(2,1,6)              117.2048         estimate D2E/DX2                !
 ! A2    A(2,1,19)             122.3053         estimate D2E/DX2                !
 ! A3    A(6,1,19)             120.4821         estimate D2E/DX2                !
 ! A4    A(1,2,3)              118.5548         estimate D2E/DX2                !
 ! A5    A(1,2,33)             119.6988         estimate D2E/DX2                !
 ! A6    A(3,2,33)             121.7459         estimate D2E/DX2                !
 ! A7    A(2,3,4)              123.5346         estimate D2E/DX2                !
 ! A8    A(2,3,17)             116.7055         estimate D2E/DX2                !
 ! A9    A(4,3,17)             119.7488         estimate D2E/DX2                !
 ! A10   A(3,4,5)              117.271          estimate D2E/DX2                !
 ! A11   A(3,4,7)              119.5264         estimate D2E/DX2                !
 ! A12   A(5,4,7)              123.1822         estimate D2E/DX2                !
 ! A13   A(4,5,6)              121.0671         estimate D2E/DX2                !
 ! A14   A(4,5,14)             118.0687         estimate D2E/DX2                !
 ! A15   A(6,5,14)             120.8615         estimate D2E/DX2                !
 ! A16   A(1,6,5)              122.3562         estimate D2E/DX2                !
 ! A17   A(1,6,15)             116.4478         estimate D2E/DX2                !
 ! A18   A(5,6,15)             121.1953         estimate D2E/DX2                !
 ! A19   A(4,7,8)              119.3151         estimate D2E/DX2                !
 ! A20   A(4,7,20)             119.9753         estimate D2E/DX2                !
 ! A21   A(8,7,20)             119.9611         estimate D2E/DX2                !
 ! A22   A(7,8,9)              119.3945         estimate D2E/DX2                !
 ! A23   A(7,8,13)             123.2274         estimate D2E/DX2                !
 ! A24   A(9,8,13)             117.3749         estimate D2E/DX2                !
 ! A25   A(8,9,10)             122.9009         estimate D2E/DX2                !
 ! A26   A(8,9,17)             119.9423         estimate D2E/DX2                !
 ! A27   A(10,9,17)            117.1395         estimate D2E/DX2                !
 ! A28   A(9,10,11)            119.4646         estimate D2E/DX2                !
 ! A29   A(9,10,44)            121.4692         estimate D2E/DX2                !
 ! A30   A(11,10,44)           119.0661         estimate D2E/DX2                !
 ! A31   A(10,11,12)           117.5361         estimate D2E/DX2                !
 ! A32   A(10,11,18)           121.1442         estimate D2E/DX2                !
 ! A33   A(12,11,18)           121.2988         estimate D2E/DX2                !
 ! A34   A(11,12,13)           119.8577         estimate D2E/DX2                !
 ! A35   A(11,12,55)           120.3621         estimate D2E/DX2                !
 ! A36   A(13,12,55)           119.7731         estimate D2E/DX2                !
 ! A37   A(8,13,12)            122.8657         estimate D2E/DX2                !
 ! A38   A(8,13,16)            117.394          estimate D2E/DX2                !
 ! A39   A(12,13,16)           119.7293         estimate D2E/DX2                !
 ! A40   A(3,17,9)             121.9754         estimate D2E/DX2                !
 ! A41   A(7,20,21)            117.5812         estimate D2E/DX2                !
 ! A42   A(7,20,22)            123.1409         estimate D2E/DX2                !
 ! A43   A(21,20,22)           119.2778         estimate D2E/DX2                !
 ! A44   A(20,21,23)           120.743          estimate D2E/DX2                !
 ! A45   A(20,21,24)           119.1168         estimate D2E/DX2                !
 ! A46   A(23,21,24)           120.1402         estimate D2E/DX2                !
 ! A47   A(20,22,25)           119.4729         estimate D2E/DX2                !
 ! A48   A(20,22,30)           120.6504         estimate D2E/DX2                !
 ! A49   A(25,22,30)           119.8764         estimate D2E/DX2                !
 ! A50   A(21,23,26)           119.9416         estimate D2E/DX2                !
 ! A51   A(21,23,27)           119.7237         estimate D2E/DX2                !
 ! A52   A(26,23,27)           120.3347         estimate D2E/DX2                !
 ! A53   A(22,25,26)           121.0877         estimate D2E/DX2                !
 ! A54   A(22,25,28)           117.0808         estimate D2E/DX2                !
 ! A55   A(26,25,28)           121.8314         estimate D2E/DX2                !
 ! A56   A(23,26,25)           119.477          estimate D2E/DX2                !
 ! A57   A(23,26,29)           120.2096         estimate D2E/DX2                !
 ! A58   A(25,26,29)           120.3134         estimate D2E/DX2                !
 ! A59   A(22,30,31)           117.5758         estimate D2E/DX2                !
 ! A60   A(22,30,32)           116.2056         estimate D2E/DX2                !
 ! A61   A(31,30,32)           126.2185         estimate D2E/DX2                !
 ! A62   A(2,33,34)            120.2288         estimate D2E/DX2                !
 ! A63   A(2,33,35)            121.5735         estimate D2E/DX2                !
 ! A64   A(34,33,35)           118.1911         estimate D2E/DX2                !
 ! A65   A(33,34,36)           120.8528         estimate D2E/DX2                !
 ! A66   A(33,34,37)           118.8467         estimate D2E/DX2                !
 ! A67   A(36,34,37)           120.3005         estimate D2E/DX2                !
 ! A68   A(33,35,38)           120.971          estimate D2E/DX2                !
 ! A69   A(33,35,39)           119.3351         estimate D2E/DX2                !
 ! A70   A(38,35,39)           119.6916         estimate D2E/DX2                !
 ! A71   A(34,36,40)           120.2852         estimate D2E/DX2                !
 ! A72   A(34,36,41)           119.6659         estimate D2E/DX2                !
 ! A73   A(40,36,41)           120.0488         estimate D2E/DX2                !
 ! A74   A(35,38,40)           120.2809         estimate D2E/DX2                !
 ! A75   A(35,38,42)           119.5791         estimate D2E/DX2                !
 ! A76   A(40,38,42)           120.1347         estimate D2E/DX2                !
 ! A77   A(36,40,38)           119.4151         estimate D2E/DX2                !
 ! A78   A(36,40,43)           120.2747         estimate D2E/DX2                !
 ! A79   A(38,40,43)           120.31           estimate D2E/DX2                !
 ! A80   A(10,44,45)           121.6564         estimate D2E/DX2                !
 ! A81   A(10,44,46)           120.1057         estimate D2E/DX2                !
 ! A82   A(45,44,46)           118.2372         estimate D2E/DX2                !
 ! A83   A(44,45,47)           120.9475         estimate D2E/DX2                !
 ! A84   A(44,45,48)           119.3185         estimate D2E/DX2                !
 ! A85   A(47,45,48)           119.7309         estimate D2E/DX2                !
 ! A86   A(44,46,49)           120.8538         estimate D2E/DX2                !
 ! A87   A(44,46,50)           118.772          estimate D2E/DX2                !
 ! A88   A(49,46,50)           120.3742         estimate D2E/DX2                !
 ! A89   A(45,47,51)           120.2653         estimate D2E/DX2                !
 ! A90   A(45,47,52)           119.6166         estimate D2E/DX2                !
 ! A91   A(51,47,52)           120.1125         estimate D2E/DX2                !
 ! A92   A(46,49,51)           120.2599         estimate D2E/DX2                !
 ! A93   A(46,49,53)           119.6861         estimate D2E/DX2                !
 ! A94   A(51,49,53)           120.0539         estimate D2E/DX2                !
 ! A95   A(47,51,49)           119.432          estimate D2E/DX2                !
 ! A96   A(47,51,54)           120.3111         estimate D2E/DX2                !
 ! A97   A(49,51,54)           120.2566         estimate D2E/DX2                !
 ! A98   A(12,55,56)           120.2254         estimate D2E/DX2                !
 ! A99   A(12,55,57)           121.7858         estimate D2E/DX2                !
 ! A100  A(56,55,57)           117.9721         estimate D2E/DX2                !
 ! A101  A(55,56,58)           121.2356         estimate D2E/DX2                !
 ! A102  A(55,56,59)           119.1084         estimate D2E/DX2                !
 ! A103  A(58,56,59)           119.6428         estimate D2E/DX2                !
 ! A104  A(55,57,60)           120.7723         estimate D2E/DX2                !
 ! A105  A(55,57,61)           118.5665         estimate D2E/DX2                !
 ! A106  A(60,57,61)           120.6612         estimate D2E/DX2                !
 ! A107  A(56,58,62)           120.1314         estimate D2E/DX2                !
 ! A108  A(56,58,63)           119.7181         estimate D2E/DX2                !
 ! A109  A(62,58,63)           120.1468         estimate D2E/DX2                !
 ! A110  A(57,60,62)           120.5448         estimate D2E/DX2                !
 ! A111  A(57,60,64)           119.5504         estimate D2E/DX2                !
 ! A112  A(62,60,64)           119.9048         estimate D2E/DX2                !
 ! A113  A(58,62,60)           119.3385         estimate D2E/DX2                !
 ! A114  A(58,62,65)           120.3074         estimate D2E/DX2                !
 ! A115  A(60,62,65)           120.3532         estimate D2E/DX2                !
 ! D1    D(6,1,2,3)              1.0168         estimate D2E/DX2                !
 ! D2    D(6,1,2,33)          -178.7121         estimate D2E/DX2                !
 ! D3    D(19,1,2,3)          -179.9948         estimate D2E/DX2                !
 ! D4    D(19,1,2,33)            0.2762         estimate D2E/DX2                !
 ! D5    D(2,1,6,5)             -0.1644         estimate D2E/DX2                !
 ! D6    D(2,1,6,15)           179.5348         estimate D2E/DX2                !
 ! D7    D(19,1,6,5)          -179.1723         estimate D2E/DX2                !
 ! D8    D(19,1,6,15)            0.527          estimate D2E/DX2                !
 ! D9    D(1,2,3,4)             -1.2408         estimate D2E/DX2                !
 ! D10   D(1,2,3,17)           177.5369         estimate D2E/DX2                !
 ! D11   D(33,2,3,4)           178.4823         estimate D2E/DX2                !
 ! D12   D(33,2,3,17)           -2.74           estimate D2E/DX2                !
 ! D13   D(1,2,33,34)          -46.6067         estimate D2E/DX2                !
 ! D14   D(1,2,33,35)          132.4376         estimate D2E/DX2                !
 ! D15   D(3,2,33,34)          133.6733         estimate D2E/DX2                !
 ! D16   D(3,2,33,35)          -47.2824         estimate D2E/DX2                !
 ! D17   D(2,3,4,5)              0.5498         estimate D2E/DX2                !
 ! D18   D(2,3,4,7)            178.9613         estimate D2E/DX2                !
 ! D19   D(17,3,4,5)          -178.1925         estimate D2E/DX2                !
 ! D20   D(17,3,4,7)             0.219          estimate D2E/DX2                !
 ! D21   D(2,3,17,9)           179.4452         estimate D2E/DX2                !
 ! D22   D(4,3,17,9)            -1.7283         estimate D2E/DX2                !
 ! D23   D(3,4,5,6)              0.3624         estimate D2E/DX2                !
 ! D24   D(3,4,5,14)           179.7668         estimate D2E/DX2                !
 ! D25   D(7,4,5,6)           -177.986          estimate D2E/DX2                !
 ! D26   D(7,4,5,14)             1.4183         estimate D2E/DX2                !
 ! D27   D(3,4,7,8)              2.4533         estimate D2E/DX2                !
 ! D28   D(3,4,7,20)           172.541          estimate D2E/DX2                !
 ! D29   D(5,4,7,8)           -179.2337         estimate D2E/DX2                !
 ! D30   D(5,4,7,20)            -9.1461         estimate D2E/DX2                !
 ! D31   D(4,5,6,1)             -0.5355         estimate D2E/DX2                !
 ! D32   D(4,5,6,15)           179.7793         estimate D2E/DX2                !
 ! D33   D(14,5,6,1)          -179.9232         estimate D2E/DX2                !
 ! D34   D(14,5,6,15)            0.3916         estimate D2E/DX2                !
 ! D35   D(4,7,8,9)             -3.6476         estimate D2E/DX2                !
 ! D36   D(4,7,8,13)           177.0297         estimate D2E/DX2                !
 ! D37   D(20,7,8,9)          -173.7367         estimate D2E/DX2                !
 ! D38   D(20,7,8,13)            6.9406         estimate D2E/DX2                !
 ! D39   D(4,7,20,21)          -84.4635         estimate D2E/DX2                !
 ! D40   D(4,7,20,22)           95.6495         estimate D2E/DX2                !
 ! D41   D(8,7,20,21)           85.5597         estimate D2E/DX2                !
 ! D42   D(8,7,20,22)          -94.3272         estimate D2E/DX2                !
 ! D43   D(7,8,9,10)          -179.3384         estimate D2E/DX2                !
 ! D44   D(7,8,9,17)             2.2169         estimate D2E/DX2                !
 ! D45   D(13,8,9,10)            0.0236         estimate D2E/DX2                !
 ! D46   D(13,8,9,17)         -178.4211         estimate D2E/DX2                !
 ! D47   D(7,8,13,12)          179.3625         estimate D2E/DX2                !
 ! D48   D(7,8,13,16)           -1.8486         estimate D2E/DX2                !
 ! D49   D(9,8,13,12)            0.0271         estimate D2E/DX2                !
 ! D50   D(9,8,13,16)          178.8159         estimate D2E/DX2                !
 ! D51   D(8,9,10,11)           -0.0532         estimate D2E/DX2                !
 ! D52   D(8,9,10,44)          179.862          estimate D2E/DX2                !
 ! D53   D(17,9,10,11)         178.4324         estimate D2E/DX2                !
 ! D54   D(17,9,10,44)          -1.6524         estimate D2E/DX2                !
 ! D55   D(8,9,17,3)             0.5068         estimate D2E/DX2                !
 ! D56   D(10,9,17,3)         -178.0259         estimate D2E/DX2                !
 ! D57   D(9,10,11,12)           0.0335         estimate D2E/DX2                !
 ! D58   D(9,10,11,18)         178.3901         estimate D2E/DX2                !
 ! D59   D(44,10,11,12)       -179.8837         estimate D2E/DX2                !
 ! D60   D(44,10,11,18)         -1.5272         estimate D2E/DX2                !
 ! D61   D(9,10,44,45)         -47.98           estimate D2E/DX2                !
 ! D62   D(9,10,44,46)         132.3417         estimate D2E/DX2                !
 ! D63   D(11,10,44,45)        131.9355         estimate D2E/DX2                !
 ! D64   D(11,10,44,46)        -47.7428         estimate D2E/DX2                !
 ! D65   D(10,11,12,13)          0.0139         estimate D2E/DX2                !
 ! D66   D(10,11,12,55)        179.0488         estimate D2E/DX2                !
 ! D67   D(18,11,12,13)       -178.3399         estimate D2E/DX2                !
 ! D68   D(18,11,12,55)          0.6949         estimate D2E/DX2                !
 ! D69   D(11,12,13,8)          -0.045          estimate D2E/DX2                !
 ! D70   D(11,12,13,16)       -178.8066         estimate D2E/DX2                !
 ! D71   D(55,12,13,8)        -179.0855         estimate D2E/DX2                !
 ! D72   D(55,12,13,16)          2.1528         estimate D2E/DX2                !
 ! D73   D(11,12,55,56)       -144.3314         estimate D2E/DX2                !
 ! D74   D(11,12,55,57)         37.1801         estimate D2E/DX2                !
 ! D75   D(13,12,55,56)         34.7042         estimate D2E/DX2                !
 ! D76   D(13,12,55,57)       -143.7843         estimate D2E/DX2                !
 ! D77   D(7,20,21,23)        -179.8822         estimate D2E/DX2                !
 ! D78   D(7,20,21,24)           0.0581         estimate D2E/DX2                !
 ! D79   D(22,20,21,23)          0.0093         estimate D2E/DX2                !
 ! D80   D(22,20,21,24)        179.9496         estimate D2E/DX2                !
 ! D81   D(7,20,22,25)         179.9304         estimate D2E/DX2                !
 ! D82   D(7,20,22,30)          -0.2941         estimate D2E/DX2                !
 ! D83   D(21,20,22,25)          0.0452         estimate D2E/DX2                !
 ! D84   D(21,20,22,30)        179.8208         estimate D2E/DX2                !
 ! D85   D(20,21,23,26)         -0.0489         estimate D2E/DX2                !
 ! D86   D(20,21,23,27)        179.9682         estimate D2E/DX2                !
 ! D87   D(24,21,23,26)       -179.9887         estimate D2E/DX2                !
 ! D88   D(24,21,23,27)          0.0285         estimate D2E/DX2                !
 ! D89   D(20,22,25,26)         -0.0612         estimate D2E/DX2                !
 ! D90   D(20,22,25,28)        179.8469         estimate D2E/DX2                !
 ! D91   D(30,22,25,26)       -179.8386         estimate D2E/DX2                !
 ! D92   D(30,22,25,28)          0.0696         estimate D2E/DX2                !
 ! D93   D(20,22,30,31)        179.9312         estimate D2E/DX2                !
 ! D94   D(20,22,30,32)         -0.1861         estimate D2E/DX2                !
 ! D95   D(25,22,30,31)         -0.2941         estimate D2E/DX2                !
 ! D96   D(25,22,30,32)        179.5885         estimate D2E/DX2                !
 ! D97   D(21,23,26,25)          0.0334         estimate D2E/DX2                !
 ! D98   D(21,23,26,29)       -179.9287         estimate D2E/DX2                !
 ! D99   D(27,23,26,25)       -179.9839         estimate D2E/DX2                !
 ! D100  D(27,23,26,29)          0.0541         estimate D2E/DX2                !
 ! D101  D(22,25,26,23)          0.0218         estimate D2E/DX2                !
 ! D102  D(22,25,26,29)        179.9838         estimate D2E/DX2                !
 ! D103  D(28,25,26,23)       -179.8819         estimate D2E/DX2                !
 ! D104  D(28,25,26,29)          0.0801         estimate D2E/DX2                !
 ! D105  D(2,33,34,36)         179.8295         estimate D2E/DX2                !
 ! D106  D(2,33,34,37)          -0.2474         estimate D2E/DX2                !
 ! D107  D(35,33,34,36)          0.7533         estimate D2E/DX2                !
 ! D108  D(35,33,34,37)       -179.3235         estimate D2E/DX2                !
 ! D109  D(2,33,35,38)        -179.5033         estimate D2E/DX2                !
 ! D110  D(2,33,35,39)           1.0472         estimate D2E/DX2                !
 ! D111  D(34,33,35,38)         -0.4402         estimate D2E/DX2                !
 ! D112  D(34,33,35,39)       -179.8897         estimate D2E/DX2                !
 ! D113  D(33,34,36,40)         -0.6183         estimate D2E/DX2                !
 ! D114  D(33,34,36,41)        179.4561         estimate D2E/DX2                !
 ! D115  D(37,34,36,40)        179.4597         estimate D2E/DX2                !
 ! D116  D(37,34,36,41)         -0.4659         estimate D2E/DX2                !
 ! D117  D(33,35,38,40)         -0.011          estimate D2E/DX2                !
 ! D118  D(33,35,38,42)       -179.1757         estimate D2E/DX2                !
 ! D119  D(39,35,38,40)        179.4367         estimate D2E/DX2                !
 ! D120  D(39,35,38,42)          0.2719         estimate D2E/DX2                !
 ! D121  D(34,36,40,38)          0.1506         estimate D2E/DX2                !
 ! D122  D(34,36,40,43)       -179.9906         estimate D2E/DX2                !
 ! D123  D(41,36,40,38)       -179.9241         estimate D2E/DX2                !
 ! D124  D(41,36,40,43)         -0.0653         estimate D2E/DX2                !
 ! D125  D(35,38,40,36)          0.1613         estimate D2E/DX2                !
 ! D126  D(35,38,40,43)       -179.6975         estimate D2E/DX2                !
 ! D127  D(42,38,40,36)        179.3214         estimate D2E/DX2                !
 ! D128  D(42,38,40,43)         -0.5374         estimate D2E/DX2                !
 ! D129  D(10,44,45,47)        179.8914         estimate D2E/DX2                !
 ! D130  D(10,44,45,48)          0.5327         estimate D2E/DX2                !
 ! D131  D(46,44,45,47)         -0.4245         estimate D2E/DX2                !
 ! D132  D(46,44,45,48)       -179.7832         estimate D2E/DX2                !
 ! D133  D(10,44,46,49)       -179.5162         estimate D2E/DX2                !
 ! D134  D(10,44,46,50)          0.5326         estimate D2E/DX2                !
 ! D135  D(45,44,46,49)          0.7946         estimate D2E/DX2                !
 ! D136  D(45,44,46,50)       -179.1566         estimate D2E/DX2                !
 ! D137  D(44,45,47,51)         -0.0471         estimate D2E/DX2                !
 ! D138  D(44,45,47,52)       -179.1818         estimate D2E/DX2                !
 ! D139  D(48,45,47,51)        179.3089         estimate D2E/DX2                !
 ! D140  D(48,45,47,52)          0.1743         estimate D2E/DX2                !
 ! D141  D(44,46,49,51)         -0.6958         estimate D2E/DX2                !
 ! D142  D(44,46,49,53)        179.4393         estimate D2E/DX2                !
 ! D143  D(50,46,49,51)        179.2546         estimate D2E/DX2                !
 ! D144  D(50,46,49,53)         -0.6103         estimate D2E/DX2                !
 ! D145  D(45,47,51,49)          0.161          estimate D2E/DX2                !
 ! D146  D(45,47,51,54)       -179.6287         estimate D2E/DX2                !
 ! D147  D(52,47,51,49)        179.2914         estimate D2E/DX2                !
 ! D148  D(52,47,51,54)         -0.4984         estimate D2E/DX2                !
 ! D149  D(46,49,51,47)          0.2071         estimate D2E/DX2                !
 ! D150  D(46,49,51,54)        179.997          estimate D2E/DX2                !
 ! D151  D(53,49,51,47)       -179.9285         estimate D2E/DX2                !
 ! D152  D(53,49,51,54)         -0.1386         estimate D2E/DX2                !
 ! D153  D(12,55,56,58)       -177.8177         estimate D2E/DX2                !
 ! D154  D(12,55,56,59)          3.5126         estimate D2E/DX2                !
 ! D155  D(57,55,56,58)          0.7275         estimate D2E/DX2                !
 ! D156  D(57,55,56,59)       -177.9422         estimate D2E/DX2                !
 ! D157  D(12,55,57,60)        177.641          estimate D2E/DX2                !
 ! D158  D(12,55,57,61)         -2.3915         estimate D2E/DX2                !
 ! D159  D(56,55,57,60)         -0.8802         estimate D2E/DX2                !
 ! D160  D(56,55,57,61)        179.0873         estimate D2E/DX2                !
 ! D161  D(55,56,58,62)         -0.2753         estimate D2E/DX2                !
 ! D162  D(55,56,58,63)       -179.5733         estimate D2E/DX2                !
 ! D163  D(59,56,58,62)        178.3874         estimate D2E/DX2                !
 ! D164  D(59,56,58,63)         -0.9106         estimate D2E/DX2                !
 ! D165  D(55,57,60,62)          0.5876         estimate D2E/DX2                !
 ! D166  D(55,57,60,64)       -179.3976         estimate D2E/DX2                !
 ! D167  D(61,57,60,62)       -179.3792         estimate D2E/DX2                !
 ! D168  D(61,57,60,64)          0.6355         estimate D2E/DX2                !
 ! D169  D(56,58,62,60)         -0.0436         estimate D2E/DX2                !
 ! D170  D(56,58,62,65)       -179.7023         estimate D2E/DX2                !
 ! D171  D(63,58,62,60)        179.2514         estimate D2E/DX2                !
 ! D172  D(63,58,62,65)         -0.4073         estimate D2E/DX2                !
 ! D173  D(57,60,62,58)         -0.1121         estimate D2E/DX2                !
 ! D174  D(57,60,62,65)        179.5465         estimate D2E/DX2                !
 ! D175  D(64,60,62,58)        179.8731         estimate D2E/DX2                !
 ! D176  D(64,60,62,65)         -0.4684         estimate D2E/DX2                !
 --------------------------------------------------------------------------------
 Trust Radius=3.00D-01 FncErr=1.00D-07 GrdErr=1.00D-06
 Number of steps in this run=    372 maximum allowed number of steps=    390.
 GradGradGradGradGradGradGradGradGradGradGradGradGradGradGradGradGradGrad

 Leave Link  103 at Wed Feb  2 04:23:20 2022, MaxMem=  5242880000 cpu:         0.2
 (Enter /opt/nce/packages/global/g09/l202.exe)
 Symmetry turned off by external request.
 Stoichiometry    C38H22O5(2-)
 Framework group  C1[X(C38H22O5)]
 Deg. of freedom   189
 Full point group                 C1      NOp   1
                          Input orientation:                          
 ---------------------------------------------------------------------
 Center     Atomic      Atomic             Coordinates (Angstroms)
 Number     Number       Type             X           Y           Z
 ---------------------------------------------------------------------
      1          6           0       -5.061408   -2.318051    1.462909
      2          6           0       -3.670908   -2.006248    1.183434
      3          6           0       -3.386225   -0.978605    0.288135
      4          6           0       -4.386441   -0.228815   -0.391884
      5          6           0       -5.742060   -0.554941   -0.119698
      6          6           0       -6.065369   -1.544644    0.766168
      7          6           0       -4.003578    0.807963   -1.263481
      8          6           0       -2.634238    1.050683   -1.486942
      9          6           0       -1.665971    0.296957   -0.769559
     10          6           0       -0.298484    0.485109   -0.922870
     11          6           0        0.184858    1.491395   -1.853801
     12          6           0       -0.817130    2.268407   -2.593930
     13          6           0       -2.158001    2.028532   -2.390607
     14          1           0       -6.528908    0.021167   -0.637132
     15          1           0       -7.118004   -1.797363    0.981949
     16          1           0       -2.909835    2.600645   -2.963102
     17          8           0       -2.067000   -0.682741    0.092450
     18          8           0        1.425266    1.710651   -1.996504
     19          8           0       -5.403022   -3.243471    2.269791
     20          6           0       -5.023974    1.486448   -2.103198
     21          6           0       -5.364349    0.885636   -3.323443
     22          6           0       -5.649590    2.687453   -1.730844
     23          6           0       -6.312546    1.467381   -4.164525
     24          1           0       -4.870391   -0.057824   -3.613850
     25          6           0       -6.599768    3.260999   -2.581835
     26          6           0       -6.934993    2.661646   -3.792969
     27          1           0       -6.567156    0.980639   -5.120792
     28          1           0       -7.068473    4.203080   -2.249217
     29          1           0       -7.686384    3.124965   -4.454239
     30          6           0       -5.308560    3.360761   -0.418404
     31          8           0       -5.907233    4.443290   -0.141229
     32          8           0       -4.445376    2.777637    0.301488
     33          6           0       -2.601499   -2.780420    1.842165
     34          6           0       -2.658192   -3.031667    3.224205
     35          6           0       -1.517296   -3.301541    1.116897
     36          6           0       -1.656283   -3.764944    3.859567
     37          1           0       -3.509898   -2.637518    3.801729
     38          6           0       -0.519335   -4.039798    1.750263
     39          1           0       -1.453088   -3.114382    0.032368
     40          6           0       -0.582240   -4.274184    3.125018
     41          1           0       -1.715820   -3.942893    4.947079
     42          1           0        0.328938   -4.426714    1.160767
     43          1           0        0.210079   -4.854303    3.627731
     44          6           0        0.679603   -0.313835   -0.159079
     45          6           0        0.558114   -0.498266    1.227423
     46          6           0        1.770885   -0.907988   -0.815812
     47          6           0        1.489415   -1.257776    1.933915
     48          1           0       -0.293166   -0.043075    1.760056
     49          6           0        2.698694   -1.674221   -0.111239
     50          1           0        1.882584   -0.757216   -1.901675
     51          6           0        2.563363   -1.851039    1.268495
     52          1           0        1.365221   -1.399638    3.020787
     53          1           0        3.543274   -2.139642   -0.647892
     54          1           0        3.297424   -2.457314    1.825872
     55          6           0       -0.396744    3.318419   -3.537758
     56          6           0       -1.157519    4.494050   -3.674161
     57          6           0        0.745052    3.173283   -4.347765
     58          6           0       -0.804360    5.480927   -4.592733
     59          1           0       -2.037396    4.642895   -3.023976
     60          6           0        1.096272    4.159374   -5.268962
     61          1           0        1.355965    2.264209   -4.238287
     62          6           0        0.326342    5.318206   -5.396828
     63          1           0       -1.414860    6.396177   -4.673892
     64          1           0        1.990116    4.020232   -5.900886
     65          1           0        0.611264    6.099541   -6.121258
 ---------------------------------------------------------------------
 Rotational constants (GHZ):      0.1027612      0.0702795      0.0456835
 Leave Link  202 at Wed Feb  2 04:23:20 2022, MaxMem=  5242880000 cpu:         0.6
 (Enter /opt/nce/packages/global/g09/l301.exe)
 Standard basis: def2TZVP (5D, 7F)
 Ernie: Thresh=  0.10000D-02 Tol=  0.10000D-05 Strict=F.
  1465 basis functions,  2369 primitive gaussians,  1680 cartesian basis functions
   146 alpha electrons      146 beta electrons
       nuclear repulsion energy      4754.4150242511 Hartrees.
 IExCor=20419 DFT=T Ex+Corr=CAM-B3LYP ExCW=0 ScaHFX=  1.000000
 ScaDFX=  1.000000  1.000000  1.000000  0.810000 ScalE2=  1.000000  1.000000
 IRadAn=      5 IRanWt=     -1 IRanGd=            0 ICorTp=0 IEmpDi=141
  HFx wShort=  0.000000 wLong=  0.330000 cFull=  0.190000 cShort=  0.000000 cLong=  0.460000
  DFx wShort=  0.000000 wLong=  0.330000 cFull=  0.190000 cShort=  0.000000 cLong=  0.460000
 NAtoms=   65 NActive=   65 NUniq=   65 SFac= 1.00D+00 NAtFMM=   60 NAOKFM=T Big=T
 Integral buffers will be    131072 words long.
 Raffenetti 2 integral format.
 Two-electron integral symmetry is turned off.
 R6Disp:  Grimme-D3(BJ) Dispersion energy=       -0.0937172603 Hartrees.
 Nuclear repulsion after empirical dispersion term =     4754.3213069907 Hartrees.
 ------------------------------------------------------------------------------
 Polarizable Continuum Model (PCM)
 =================================
 Model                : PCM (using non-symmetric T matrix).
 Atomic radii         : SMD-Coulomb.
 Polarization charges : Total charges.
 Charge compensation  : None.
 Solution method      : On-the-fly selection.
 Cavity type          : VdW (van der Waals Surface) (Alpha=1.000).
 Cavity algorithm     : GePol (No added spheres)
                        Default sphere list used, NSphG=   65.
                        Lebedev-Laikov grids with approx.  5.0 points / Ang**2.
                        Smoothing algorithm: York/Karplus (Gamma=1.0000).
                        Polarization charges: spherical gaussians, with
                                              point-specific exponents (IZeta= 3).
                        Self-potential: point-specific (ISelfS= 7).
                        Self-field    : sphere-specific E.n sum rule (ISelfD= 2).
 1st derivatives      : Analytical E(r).r(x)/FMM algorithm (CHGder, D1EAlg=3).
                        Cavity 1st derivative terms included.
 Solvent              : Acetonitrile, Eps=  35.688000 Eps(inf)=   1.806874
 ------------------------------------------------------------------------------
 GePol: Number of generator spheres                  =      65
 GePol: Total number of spheres                      =      65
 GePol: Number of exposed spheres                    =      65 (100.00%)
 GePol: Number of points                             =    4820
 GePol: Average weight of points                     =       0.12
 GePol: Minimum weight of points                     =   0.12D-09
 GePol: Maximum weight of points                     =    0.21559
 GePol: Number of points with low weight             =     267
 GePol: Fraction of low-weight points (<1% of avg)   =       5.54%
 GePol: Cavity surface area                          =    564.777 Ang**2
 GePol: Cavity volume                                =    598.451 Ang**3
 ------------------------------------------------------------------------------
 Atomic radii for non-electrostatic terms: SMD-CDS.
 ------------------------------------------------------------------------------
 PCM non-electrostatic energy =        -0.0140226638 Hartrees.
 Nuclear repulsion after PCM non-electrostatic terms =     4754.3072843270 Hartrees.
 Leave Link  301 at Wed Feb  2 04:23:21 2022, MaxMem=  5242880000 cpu:         3.5
 (Enter /opt/nce/packages/global/g09/l302.exe)
 NPDir=0 NMtPBC=     1 NCelOv=     1 NCel=       1 NClECP=     1 NCelD=      1
         NCelK=      1 NCelE2=     1 NClLst=     1 CellRange=     0.0.
 One-electron integrals computed using PRISM.
   1 Symmetry operations used in ECPInt.
 ECPInt:  NShTT=  157641 NPrTT=  493540 LenC2=  119516 LenP2D=  246576.
 LDataN:  DoStor=T MaxTD1= 6 Len=  172
 NBasis=  1465 RedAO= T EigKep=  3.82D-06  NBF=  1465
 NBsUse=  1465 1.00D-06 EigRej= -1.00D+00 NBFU=  1465
 Precomputing XC quadrature grid using
 IXCGrd= 4 IRadAn=           5 IRanWt=          -1 IRanGd=           0 AccXCQ= 0.00D+00.
 Generated NRdTot=       0 NPtTot=           0 NUsed=           0 NTot=          32
 NSgBfM=  1614  1614  1614  1614  1614 MxSgAt=    65 MxSgA2=    65.
 Leave Link  302 at Wed Feb  2 04:23:27 2022, MaxMem=  5242880000 cpu:        67.5
 (Enter /opt/nce/packages/global/g09/l303.exe)
 DipDrv:  MaxL=1.
 Leave Link  303 at Wed Feb  2 04:23:27 2022, MaxMem=  5242880000 cpu:         5.1
 (Enter /opt/nce/packages/global/g09/l401.exe)
 ExpMin= 9.52D-02 ExpMax= 2.70D+04 ExpMxC= 9.22D+02 IAcc=3 IRadAn=         5 AccDes= 0.00D+00
 Harris functional with IExCor=20419 and IRadAn=       5 diagonalized for initial guess.
 HarFok:  IExCor=20419 AccDes= 0.00D+00 IRadAn=         5 IDoV= 1 UseB2=F ITyADJ=14
 ICtDFT=  3500011 ScaDFX=  1.000000  1.000000  1.000000  1.000000
 FoFCou: FMM=F IPFlag=           0 FMFlag=      100000 FMFlg1=        2001
         NFxFlg=           0 DoJE=T BraDBF=F KetDBF=T FulRan=T
         wScrn=  0.000000 ICntrl=     500 IOpCl=  0 I1Cent=   200000004 NGrid=           0
         NMat0=    1 NMatS0=      1 NMatT0=    0 NMatD0=    1 NMtDS0=    0 NMtDT0=    0
 Symmetry not used in FoFCou.
 Harris En= -1767.19235616520    
 JPrj=0 DoOrth=F DoCkMO=F.
 Leave Link  401 at Wed Feb  2 04:23:49 2022, MaxMem=  5242880000 cpu:       233.8
 (Enter /opt/nce/packages/global/g09/l502.exe)
 Closed shell SCF:
 Using DIIS extrapolation, IDIIS=  1040.
 Two-electron integral symmetry not used.
 IVT=     8516120 IEndB=     8516120 NGot=  5242880000 MDV=  5237204601
 LenX=  5237204601 LenY=  5234380521
 Requested convergence on RMS density matrix=1.00D-08 within 128 cycles.
 Requested convergence on MAX density matrix=1.00D-06.
 Requested convergence on             energy=1.00D-06.
 No special actions if energy rises.
 Fock matrices will be formed incrementally for  20 cycles.

 Cycle   1  Pass 1  IDiag  1:
 FoFJK:  IHMeth= 1 ICntrl=       0 DoSepK=T KAlg= 0 I1Cent=   0 FoldK=F
 IRaf=         1 NMat=   1 IRICut=       1 DoRegI=T DoRafI=F ISym2E= 0.
 FoFCou: FMM=T IPFlag=           0 FMFlag=      100000 FMFlg1=        2001
         NFxFlg=           0 DoJE=T BraDBF=F KetDBF=F FulRan=T
         wScrn=  0.000000 ICntrl=     500 IOpCl=  0 I1Cent=           0 NGrid=           0
         NMat0=    1 NMatS0=      1 NMatT0=    0 NMatD0=    1 NMtDS0=    0 NMtDT0=    0
 Symmetry not used in FoFCou.
 FMM levels:  10  Number of levels for PrismC:   9
 Inv3:  Mode=1 IEnd=    69697200.
 Iteration    1 A*A^-1 deviation from unit magnitude is 8.66D-15 for   4809.
 Iteration    1 A*A^-1 deviation from orthogonality  is 3.66D-15 for   2465   2268.
 Iteration    1 A^-1*A deviation from unit magnitude is 8.44D-15 for   4814.
 Iteration    1 A^-1*A deviation from orthogonality  is 3.65D-12 for   4272   3679.
 E= -1837.12499906402    
 DIIS: error= 2.67D-02 at cycle   1 NSaved=   1.
 NSaved= 1 IEnMin= 1 EnMin= -1837.12499906402     IErMin= 1 ErrMin= 2.67D-02
 ErrMax= 2.67D-02  0.00D+00 EMaxC= 1.00D-01 BMatC= 3.08D+00 BMatP= 3.08D+00
 IDIUse=3 WtCom= 7.33D-01 WtEn= 2.67D-01
 Coeff-Com:  0.100D+01
 Coeff-En:   0.100D+01
 Coeff:      0.100D+01
 Gap=     0.180 Goal=   None    Shift=    0.000
 GapD=    0.180 DampG=1.000 DampE=0.500 DampFc=0.5000 IDamp=-1.
 Damping current iteration by 5.00D-01
 RMSDP=1.89D-03 MaxDP=2.91D-01              OVMax= 1.60D-01

 Cycle   2  Pass 1  IDiag  1:
 RMSU=  7.53D-04    CP:  9.21D-01
 E= -1837.32974125533     Delta-E=       -0.204742191308 Rises=F Damp=T
 DIIS: error= 1.32D-02 at cycle   2 NSaved=   2.
 NSaved= 2 IEnMin= 2 EnMin= -1837.32974125533     IErMin= 2 ErrMin= 1.32D-02
 ErrMax= 1.32D-02  0.00D+00 EMaxC= 1.00D-01 BMatC= 6.58D-01 BMatP= 3.08D+00
 IDIUse=3 WtCom= 8.68D-01 WtEn= 1.32D-01
 Coeff-Com: -0.659D+00 0.166D+01
 Coeff-En:   0.000D+00 0.100D+01
 Coeff:     -0.571D+00 0.157D+01
 Gap=     0.216 Goal=   None    Shift=    0.000
 RMSDP=9.80D-04 MaxDP=1.30D-01 DE=-2.05D-01 OVMax= 2.90D-01

 Cycle   3  Pass 1  IDiag  1:
 RMSU=  9.51D-04    CP:  9.19D-01  1.32D+00
 E= -1837.36122231458     Delta-E=       -0.031481059254 Rises=F Damp=F
 DIIS: error= 9.30D-03 at cycle   3 NSaved=   3.
 NSaved= 3 IEnMin= 3 EnMin= -1837.36122231458     IErMin= 3 ErrMin= 9.30D-03
 ErrMax= 9.30D-03  0.00D+00 EMaxC= 1.00D-01 BMatC= 2.55D-01 BMatP= 6.58D-01
 IDIUse=3 WtCom= 9.07D-01 WtEn= 9.30D-02
 Coeff-Com: -0.435D+00 0.938D+00 0.498D+00
 Coeff-En:   0.000D+00 0.397D+00 0.603D+00
 Coeff:     -0.395D+00 0.887D+00 0.507D+00
 Gap=     0.255 Goal=   None    Shift=    0.000
 RMSDP=8.26D-04 MaxDP=1.20D-01 DE=-3.15D-02 OVMax= 1.03D-01

 Cycle   4  Pass 1  IDiag  1:
 RMSU=  2.53D-04    CP:  8.68D-01  1.82D+00  3.88D-01
 E= -1837.55331251735     Delta-E=       -0.192090202769 Rises=F Damp=F
 DIIS: error= 1.90D-03 at cycle   4 NSaved=   4.
 NSaved= 4 IEnMin= 4 EnMin= -1837.55331251735     IErMin= 4 ErrMin= 1.90D-03
 ErrMax= 1.90D-03  0.00D+00 EMaxC= 1.00D-01 BMatC= 8.07D-03 BMatP= 2.55D-01
 IDIUse=3 WtCom= 9.81D-01 WtEn= 1.90D-02
 Coeff-Com: -0.191D+00 0.411D+00 0.279D+00 0.502D+00
 Coeff-En:   0.000D+00 0.000D+00 0.000D+00 0.100D+01
 Coeff:     -0.187D+00 0.403D+00 0.273D+00 0.511D+00
 Gap=     0.183 Goal=   None    Shift=    0.000
 RMSDP=1.04D-04 MaxDP=1.23D-02 DE=-1.92D-01 OVMax= 1.15D-02

 Cycle   5  Pass 1  IDiag  1:
 RMSU=  8.22D-05    CP:  8.60D-01  1.81D+00  4.16D-01  9.19D-01
 E= -1837.55894112640     Delta-E=       -0.005628609050 Rises=F Damp=F
 DIIS: error= 1.93D-04 at cycle   5 NSaved=   5.
 NSaved= 5 IEnMin= 5 EnMin= -1837.55894112640     IErMin= 5 ErrMin= 1.93D-04
 ErrMax= 1.93D-04  0.00D+00 EMaxC= 1.00D-01 BMatC= 7.70D-05 BMatP= 8.07D-03
 IDIUse=3 WtCom= 9.98D-01 WtEn= 1.93D-03
 Coeff-Com:  0.191D-01-0.411D-01-0.805D-02 0.373D-01 0.993D+00
 Coeff-En:   0.000D+00 0.000D+00 0.000D+00 0.000D+00 0.100D+01
 Coeff:      0.191D-01-0.410D-01-0.804D-02 0.372D-01 0.993D+00
 Gap=     0.184 Goal=   None    Shift=    0.000
 RMSDP=3.35D-05 MaxDP=5.65D-03 DE=-5.63D-03 OVMax= 3.25D-03

 Cycle   6  Pass 1  IDiag  1:
 RMSU=  2.69D-05    CP:  8.59D-01  1.83D+00  4.22D-01  9.77D-01  1.04D+00
 E= -1837.55905903668     Delta-E=       -0.000117910279 Rises=F Damp=F
 DIIS: error= 6.49D-05 at cycle   6 NSaved=   6.
 NSaved= 6 IEnMin= 6 EnMin= -1837.55905903668     IErMin= 6 ErrMin= 6.49D-05
 ErrMax= 6.49D-05  0.00D+00 EMaxC= 1.00D-01 BMatC= 1.96D-05 BMatP= 7.70D-05
 IDIUse=1 WtCom= 1.00D+00 WtEn= 0.00D+00
 Coeff-Com:  0.142D-01-0.307D-01-0.142D-01-0.780D-02 0.399D+00 0.640D+00
 Coeff:      0.142D-01-0.307D-01-0.142D-01-0.780D-02 0.399D+00 0.640D+00
 Gap=     0.184 Goal=   None    Shift=    0.000
 RMSDP=1.39D-05 MaxDP=1.93D-03 DE=-1.18D-04 OVMax= 1.65D-03

 Cycle   7  Pass 1  IDiag  1:
 RMSU=  9.49D-06    CP:  8.59D-01  1.83D+00  4.20D-01  9.86D-01  1.12D+00
                    CP:  8.67D-01
 E= -1837.55908105251     Delta-E=       -0.000022015824 Rises=F Damp=F
 DIIS: error= 3.79D-05 at cycle   7 NSaved=   7.
 NSaved= 7 IEnMin= 7 EnMin= -1837.55908105251     IErMin= 7 ErrMin= 3.79D-05
 ErrMax= 3.79D-05  0.00D+00 EMaxC= 1.00D-01 BMatC= 3.01D-06 BMatP= 1.96D-05
 IDIUse=1 WtCom= 1.00D+00 WtEn= 0.00D+00
 Coeff-Com:  0.217D-02-0.473D-02-0.413D-02-0.827D-02 0.491D-02 0.264D+00
 Coeff-Com:  0.746D+00
 Coeff:      0.217D-02-0.473D-02-0.413D-02-0.827D-02 0.491D-02 0.264D+00
 Coeff:      0.746D+00
 Gap=     0.184 Goal=   None    Shift=    0.000
 RMSDP=9.96D-06 MaxDP=2.19D-03 DE=-2.20D-05 OVMax= 5.23D-04

 Cycle   8  Pass 1  IDiag  1:
 RMSU=  5.41D-06    CP:  8.58D-01  1.83D+00  4.17D-01  9.90D-01  1.17D+00
                    CP:  9.96D-01  8.67D-01
 E= -1837.55908469129     Delta-E=       -0.000003638781 Rises=F Damp=F
 DIIS: error= 2.60D-05 at cycle   8 NSaved=   8.
 NSaved= 8 IEnMin= 8 EnMin= -1837.55908469129     IErMin= 8 ErrMin= 2.60D-05
 ErrMax= 2.60D-05  0.00D+00 EMaxC= 1.00D-01 BMatC= 7.93D-07 BMatP= 3.01D-06
 IDIUse=1 WtCom= 1.00D+00 WtEn= 0.00D+00
 Coeff-Com: -0.846D-03 0.182D-02-0.307D-03-0.447D-02-0.565D-01 0.604D-01
 Coeff-Com:  0.403D+00 0.597D+00
 Coeff:     -0.846D-03 0.182D-02-0.307D-03-0.447D-02-0.565D-01 0.604D-01
 Coeff:      0.403D+00 0.597D+00
 Gap=     0.185 Goal=   None    Shift=    0.000
 RMSDP=2.25D-06 MaxDP=4.57D-04 DE=-3.64D-06 OVMax= 3.26D-04

 Cycle   9  Pass 1  IDiag  1:
 RMSU=  1.55D-06    CP:  8.58D-01  1.83D+00  4.18D-01  9.90D-01  1.17D+00
                    CP:  1.01D+00  1.01D+00  8.91D-01
 E= -1837.55908554500     Delta-E=       -0.000000853714 Rises=F Damp=F
 DIIS: error= 8.53D-06 at cycle   9 NSaved=   9.
 NSaved= 9 IEnMin= 9 EnMin= -1837.55908554500     IErMin= 9 ErrMin= 8.53D-06
 ErrMax= 8.53D-06  0.00D+00 EMaxC= 1.00D-01 BMatC= 1.11D-07 BMatP= 7.93D-07
 IDIUse=1 WtCom= 1.00D+00 WtEn= 0.00D+00
 Coeff-Com: -0.617D-03 0.134D-02 0.490D-03-0.151D-02-0.242D-01-0.183D-01
 Coeff-Com:  0.164D-01 0.260D+00 0.766D+00
 Coeff:     -0.617D-03 0.134D-02 0.490D-03-0.151D-02-0.242D-01-0.183D-01
 Coeff:      0.164D-01 0.260D+00 0.766D+00
 Gap=     0.185 Goal=   None    Shift=    0.000
 RMSDP=1.44D-06 MaxDP=2.42D-04 DE=-8.54D-07 OVMax= 2.06D-04

 Cycle  10  Pass 1  IDiag  1:
 RMSU=  5.57D-07    CP:  8.58D-01  1.83D+00  4.18D-01  9.90D-01  1.18D+00
                    CP:  1.03D+00  1.02D+00  1.05D+00  1.06D+00
 E= -1837.55908570777     Delta-E=       -0.000000162770 Rises=F Damp=F
 DIIS: error= 3.03D-06 at cycle  10 NSaved=  10.
 NSaved=10 IEnMin=10 EnMin= -1837.55908570777     IErMin=10 ErrMin= 3.03D-06
 ErrMax= 3.03D-06  0.00D+00 EMaxC= 1.00D-01 BMatC= 1.85D-08 BMatP= 1.11D-07
 IDIUse=1 WtCom= 1.00D+00 WtEn= 0.00D+00
 Coeff-Com: -0.208D-03 0.449D-03 0.348D-03-0.213D-03-0.288D-02-0.163D-01
 Coeff-Com: -0.586D-01 0.259D-01 0.355D+00 0.697D+00
 Coeff:     -0.208D-03 0.449D-03 0.348D-03-0.213D-03-0.288D-02-0.163D-01
 Coeff:     -0.586D-01 0.259D-01 0.355D+00 0.697D+00
 Gap=     0.185 Goal=   None    Shift=    0.000
 RMSDP=9.94D-07 MaxDP=2.06D-04 DE=-1.63D-07 OVMax= 6.59D-05

 Cycle  11  Pass 1  IDiag  1:
 RMSU=  3.05D-07    CP:  8.58D-01  1.83D+00  4.18D-01  9.89D-01  1.18D+00
                    CP:  1.03D+00  1.02D+00  1.13D+00  1.25D+00  8.95D-01
 E= -1837.55908573593     Delta-E=       -0.000000028158 Rises=F Damp=F
 DIIS: error= 9.23D-07 at cycle  11 NSaved=  11.
 NSaved=11 IEnMin=11 EnMin= -1837.55908573593     IErMin=11 ErrMin= 9.23D-07
 ErrMax= 9.23D-07  0.00D+00 EMaxC= 1.00D-01 BMatC= 2.44D-09 BMatP= 1.85D-08
 IDIUse=1 WtCom= 1.00D+00 WtEn= 0.00D+00
 Coeff-Com: -0.274D-04 0.568D-04 0.107D-03 0.755D-04 0.181D-02-0.456D-02
 Coeff-Com: -0.322D-01-0.248D-01 0.630D-01 0.309D+00 0.687D+00
 Coeff:     -0.274D-04 0.568D-04 0.107D-03 0.755D-04 0.181D-02-0.456D-02
 Coeff:     -0.322D-01-0.248D-01 0.630D-01 0.309D+00 0.687D+00
 Gap=     0.185 Goal=   None    Shift=    0.000
 RMSDP=2.13D-07 MaxDP=3.13D-05 DE=-2.82D-08 OVMax= 3.91D-05

 Cycle  12  Pass 1  IDiag  1:
 RMSU=  8.78D-08    CP:  8.58D-01  1.83D+00  4.17D-01  9.89D-01  1.19D+00
                    CP:  1.03D+00  1.02D+00  1.15D+00  1.26D+00  1.06D+00
                    CP:  1.06D+00
 E= -1837.55908574014     Delta-E=       -0.000000004206 Rises=F Damp=F
 DIIS: error= 4.08D-07 at cycle  12 NSaved=  12.
 NSaved=12 IEnMin=12 EnMin= -1837.55908574014     IErMin=12 ErrMin= 4.08D-07
 ErrMax= 4.08D-07  0.00D+00 EMaxC= 1.00D-01 BMatC= 4.35D-10 BMatP= 2.44D-09
 IDIUse=1 WtCom= 1.00D+00 WtEn= 0.00D+00
 Coeff-Com:  0.295D-04-0.643D-04-0.267D-04 0.833D-04 0.145D-02 0.192D-02
 Coeff-Com: -0.267D-02-0.149D-01-0.389D-01-0.254D-01 0.286D+00 0.792D+00
 Coeff:      0.295D-04-0.643D-04-0.267D-04 0.833D-04 0.145D-02 0.192D-02
 Coeff:     -0.267D-02-0.149D-01-0.389D-01-0.254D-01 0.286D+00 0.792D+00
 Gap=     0.185 Goal=   None    Shift=    0.000
 RMSDP=2.05D-07 MaxDP=5.09D-05 DE=-4.21D-09 OVMax= 1.57D-05

 Cycle  13  Pass 1  IDiag  1:
 RMSU=  4.75D-08    CP:  8.58D-01  1.83D+00  4.17D-01  9.89D-01  1.19D+00
                    CP:  1.04D+00  1.02D+00  1.17D+00  1.30D+00  1.05D+00
                    CP:  1.31D+00  1.17D+00
 E= -1837.55908574094     Delta-E=       -0.000000000803 Rises=F Damp=F
 DIIS: error= 1.81D-07 at cycle  13 NSaved=  13.
 NSaved=13 IEnMin=13 EnMin= -1837.55908574094     IErMin=13 ErrMin= 1.81D-07
 ErrMax= 1.81D-07  0.00D+00 EMaxC= 1.00D-01 BMatC= 7.72D-11 BMatP= 4.35D-10
 IDIUse=1 WtCom= 1.00D+00 WtEn= 0.00D+00
 Coeff-Com:  0.147D-04-0.316D-04-0.255D-04 0.227D-04 0.331D-03 0.167D-02
 Coeff-Com:  0.315D-02-0.254D-02-0.236D-01-0.567D-01 0.365D-01 0.355D+00
 Coeff-Com:  0.686D+00
 Coeff:      0.147D-04-0.316D-04-0.255D-04 0.227D-04 0.331D-03 0.167D-02
 Coeff:      0.315D-02-0.254D-02-0.236D-01-0.567D-01 0.365D-01 0.355D+00
 Coeff:      0.686D+00
 Gap=     0.185 Goal=   None    Shift=    0.000
 RMSDP=3.76D-08 MaxDP=3.44D-06 DE=-8.03D-10 OVMax= 7.16D-06

 Cycle  14  Pass 1  IDiag  1:
 RMSU=  3.07D-08    CP:  8.58D-01  1.83D+00  4.17D-01  9.89D-01  1.19D+00
                    CP:  1.04D+00  1.02D+00  1.17D+00  1.30D+00  1.06D+00
                    CP:  1.35D+00  1.31D+00  1.06D+00
 E= -1837.55908574108     Delta-E=       -0.000000000140 Rises=F Damp=F
 DIIS: error= 6.06D-08 at cycle  14 NSaved=  14.
 NSaved=14 IEnMin=14 EnMin= -1837.55908574108     IErMin=14 ErrMin= 6.06D-08
 ErrMax= 6.06D-08  0.00D+00 EMaxC= 1.00D-01 BMatC= 1.75D-11 BMatP= 7.72D-11
 IDIUse=1 WtCom= 1.00D+00 WtEn= 0.00D+00
 Coeff-Com:  0.220D-05-0.457D-05-0.688D-05-0.853D-05-0.128D-03 0.361D-03
 Coeff-Com:  0.174D-02 0.183D-02-0.277D-02-0.240D-01-0.522D-01-0.179D-01
 Coeff-Com:  0.321D+00 0.772D+00
 Coeff:      0.220D-05-0.457D-05-0.688D-05-0.853D-05-0.128D-03 0.361D-03
 Coeff:      0.174D-02 0.183D-02-0.277D-02-0.240D-01-0.522D-01-0.179D-01
 Coeff:      0.321D+00 0.772D+00
 Gap=     0.185 Goal=   None    Shift=    0.000
 RMSDP=6.40D-08 MaxDP=1.40D-05 DE=-1.40D-10 OVMax= 4.68D-06

 Cycle  15  Pass 1  IDiag  1:
 RMSU=  2.93D-08    CP:  8.58D-01  1.83D+00  4.17D-01  9.89D-01  1.19D+00
                    CP:  1.04D+00  1.02D+00  1.17D+00  1.30D+00  1.06D+00
                    CP:  1.41D+00  1.43D+00  1.52D+00  1.69D+00
 E= -1837.55908574111     Delta-E=       -0.000000000030 Rises=F Damp=F
 DIIS: error= 2.17D-08 at cycle  15 NSaved=  15.
 NSaved=15 IEnMin=15 EnMin= -1837.55908574111     IErMin=15 ErrMin= 2.17D-08
 ErrMax= 2.17D-08  0.00D+00 EMaxC= 1.00D-01 BMatC= 2.69D-12 BMatP= 1.75D-11
 IDIUse=1 WtCom= 1.00D+00 WtEn= 0.00D+00
 Coeff-Com: -0.989D-06 0.216D-05 0.880D-06-0.104D-04-0.109D-03-0.709D-04
 Coeff-Com:  0.260D-03 0.119D-02 0.253D-02-0.971D-03-0.240D-01-0.556D-01
 Coeff-Com:  0.318D-01 0.322D+00 0.723D+00
 Coeff:     -0.989D-06 0.216D-05 0.880D-06-0.104D-04-0.109D-03-0.709D-04
 Coeff:      0.260D-03 0.119D-02 0.253D-02-0.971D-03-0.240D-01-0.556D-01
 Coeff:      0.318D-01 0.322D+00 0.723D+00
 Gap=     0.185 Goal=   None    Shift=    0.000
 RMSDP=5.56D-08 MaxDP=3.30D-06 DE=-3.00D-11 OVMax= 1.56D-06

 Cycle  16  Pass 1  IDiag  1:
 RMSU=  2.52D-08    CP:  8.58D-01  1.83D+00  4.17D-01  9.89D-01  1.19D+00
                    CP:  1.04D+00  1.02D+00  1.18D+00  1.30D+00  1.06D+00
                    CP:  1.42D+00  1.49D+00  1.75D+00  2.81D+00  2.11D+00
 E= -1837.55908574103     Delta-E=        0.000000000075 Rises=F Damp=F
 DIIS: error= 3.15D-08 at cycle  16 NSaved=  16.
 NSaved=16 IEnMin=15 EnMin= -1837.55908574111     IErMin=15 ErrMin= 2.17D-08
 ErrMax= 3.15D-08  0.00D+00 EMaxC= 1.00D-01 BMatC= 1.02D-12 BMatP= 2.69D-12
 IDIUse=1 WtCom= 1.00D+00 WtEn= 0.00D+00
 Coeff-Com: -0.540D-06 0.117D-05 0.112D-05-0.540D-05-0.433D-04-0.782D-04
 Coeff-Com: -0.491D-04 0.441D-03 0.162D-02 0.210D-02-0.738D-02-0.290D-01
 Coeff-Com: -0.215D-01 0.804D-01 0.398D+00 0.575D+00
 Coeff:     -0.540D-06 0.117D-05 0.112D-05-0.540D-05-0.433D-04-0.782D-04
 Coeff:     -0.491D-04 0.441D-03 0.162D-02 0.210D-02-0.738D-02-0.290D-01
 Coeff:     -0.215D-01 0.804D-01 0.398D+00 0.575D+00
 Gap=     0.185 Goal=   None    Shift=    0.000
 RMSDP=6.58D-08 MaxDP=4.38D-06 DE= 7.55D-11 OVMax= 6.53D-07

 Cycle  17  Pass 1  IDiag  1:
 RMSU=  3.78D-08    CP:  8.58D-01  1.83D+00  4.17D-01  9.89D-01  1.19D+00
                    CP:  1.04D+00  1.02D+00  1.18D+00  1.30D+00  1.06D+00
                    CP:  1.43D+00  1.54D+00  1.96D+00  3.00D+00  3.00D+00
                    CP:  2.15D+00
 E= -1837.55908574099     Delta-E=        0.000000000043 Rises=F Damp=F
 DIIS: error= 3.23D-08 at cycle  17 NSaved=  17.
 NSaved=17 IEnMin=15 EnMin= -1837.55908574111     IErMin=15 ErrMin= 2.17D-08
 ErrMax= 3.23D-08  0.00D+00 EMaxC= 1.00D-01 BMatC= 7.93D-13 BMatP= 1.02D-12
 IDIUse=1 WtCom= 1.00D+00 WtEn= 0.00D+00
 Coeff-Com: -0.526D-06 0.114D-05 0.107D-05-0.522D-05-0.423D-04-0.740D-04
 Coeff-Com: -0.405D-04 0.431D-03 0.155D-02 0.194D-02-0.727D-02-0.280D-01
 Coeff-Com: -0.197D-01 0.797D-01 0.382D+00 0.535D+00 0.539D-01
 Coeff:     -0.526D-06 0.114D-05 0.107D-05-0.522D-05-0.423D-04-0.740D-04
 Coeff:     -0.405D-04 0.431D-03 0.155D-02 0.194D-02-0.727D-02-0.280D-01
 Coeff:     -0.197D-01 0.797D-01 0.382D+00 0.535D+00 0.539D-01
 Gap=     0.185 Goal=   None    Shift=    0.000
 RMSDP=5.24D-09 MaxDP=3.36D-07 DE= 4.27D-11 OVMax= 1.72D-08

 Error on total polarization charges =  0.07356
 SCF Done:  E(RCAM-B3LYP) =  -1837.55908574     A.U. after   17 cycles
            NFock= 17  Conv=0.52D-08     -V/T= 2.0051
 KE= 1.828257907137D+03 PE=-1.385103257093D+04 EE= 5.430908293730D+03
 SMD-CDS (non-electrostatic) energy       (kcal/mol) =      -8.80
 (included in total energy above)
 Leave Link  502 at Wed Feb  2 05:33:06 2022, MaxMem=  5242880000 cpu:     49135.1
 (Enter /opt/nce/packages/global/g09/l601.exe)
 Copying SCF densities to generalized density rwf, IOpCl= 0 IROHF=0.

 **********************************************************************

            Population analysis using the SCF density.

 **********************************************************************

 Alpha  occ. eigenvalues --  -19.25438 -19.12588 -19.12368 -19.11318 -19.11061
 Alpha  occ. eigenvalues --  -10.31761 -10.31664 -10.31068 -10.29769 -10.29358
 Alpha  occ. eigenvalues --  -10.28908 -10.25838 -10.25027 -10.24842 -10.24812
 Alpha  occ. eigenvalues --  -10.24795 -10.24764 -10.24704 -10.24667 -10.24459
 Alpha  occ. eigenvalues --  -10.24354 -10.24341 -10.24311 -10.24172 -10.24104
 Alpha  occ. eigenvalues --  -10.24082 -10.24050 -10.23983 -10.23921 -10.23914
 Alpha  occ. eigenvalues --  -10.23859 -10.23857 -10.23819 -10.23805 -10.23793
 Alpha  occ. eigenvalues --  -10.23674 -10.23657 -10.23650 -10.23639 -10.23613
 Alpha  occ. eigenvalues --  -10.23164 -10.23163 -10.22660  -1.18177  -1.07751
 Alpha  occ. eigenvalues --   -1.05602  -1.04844  -0.98691  -0.95338  -0.94101
 Alpha  occ. eigenvalues --   -0.93463  -0.93204  -0.92301  -0.91911  -0.87347
 Alpha  occ. eigenvalues --   -0.86323  -0.84520  -0.82968  -0.82356  -0.81571
 Alpha  occ. eigenvalues --   -0.81515  -0.81408  -0.81192  -0.80190  -0.78113
 Alpha  occ. eigenvalues --   -0.77602  -0.71972  -0.71652  -0.70026  -0.68337
 Alpha  occ. eigenvalues --   -0.68268  -0.67002  -0.66823  -0.66578  -0.66231
 Alpha  occ. eigenvalues --   -0.65592  -0.63793  -0.62984  -0.60482  -0.59812
 Alpha  occ. eigenvalues --   -0.59658  -0.57981  -0.57640  -0.56603  -0.55978
 Alpha  occ. eigenvalues --   -0.54450  -0.53832  -0.53595  -0.52923  -0.52221
 Alpha  occ. eigenvalues --   -0.51690  -0.51041  -0.50788  -0.50498  -0.50330
 Alpha  occ. eigenvalues --   -0.50148  -0.49709  -0.49527  -0.48537  -0.48421
 Alpha  occ. eigenvalues --   -0.48132  -0.47437  -0.47202  -0.47172  -0.47122
 Alpha  occ. eigenvalues --   -0.46824  -0.45981  -0.45736  -0.45468  -0.44805
 Alpha  occ. eigenvalues --   -0.44390  -0.44261  -0.43310  -0.43089  -0.42829
 Alpha  occ. eigenvalues --   -0.42461  -0.42042  -0.41815  -0.41363  -0.41068
 Alpha  occ. eigenvalues --   -0.40292  -0.40003  -0.39393  -0.39324  -0.39228
 Alpha  occ. eigenvalues --   -0.39182  -0.38915  -0.37388  -0.37200  -0.33705
 Alpha  occ. eigenvalues --   -0.31865  -0.31160  -0.31018  -0.30692  -0.30500
 Alpha  occ. eigenvalues --   -0.30103  -0.29746  -0.29601  -0.29134  -0.28723
 Alpha  occ. eigenvalues --   -0.28298  -0.27928  -0.27744  -0.26241  -0.24612
 Alpha  occ. eigenvalues --   -0.21356
 Alpha virt. eigenvalues --   -0.02901   0.01115   0.02155   0.02607   0.03400
 Alpha virt. eigenvalues --    0.03580   0.03837   0.04116   0.05137   0.06258
 Alpha virt. eigenvalues --    0.07778   0.08511   0.08905   0.09570   0.10437
 Alpha virt. eigenvalues --    0.10786   0.11069   0.11440   0.11813   0.12440
 Alpha virt. eigenvalues --    0.12820   0.13147   0.13470   0.13797   0.14370
 Alpha virt. eigenvalues --    0.14455   0.14615   0.15015   0.15538   0.15797
 Alpha virt. eigenvalues --    0.15842   0.16069   0.16271   0.16584   0.17122
 Alpha virt. eigenvalues --    0.17321   0.18170   0.18500   0.18859   0.19189
 Alpha virt. eigenvalues --    0.19752   0.20150   0.20536   0.20575   0.20970
 Alpha virt. eigenvalues --    0.21361   0.21937   0.22697   0.23054   0.23182
 Alpha virt. eigenvalues --    0.23288   0.23779   0.23891   0.24163   0.24587
 Alpha virt. eigenvalues --    0.24968   0.25295   0.25326   0.25636   0.25853
 Alpha virt. eigenvalues --    0.26010   0.26228   0.26437   0.26708   0.27133
 Alpha virt. eigenvalues --    0.27285   0.27355   0.27654   0.27917   0.28002
 Alpha virt. eigenvalues --    0.28270   0.28604   0.28725   0.29111   0.29159
 Alpha virt. eigenvalues --    0.29214   0.29625   0.30140   0.30280   0.30590
 Alpha virt. eigenvalues --    0.30732   0.31181   0.31259   0.31447   0.31566
 Alpha virt. eigenvalues --    0.32293   0.32440   0.32942   0.33152   0.33501
 Alpha virt. eigenvalues --    0.33660   0.33847   0.34033   0.34246   0.34310
 Alpha virt. eigenvalues --    0.34535   0.34921   0.35168   0.35294   0.36060
 Alpha virt. eigenvalues --    0.36333   0.36861   0.36886   0.37281   0.37546
 Alpha virt. eigenvalues --    0.37769   0.37858   0.38145   0.38564   0.38648
 Alpha virt. eigenvalues --    0.39083   0.39365   0.39640   0.39789   0.39877
 Alpha virt. eigenvalues --    0.40299   0.40432   0.40601   0.40882   0.41169
 Alpha virt. eigenvalues --    0.41470   0.41684   0.41756   0.42030   0.42122
 Alpha virt. eigenvalues --    0.42367   0.42971   0.43210   0.43331   0.43421
 Alpha virt. eigenvalues --    0.43573   0.43869   0.44141   0.44736   0.45034
 Alpha virt. eigenvalues --    0.45216   0.45506   0.45603   0.45770   0.46126
 Alpha virt. eigenvalues --    0.46196   0.46432   0.46622   0.46997   0.47197
 Alpha virt. eigenvalues --    0.47635   0.47857   0.48007   0.48214   0.48370
 Alpha virt. eigenvalues --    0.48853   0.48962   0.49038   0.49209   0.49419
 Alpha virt. eigenvalues --    0.49929   0.49996   0.50406   0.50762   0.50849
 Alpha virt. eigenvalues --    0.51034   0.51323   0.51556   0.51633   0.52182
 Alpha virt. eigenvalues --    0.52357   0.52738   0.52954   0.53467   0.53716
 Alpha virt. eigenvalues --    0.53917   0.54092   0.54174   0.54476   0.54588
 Alpha virt. eigenvalues --    0.54919   0.55371   0.55533   0.55729   0.55913
 Alpha virt. eigenvalues --    0.56120   0.56403   0.56661   0.56950   0.57313
 Alpha virt. eigenvalues --    0.57825   0.58070   0.58196   0.58326   0.58677
 Alpha virt. eigenvalues --    0.59303   0.59398   0.59752   0.60282   0.60485
 Alpha virt. eigenvalues --    0.60934   0.61146   0.61572   0.61843   0.62302
 Alpha virt. eigenvalues --    0.62704   0.63137   0.63260   0.63835   0.64288
 Alpha virt. eigenvalues --    0.64385   0.65017   0.65208   0.65913   0.66203
 Alpha virt. eigenvalues --    0.66466   0.66930   0.67268   0.67742   0.67961
 Alpha virt. eigenvalues --    0.68888   0.69075   0.69395   0.69671   0.69739
 Alpha virt. eigenvalues --    0.70093   0.70487   0.70992   0.71349   0.71663
 Alpha virt. eigenvalues --    0.71738   0.71866   0.72433   0.72932   0.73151
 Alpha virt. eigenvalues --    0.73433   0.73866   0.74198   0.74454   0.74602
 Alpha virt. eigenvalues --    0.74694   0.75150   0.75253   0.75689   0.75840
 Alpha virt. eigenvalues --    0.76047   0.76350   0.76613   0.76734   0.76881
 Alpha virt. eigenvalues --    0.77424   0.77464   0.77764   0.77838   0.78463
 Alpha virt. eigenvalues --    0.78613   0.79122   0.79201   0.79629   0.79950
 Alpha virt. eigenvalues --    0.80051   0.80387   0.80579   0.80923   0.81252
 Alpha virt. eigenvalues --    0.81812   0.81919   0.82171   0.82472   0.82899
 Alpha virt. eigenvalues --    0.83199   0.83479   0.83875   0.84152   0.84312
[...]
 Alpha virt. eigenvalues --    2.09970   2.10360   2.11422   2.11585   2.11782
 Alpha virt. eigenvalues --    2.12277   2.12658   2.13551   2.13692   2.14254
 Alpha virt. eigenvalues --    2.14718   2.15311   2.15370   2.15635   2.16444
 Alpha virt. eigenvalues --    2.16629   2.16955   2.17334   2.17683   2.18377
 Alpha virt. eigenvalues --    2.18686   2.18796   2.19023   2.19632   2.20482
 Alpha virt. eigenvalues --    2.20766   2.21267   2.21744   2.22464   2.22940
 Alpha virt. eigenvalues --    2.23421   2.23904   2.24958   2.25157   2.25740
 Alpha virt. eigenvalues --    2.26127   2.26353   2.27127   2.28084   2.28193
 Alpha virt. eigenvalues --    2.28440   2.28700   2.28980   2.29473   2.30351
 Alpha virt. eigenvalues --    2.30544   2.31019   2.31660   2.31710   2.31943
 Alpha virt. eigenvalues --    2.32185   2.32712   2.33334   2.33588   2.34457
 Alpha virt. eigenvalues --    2.34685   2.35022   2.36447   2.36764   2.37400
 Alpha virt. eigenvalues --    2.37644   2.38356   2.38693   2.39066   2.39706
 Alpha virt. eigenvalues --    2.40312   2.41367   2.41579   2.42279   2.42904
 Alpha virt. eigenvalues --    2.43378   2.43520   2.44840   2.45042   2.45912
 Alpha virt. eigenvalues --    2.46449   2.46891   2.47860   2.48614   2.48912
 Alpha virt. eigenvalues --    2.49864   2.51004   2.51623   2.52455   2.52920
 Alpha virt. eigenvalues --    2.54271   2.55091   2.55607   2.55868   2.56096
 Alpha virt. eigenvalues --    2.56946   2.57828   2.58022   2.58174   2.58735
 Alpha virt. eigenvalues --    2.59404   2.59547   2.59968   2.60633   2.60915
 Alpha virt. eigenvalues --    2.61838   2.62699   2.62829   2.63026   2.63801
 Alpha virt. eigenvalues --    2.64520   2.65281   2.65691   2.66252   2.66841
 Alpha virt. eigenvalues --    2.67170   2.67786   2.68098   2.69086   2.69384
 Alpha virt. eigenvalues --    2.69748   2.69854   2.71017   2.71168   2.71580
 Alpha virt. eigenvalues --    2.72060   2.72235   2.72496   2.73043   2.73082
 Alpha virt. eigenvalues --    2.73363   2.73804   2.74042   2.74363   2.74638
 Alpha virt. eigenvalues --    2.74995   2.75301   2.75666   2.75763   2.76095
 Alpha virt. eigenvalues --    2.76391   2.76538   2.76788   2.77016   2.77255
 Alpha virt. eigenvalues --    2.77439   2.77565   2.78434   2.78610   2.78865
 Alpha virt. eigenvalues --    2.79004   2.79305   2.79938   2.80356   2.80658
 Alpha virt. eigenvalues --    2.81124   2.81444   2.81786   2.82218   2.82891
 Alpha virt. eigenvalues --    2.83208   2.83506   2.83822   2.84126   2.84412
 Alpha virt. eigenvalues --    2.85033   2.85276   2.85512   2.85837   2.86519
 Alpha virt. eigenvalues --    2.86747   2.87052   2.87174   2.87428   2.87552
 Alpha virt. eigenvalues --    2.87740   2.88331   2.88471   2.88601   2.89420
 Alpha virt. eigenvalues --    2.89659   2.89776   2.90456   2.90767   2.90855
 Alpha virt. eigenvalues --    2.91344   2.91736   2.91935   2.92479   2.92506
 Alpha virt. eigenvalues --    2.92671   2.92937   2.93455   2.93717   2.94085
 Alpha virt. eigenvalues --    2.94456   2.94912   2.95359   2.95805   2.95884
 Alpha virt. eigenvalues --    2.96067   2.96496   2.96684   2.96869   2.97282
 Alpha virt. eigenvalues --    2.97519   2.97712   2.98213   2.99227   2.99520
 Alpha virt. eigenvalues --    2.99686   3.00105   3.00451   3.01444   3.01684
 Alpha virt. eigenvalues --    3.02074   3.02520   3.03011   3.03169   3.03921
 Alpha virt. eigenvalues --    3.04193   3.04565   3.05383   3.05938   3.05997
 Alpha virt. eigenvalues --    3.06479   3.06877   3.07443   3.08044   3.08612
 Alpha virt. eigenvalues --    3.09061   3.09572   3.09616   3.10258   3.10399
 Alpha virt. eigenvalues --    3.10865   3.11361   3.11544   3.11919   3.12593
 Alpha virt. eigenvalues --    3.12965   3.13158   3.13838   3.14045   3.14728
 Alpha virt. eigenvalues --    3.14768   3.15430   3.15672   3.16001   3.16364
 Alpha virt. eigenvalues --    3.16906   3.17191   3.17311   3.18081   3.18339
 Alpha virt. eigenvalues --    3.18600   3.19106   3.19287   3.19590   3.20053
 Alpha virt. eigenvalues --    3.20424   3.21173   3.21589   3.21665   3.22023
 Alpha virt. eigenvalues --    3.22200   3.22485   3.22857   3.22977   3.23156
 Alpha virt. eigenvalues --    3.23398   3.23801   3.24033   3.24292   3.24822
 Alpha virt. eigenvalues --    3.24960   3.25170   3.25631   3.25972   3.26192
 Alpha virt. eigenvalues --    3.26371   3.26620   3.27030   3.27435   3.27983
 Alpha virt. eigenvalues --    3.28152   3.28447   3.28769   3.29644   3.29780
 Alpha virt. eigenvalues --    3.30078   3.30246   3.30801   3.31196   3.31317
 Alpha virt. eigenvalues --    3.31586   3.31748   3.31935   3.32731   3.33227
 Alpha virt. eigenvalues --    3.33408   3.34563   3.35160   3.35369   3.35405
 Alpha virt. eigenvalues --    3.35774   3.36225   3.36411   3.36606   3.36637
 Alpha virt. eigenvalues --    3.37341   3.37942   3.38176   3.38716   3.38999
 Alpha virt. eigenvalues --    3.39194   3.39702   3.40001   3.40617   3.41090
 Alpha virt. eigenvalues --    3.41566   3.41649   3.42064   3.42303   3.42776
 Alpha virt. eigenvalues --    3.43000   3.43083   3.43461   3.43885   3.44054
 Alpha virt. eigenvalues --    3.44346   3.44491   3.44789   3.45122   3.45463
 Alpha virt. eigenvalues --    3.45826   3.45915   3.46525   3.46746   3.46867
 Alpha virt. eigenvalues --    3.47607   3.47769   3.48332   3.48567   3.48875
 Alpha virt. eigenvalues --    3.49235   3.49599   3.49784   3.50208   3.50724
 Alpha virt. eigenvalues --    3.50936   3.51300   3.51539   3.51879   3.52375
 Alpha virt. eigenvalues --    3.52735   3.52916   3.53279   3.53470   3.53693
 Alpha virt. eigenvalues --    3.54202   3.54281   3.54492   3.54940   3.55336
 Alpha virt. eigenvalues --    3.55438   3.55901   3.55980   3.56546   3.56772
 Alpha virt. eigenvalues --    3.57202   3.57527   3.57964   3.58727   3.58924
 Alpha virt. eigenvalues --    3.59062   3.59166   3.59397   3.59556   3.60838
 Alpha virt. eigenvalues --    3.60966   3.61176   3.61308   3.61694   3.61910
 Alpha virt. eigenvalues --    3.62395   3.62532   3.62835   3.63268   3.63408
 Alpha virt. eigenvalues --    3.63505   3.64223   3.64638   3.64955   3.65259
 Alpha virt. eigenvalues --    3.65346   3.65867   3.66018   3.66414   3.66680
 Alpha virt. eigenvalues --    3.67197   3.67884   3.68264   3.68441   3.68656
 Alpha virt. eigenvalues --    3.69816   3.70475   3.70684   3.71027   3.71909
 Alpha virt. eigenvalues --    3.72297   3.72552   3.73131   3.73589   3.73965
 Alpha virt. eigenvalues --    3.74650   3.74850   3.75604   3.75836   3.76274
 Alpha virt. eigenvalues --    3.77667   3.77947   3.78098   3.78411   3.79025
 Alpha virt. eigenvalues --    3.79407   3.79547   3.79649   3.81620   3.82405
 Alpha virt. eigenvalues --    3.82839   3.83832   3.84474   3.84568   3.85859
 Alpha virt. eigenvalues --    3.86277   3.86718   3.87659   3.88563   3.88922
 Alpha virt. eigenvalues --    3.89831   3.90540   3.91265   3.92091   3.92608
 Alpha virt. eigenvalues --    3.93223   3.93718   3.94733   3.95497   3.96105
 Alpha virt. eigenvalues --    3.96471   3.97143   3.97921   3.98439   3.99786
 Alpha virt. eigenvalues --    4.00108   4.00913   4.02088   4.03019   4.03508
 Alpha virt. eigenvalues --    4.03589   4.04165   4.04763   4.05147   4.05727
 Alpha virt. eigenvalues --    4.06193   4.07127   4.07752   4.08021   4.08691
 Alpha virt. eigenvalues --    4.09610   4.09766   4.10415   4.11798   4.12622
 Alpha virt. eigenvalues --    4.13025   4.13231   4.13982   4.14468   4.14679
 Alpha virt. eigenvalues --    4.15593   4.16117   4.16955   4.17452   4.17856
 Alpha virt. eigenvalues --    4.18780   4.19418   4.19825   4.20999   4.21229
 Alpha virt. eigenvalues --    4.21676   4.22220   4.23461   4.23733   4.23871
 Alpha virt. eigenvalues --    4.24035   4.24703   4.25323   4.25414   4.25911
 Alpha virt. eigenvalues --    4.26778   4.27471   4.28660   4.28791   4.30138
 Alpha virt. eigenvalues --    4.30302   4.30835   4.31264   4.31575   4.31901
 Alpha virt. eigenvalues --    4.32134   4.32594   4.32844   4.33082   4.33486
 Alpha virt. eigenvalues --    4.33707   4.34435   4.35092   4.35538   4.35581
 Alpha virt. eigenvalues --    4.35798   4.36352   4.36615   4.36808   4.37358
 Alpha virt. eigenvalues --    4.37734   4.38043   4.39259   4.39517   4.40211
 Alpha virt. eigenvalues --    4.40372   4.40722   4.41333   4.41721   4.42971
 Alpha virt. eigenvalues --    4.43634   4.44331   4.44416   4.45294   4.45900
 Alpha virt. eigenvalues --    4.46268   4.47653   4.48348   4.49876   4.50445
 Alpha virt. eigenvalues --    4.50947   4.51227   4.52449   4.53602   4.54337
 Alpha virt. eigenvalues --    4.55105   4.55452   4.57532   4.57856   4.58916
 Alpha virt. eigenvalues --    4.59819   4.60125   4.61474   4.62103   4.63412
 Alpha virt. eigenvalues --    4.64376   4.64788   4.65781   4.66816   4.68833
 Alpha virt. eigenvalues --    4.70522   4.71238   4.72056   4.73268   4.74698
 Alpha virt. eigenvalues --    4.74954   4.75720   4.76849   4.77404   4.78515
 Alpha virt. eigenvalues --    4.79042   4.79599   4.80559   4.81092   4.81471
 Alpha virt. eigenvalues --    4.82634   4.82769   4.83443   4.83548   4.84230
 Alpha virt. eigenvalues --    4.84947   4.86498   4.86883   4.87575   4.88384
 Alpha virt. eigenvalues --    4.88800   4.90766   4.92268   4.94484   4.96460
 Alpha virt. eigenvalues --    4.97344   4.98774   4.98974   4.99367   4.99570
 Alpha virt. eigenvalues --    5.01776   5.02139   5.02905   5.03944   5.05290
 Alpha virt. eigenvalues --    5.05651   5.06091   5.09280   5.09608   5.11610
 Alpha virt. eigenvalues --    5.14277   5.14481   5.15590   5.20435   5.21812
 Alpha virt. eigenvalues --    5.24583   5.25173   5.26808   5.27578   5.28662
 Alpha virt. eigenvalues --    5.30242   5.31463   5.31776   5.32604   5.32888
 Alpha virt. eigenvalues --    5.33319   5.33569   5.33744   5.34245   5.34601
 Alpha virt. eigenvalues --    5.34937   5.35074   5.35773   5.35925   5.36996
 Alpha virt. eigenvalues --    5.37398   5.38016   5.38707   5.41715   5.43683
 Alpha virt. eigenvalues --    5.45733   5.46985   5.49086   5.49374   5.50538
 Alpha virt. eigenvalues --    5.51682   5.52649   5.55025   5.55477   5.56293
 Alpha virt. eigenvalues --    5.57278   5.60183   5.62403   5.65003   5.66564
 Alpha virt. eigenvalues --    5.67711   5.68442   5.69778   5.70431   5.71391
 Alpha virt. eigenvalues --    5.71435   5.72832   5.76682   5.76916   5.78787
 Alpha virt. eigenvalues --    5.80091   5.81837   5.84765   5.87453   5.89365
 Alpha virt. eigenvalues --    5.92599   5.94220   5.98792   5.99223   6.01453
 Alpha virt. eigenvalues --    6.04735   6.09520   6.21248   6.22286   6.23153
 Alpha virt. eigenvalues --    6.30199   6.32668   6.39524   6.52186   6.53045
 Alpha virt. eigenvalues --    6.53270   6.55052   6.55820   6.56171   6.56914
 Alpha virt. eigenvalues --    6.62752   6.65382   6.69032   6.73466   6.76503
 Alpha virt. eigenvalues --    6.78536   6.82060   6.87240   6.92555   6.94578
 Alpha virt. eigenvalues --    6.95638   6.97443   7.00878   7.04384   7.06464
 Alpha virt. eigenvalues --    7.09262   7.09900   7.21402   7.24106   7.25649
 Alpha virt. eigenvalues --    7.26539   7.31074   7.31853   7.43916   7.60120
 Alpha virt. eigenvalues --    7.63166  22.16409  22.24631  22.31680  22.36358
 Alpha virt. eigenvalues --   22.56414  22.66754  22.67511  22.69599  22.70643
 Alpha virt. eigenvalues --   22.71084  22.72675  22.74506  22.78374  22.79952
 Alpha virt. eigenvalues --   22.85519  22.89179  22.90770  22.92510  22.92556
 Alpha virt. eigenvalues --   22.93711  22.94468  22.96254  23.00746  23.07477
 Alpha virt. eigenvalues --   23.16892  23.18341  23.22587  23.26603  23.29598
 Alpha virt. eigenvalues --   23.34780  23.35351  23.36493  23.44823  23.47588
 Alpha virt. eigenvalues --   23.63804  23.76419  23.90432  23.99190  44.04174
 Alpha virt. eigenvalues --   44.06380  44.08647  44.16938  44.74669
          Condensed to atoms (all electrons):
 Mulliken charges:
               1
     1  C    0.198651
     2  C   -0.118245
     3  C    0.234730
     4  C    0.016739
     5  C   -0.211458
     6  C   -0.318259
     7  C    0.348536
     8  C    0.029822
     9  C    0.240453
    10  C   -0.084610
    11  C    0.133160
    12  C    0.023041
    13  C   -0.286521
    14  H    0.177324
    15  H    0.121951
    16  H    0.206733
    17  O   -0.228783
    18  O   -0.443998
    19  O   -0.460855
    20  C   -0.099130
    21  C   -0.275525
    22  C   -0.086281
    23  C   -0.152480
    24  H    0.157761
    25  C   -0.191671
    26  C   -0.175633
    27  H    0.162007
    28  H    0.145721
    29  H    0.160387
    30  C    0.190926
    31  O   -0.505837
    32  O   -0.493650
    33  C    0.091038
    34  C   -0.228748
    35  C   -0.220867
    36  C   -0.179455
    37  H    0.148867
    38  C   -0.169434
    39  H    0.153824
    40  C   -0.171261
    41  H    0.156997
    42  H    0.156999
    43  H    0.158729
    44  C    0.035020
    45  C   -0.222603
    46  C   -0.228380
    47  C   -0.173328
    48  H    0.155763
    49  C   -0.182226
    50  H    0.149559
    51  C   -0.167227
    52  H    0.157200
    53  H    0.156698
    54  H    0.158604
    55  C    0.046854
    56  C   -0.245758
    57  C   -0.223277
    58  C   -0.181792
    59  H    0.175952
    60  C   -0.170563
    61  H    0.144381
    62  C   -0.173222
    63  H    0.158157
    64  H    0.158327
    65  H    0.160166
 Sum of Mulliken charges =  -2.00000
 Mulliken charges with hydrogens summed into heavy atoms:
               1
     1  C    0.198651
     2  C   -0.118245
     3  C    0.234730
     4  C    0.016739
     5  C   -0.034134
     6  C   -0.196308
     7  C    0.348536
     8  C    0.029822
     9  C    0.240453
    10  C   -0.084610
    11  C    0.133160
    12  C    0.023041
    13  C   -0.079788
    17  O   -0.228783
    18  O   -0.443998
    19  O   -0.460855
    20  C   -0.099130
    21  C   -0.117763
    22  C   -0.086281
    23  C    0.009527
    25  C   -0.045949
    26  C   -0.015246
    30  C    0.190926
    31  O   -0.505837
    32  O   -0.493650
    33  C    0.091038
    34  C   -0.079881
    35  C   -0.067043
    36  C   -0.022458
    38  C   -0.012436
    40  C   -0.012531
    44  C    0.035020
    45  C   -0.066841
    46  C   -0.078820
    47  C   -0.016128
    49  C   -0.025528
    51  C   -0.008623
    55  C    0.046854
    56  C   -0.069806
    57  C   -0.078896
    58  C   -0.023635
    60  C   -0.012237
    62  C   -0.013056
 Electronic spatial extent (au):  <R**2>=          22197.0569
 Charge=             -2.0000 electrons
 Dipole moment (field-independent basis, Debye):
    X=              1.5366    Y=              5.7882    Z=            -11.6659  Tot=             13.1133
 Quadrupole moment (field-independent basis, Debye-Ang):
   XX=           -338.4428   YY=           -327.2132   ZZ=           -276.3334
   XY=             43.5327   XZ=             37.1695   YZ=             11.2759
 Traceless Quadrupole moment (field-independent basis, Debye-Ang):
   XX=            -24.4463   YY=            -13.2168   ZZ=             37.6631
   XY=             43.5327   XZ=             37.1695   YZ=             11.2759
 Octapole moment (field-independent basis, Debye-Ang**2):
  XXX=           -130.9829  YYY=             -7.1714  ZZZ=            -84.5125  XYY=            -95.8227
  XXY=            251.1855  XXZ=            -29.8320  XZZ=             99.9807  YZZ=             52.3773
  YYZ=            -94.2029  XYZ=            -67.4963
 Hexadecapole moment (field-independent basis, Debye-Ang**3):
 XXXX=         -19413.6897 YYYY=         -12247.5963 ZZZZ=          -1905.2586 XXXY=           1054.7273
 XXXZ=            560.2563 YYYX=            823.9993 YYYZ=           -162.8180 ZZZX=            246.6544
 ZZZY=            154.7295 XXYY=          -5421.4598 XXZZ=          -3585.9718 YYZZ=          -2204.2163
 XXYZ=             16.7078 YYXZ=            229.6305 ZZXY=            -54.4881
 N-N= 4.796295320922D+03 E-N=-1.393771328556D+04  KE= 1.830056377920D+03
 Leave Link  601 at Sun Feb  6 04:21:26 2022, MaxMem=  5242880000 cpu:        11.0
 (Enter /opt/nce/packages/global/g09/l9999.exe)
 1\1\GINC-CN016\SP\RCAM-B3LYP TD-FC\Gen\C38H22O5(2-)\PNG4RJV\06-Feb-202
 2\0\\#p cam-b3lyp chkbasis geom=allcheck Guess=Read int=ultrafine scrf
 =(SMD,solvent=Acetonitrile) td=(NStates=30) EmpiricalDispersion=GD3BJ\
 \Title\\-2,1\C,0,-5.022936388,-2.4769106046,1.3544385356\C,0,-3.651630
 2545,-2.1162189418,1.0742229785\C,0,-3.3944457651,-1.0890230103,0.2004
 576823\C,0,-4.39951535,-0.3560050434,-0.4816705303\C,0,-5.7450800708,-
 0.7085103388,-0.1907052126\C,0,-6.0427367852,-1.7033309801,0.673102141
 3\C,0,-4.0261592887,0.6716409602,-1.3484498244\C,0,-2.6729032603,0.967
 5374174,-1.5325196637\C,0,-1.6999167246,0.2449949106,-0.8027912648\C,0
 ,-0.3544576315,0.4923652247,-0.8875262074\C,0,0.1324663024,1.534482345
 3,-1.7630400221\C,0,-0.8718580711,2.2675238337,-2.539299057\C,0,-2.190
 6743631,1.9715499979,-2.4052266999\H,0,-6.5392040684,-0.1548898884,-0.
 6724796655\H,0,-7.071966105,-1.9607773579,0.8904481019\H,0,-2.91281214
 35,2.5174224761,-2.9950858187\O,0,-2.0924052377,-0.7619324262,0.013961
 8184\O,0,1.3447169142,1.8086544095,-1.8386916782\O,0,-5.3308334498,-3.
 4006875447,2.1334972771\C,0,-5.0544326289,1.4018409813,-2.133628502\C,
 0,-5.6923975307,0.7159659203,-3.1632784297\C,0,-5.3527449623,2.7472879
 048,-1.9110776654\C,0,-6.6333582511,1.3429675132,-3.9600773294\H,0,-5.
 4405077451,-0.3217444161,-3.3416242664\C,0,-6.2886945807,3.3676114944,
 -2.7303896366\C,0,-6.9371283778,2.6765238764,-3.7382663163\H,0,-7.1229
 626865,0.7921417116,-4.7526960877\H,0,-6.5011791687,4.4148617834,-2.56
 2573011\H,0,-7.6730291713,3.1781171315,-4.3539326703\C,0,-4.6993944522
 ,3.5569262766,-0.7946814116\O,0,-4.3965721079,4.734487141,-1.079158547
 6\O,0,-4.5504231043,2.9750308485,0.2980552077\C,0,-2.5460100674,-2.852
 0814792,1.7310202951\C,0,-2.4310668572,-2.8741189719,3.1178788544\C,0,
 -1.594456176,-3.53714963,0.9801143212\C,0,-1.3932391525,-3.5527948335,
 3.7353136905\H,0,-3.1631789168,-2.3493714814,3.7171198749\C,0,-0.55644
 55984,-4.2183405644,1.5935028644\H,0,-1.6662229313,-3.5311065147,-0.09
 99121683\C,0,-0.4509178547,-4.2280689387,2.9752014987\H,0,-1.318372424
 4,-3.5511687525,4.815583052\H,0,0.1760164756,-4.737998231,0.9889146452
 \H,0,0.3630708174,-4.7546861546,3.4567486612\C,0,0.609683476,-0.283690
 9891,-0.0721752344\C,0,0.5393769604,-0.2740925104,1.3179707811\C,0,1.6
 035480237,-1.0475462951,-0.6766505213\C,0,1.4300649305,-1.0091361662,2
 .0823399281\H,0,-0.2276210719,0.3131809734,1.806110773\C,0,2.495987224
 9,-1.7848786454,0.084177546\H,0,1.6748373527,-1.0643072074,-1.75615514
 03\C,0,2.4125623233,-1.7688284959,1.4679314628\H,0,1.3517737601,-0.992
 1085498,3.1619665755\H,0,3.2582893869,-2.3771823929,-0.4063917793\H,0,
 3.1065702562,-2.3482886496,2.0632741992\C,0,-0.4609126669,3.3560597381
 ,-3.4527096112\C,0,-1.1965432032,4.5401479464,-3.5039513838\C,0,0.6336
 843802,3.2250927442,-4.3072622238\C,0,-0.8592585086,5.5534723933,-4.38
 65608268\H,0,-2.0390180777,4.6726104309,-2.8361925357\C,0,0.9690765781
 ,4.2360766563,-5.1913252577\H,0,1.222660682,2.3207282386,-4.2742971618
 \C,0,0.2252518225,5.4061422312,-5.2358035613\H,0,-1.4443486832,6.46441
 92513,-4.404420654\H,0,1.8177460309,4.1091514416,-5.8519262774\H,0,0.4
 92246217,6.1976398025,-5.9243459104\\Version=ES64L-G09RevE.01\State=1-
 A\HF=-1837.5757644\RMSD=4.542e-09\PG=C01 [X(C38H22O5)]\\@


 ALL MY ATTEMPTS TO ADAPT THE THEORETICAL FOUNDATIONS OF PHYSICS
 TO THESE NEW NOTIONS FAILED COMPLETELY. IT WAS AS IF THE GROUND HAD
 BEEN PULLED OUT FROM UNDER ONE WITH NO FIRM FOUNDATION TO BE SEEN ANYWHERE,
 UPON WHICH ONE COULD HAVE BUILT.  -- A.EINSTEIN
 Job cpu time:       5 days 16 hours  3 minutes 33.0 seconds.
 File lengths (MBytes):  RWF=  10593 Int=      0 D2E=      0 Chk=   1912 Scr=      1
 Normal termination of Gaussian 09 at Sun Feb  6 04:21:28 2022.
