 Entering Gaussian System, Link 0=g09
 Input=/home/png4rjv/fotokatalizis/benchmark/OPCs/Eos_1_B97D3_def2TZVP.gjf
 Output=/home/png4rjv/fotokatalizis/benchmark/OPCs/Eos_1_B97D3_def2TZVP.log
 Initial command:
 /opt/nce/packages/global/g09/l1.exe "/home/png4rjv/fotokatalizis/benchmark/OPCs/Eos_1_B97D3_def2TZVP/Gau-10523.inp" -scrdir="/home/png4rjv/fotokatalizis/benchmark/OPCs/Eos_1_B97D3_def2TZVP/"
 Default is to use a total of  12 processors:
                               12 via shared-memory
                                1 via Linda
 Entering Link 1 = /opt/nce/packages/global/g09/l1.exe PID=     10524.
  
 Copyright (c) 1988,1990,1992,1993,1995,1998,2003,2009,2015,
            Gaussian, Inc.  All Rights Reserved.
  
 This is part of the Gaussian(R) 09 program.  It is based on
 the Gaussian(R) 03 system (copyright 2003, Gaussian, Inc.),
 the Gaussian(R) 98 system (copyright 1998, Gaussian, Inc.),
 the Gaussian(R) 94 system (copyright 1995, Gaussian, Inc.),
 the Gaussian 92(TM) system (copyright 1992, Gaussian, Inc.),
 the Gaussian 90(TM) system (copyright 1990, Gaussian, Inc.),
 the Gaussian 88(TM) system (copyright 1988, Gaussian, Inc.),
 the Gaussian 86(TM) system (copyright 1986, Carnegie Mellon
 University), and the Gaussian 82(TM) system (copyright 1983,
 Carnegie Mellon University). Gaussian is a federally registered
 trademark of Gaussian, Inc.
  
 This software contains proprietary and confidential information,
 including trade secrets, belonging to Gaussian, Inc.
  
 This software is provided under written license and may be
 used, copied, transmitted, or stored only in accord with that
 written license.
  
 The following legend is applicable only to US Government
 contracts under FAR:
  
                    RESTRICTED RIGHTS LEGEND
  
 Use, reproduction and disclosure by the US Government is
 subject to restrictions as set forth in subparagraphs (a)
 and (c) of the Commercial Computer Software - Restricted
 Rights clause in FAR 52.227-19.
  
 Gaussian, Inc.
 340 Quinnipiac St., Bldg. 40, Wallingford CT 06492
  
  
 ---------------------------------------------------------------
 Warning -- This program may not be used in any manner that
 competes with the business of Gaussian, Inc. or will provide
 assistance to any competitor of Gaussian, Inc.  The licensee
 of this program is prohibited from giving any competitor of
 Gaussian, Inc. access to this program.  By using this program,
 the user acknowledges that Gaussian, Inc. is engaged in the
 business of creating and licensing software in the field of
 computational chemistry and represents and warrants to the
 licensee that it is not a competitor of Gaussian, Inc. and that
 it will not use this program in any manner prohibited above.
 ---------------------------------------------------------------
  

 Cite this work as:
 Gaussian 09, Revision E.01,
 M. J. Frisch, G. W. Trucks, H. B. Schlegel, G. E. Scuseria, 
 M. A. Robb, J. R. Cheeseman, G. Scalmani, V. Barone, B. Mennucci, 
 G. A. Petersson, H. Nakatsuji, M. Caricato, X. Li, H. P. Hratchian, 
 A. F. Izmaylov, J. Bloino, G. Zheng, J. L. Sonnenberg, M. Hada, 
 M. Ehara, K. Toyota, R. Fukuda, J. Hasegawa, M. Ishida, T. Nakajima, 
 Y. Honda, O. Kitao, H. Nakai, T. Vreven, J. A. Montgomery, Jr., 
 J. E. Peralta, F. Ogliaro, M. Bearpark, J. J. Heyd, E. Brothers, 
 K. N. Kudin, V. N. Staroverov, T. Keith, R. Kobayashi, J. Normand, 
 K. Raghavachari, A. Rendell, J. C. Burant, S. S. Iyengar, J. Tomasi, 
 M. Cossi, N. Rega, J. M. Millam, M. Klene, J. E. Knox, J. B. Cross, 
 V. Bakken, C. Adamo, J. Jaramillo, R. Gomperts, R. E. Stratmann, 
 O. Yazyev, A. J. Austin, R. Cammi, C. Pomelli, J. W. Ochterski, 
 R. L. Martin, K. Morokuma, V. G. Zakrzewski, G. A. Voth, 
 P. Salvador, J. J. Dannenberg, S. Dapprich, A. D. Daniels, 
 O. Farkas, J. B. Foresman, J. V. Ortiz, J. Cioslowski, 
 and D. J. Fox, Gaussian, Inc., Wallingford CT, 2013.
 
 ******************************************
 Gaussian 09:  ES64L-G09RevE.01 30-Nov-2015
                31-Jan-2022 
 ******************************************
 %chk=cp.chk
 Default route:  MaxDisk=500GB
 ----------------------------------------------------------------------
 #p B97D3/def2TZVP opt freq=noraman nosymm int=ultrafine scrf=(SMD,solv
 ent=Acetonitrile)
 ----------------------------------------------------------------------
 1/14=-1,18=20,19=15,26=4,38=1/1,3;
 2/9=110,12=2,15=1,17=6,18=5,40=1/2;
 3/5=44,7=101,11=2,16=1,25=1,30=1,70=32201,71=1,72=2,74=-59,75=-5/1,2,3;
 4//1;
 5/5=2,38=5,53=2/2;
 6/7=2,8=2,9=2,10=2,28=1/1;
 7/30=1/1,2,3,16;
 1/14=-1,18=20,19=15,26=4/3(2);
 2/9=110,15=1/2;
 99//99;
 2/9=110,15=1/2;
 3/5=44,7=101,11=2,16=1,25=1,30=1,70=32205,71=1,72=2,74=-59,75=-5/1,2,3;
 4/5=5,16=3,69=1/1;
 5/5=2,38=5,53=2/2;
 7/30=1/1,2,3,16;
 1/14=-1,18=20,19=15,26=4/3(-5);
 2/9=110,15=1/2;
 6/7=2,8=2,9=2,10=2,19=2,28=1/1;
 99/9=1/99;
 Leave Link    1 at Mon Jan 31 23:31:27 2022, MaxMem=           0 cpu:         0.9
 (Enter /opt/nce/packages/global/g09/l101.exe)
 -----
 Title
 -----
 Symbolic Z-matrix:
 Charge = -2 Multiplicity = 1
 C                    -5.06141  -2.31805   1.46291 
 C                    -3.67091  -2.00625   1.18343 
 C                    -3.38623  -0.97861   0.28814 
 C                    -4.38644  -0.22882  -0.39188 
 C                    -5.74206  -0.55494  -0.1197 
 C                    -6.06537  -1.54464   0.76617 
 C                    -4.00358   0.80796  -1.26348 
 C                    -2.63424   1.05068  -1.48694 
 C                    -1.66597   0.29696  -0.76956 
 C                    -0.29848   0.48511  -0.92287 
 C                     0.18486   1.4914   -1.8538 
 C                    -0.81713   2.26841  -2.59393 
 C                    -2.158     2.02853  -2.39061 
 H                    -6.52891   0.02117  -0.63713 
 H                    -7.118    -1.79736   0.98195 
 H                    -2.90984   2.60065  -2.9631 
 O                    -2.067    -0.68274   0.09245 
 O                     1.42527   1.71065  -1.9965 
 O                    -5.40302  -3.24347   2.26979 
 C                    -5.02397   1.48645  -2.1032 
 C                    -5.36435   0.88564  -3.32344 
 C                    -5.64959   2.68745  -1.73084 
 C                    -6.31255   1.46738  -4.16453 
 H                    -4.87039  -0.05782  -3.61385 
 C                    -6.59977   3.261    -2.58184 
 C                    -6.93499   2.66165  -3.79297 
 H                    -6.56716   0.98064  -5.12079 
 H                    -7.06847   4.20308  -2.24922 
 H                    -7.68638   3.12496  -4.45424 
 C                    -5.30856   3.36076  -0.4184 
 O                    -5.90723   4.44329  -0.14123 
 O                    -4.44538   2.77764   0.30149 
 C                    -2.6015   -2.78042   1.84217 
 C                    -2.65819  -3.03167   3.2242 
 C                    -1.5173   -3.30154   1.1169 
 C                    -1.65628  -3.76494   3.85957 
 H                    -3.5099   -2.63752   3.80173 
 C                    -0.51934  -4.0398    1.75026 
 H                    -1.45309  -3.11438   0.03237 
 C                    -0.58224  -4.27418   3.12502 
 H                    -1.71582  -3.94289   4.94708 
 H                     0.32894  -4.42671   1.16077 
 H                     0.21008  -4.8543    3.62773 
 C                     0.6796   -0.31384  -0.15908 
 C                     0.55811  -0.49827   1.22742 
 C                     1.77089  -0.90799  -0.81581 
 C                     1.48942  -1.25778   1.93392 
 H                    -0.29317  -0.04308   1.76006 
 C                     2.69869  -1.67422  -0.11124 
 H                     1.88258  -0.75722  -1.90168 
 C                     2.56336  -1.85104   1.2685 
 H                     1.36522  -1.39964   3.02079 
 H                     3.54327  -2.13964  -0.64789 
 H                     3.29742  -2.45731   1.82587 
 C                    -0.39674   3.31842  -3.53776 
 C                    -1.15752   4.49405  -3.67416 
 C                     0.74505   3.17328  -4.34776 
 C                    -0.80436   5.48093  -4.59273 
 H                    -2.0374    4.6429   -3.02398 
 C                     1.09627   4.15937  -5.26896 
 H                     1.35597   2.26421  -4.23829 
 C                     0.32634   5.31821  -5.39683 
 H                    -1.41486   6.39618  -4.67389 
 H                     1.99012   4.02023  -5.90089 
 H                     0.61126   6.09954  -6.12126 
 
 NAtoms=     65 NQM=       65 NQMF=       0 NMMI=      0 NMMIF=      0
                NMic=       0 NMicF=      0.
                    Isotopes and Nuclear Properties:
 (Nuclear quadrupole moments (NQMom) in fm**2, nuclear magnetic moments (NMagM)
  in nuclear magnetons)

  Atom         1           2           3           4           5           6           7           8           9          10
 IAtWgt=          12          12          12          12          12          12          12          12          12          12
 AtmWgt=  12.0000000  12.0000000  12.0000000  12.0000000  12.0000000  12.0000000  12.0000000  12.0000000  12.0000000  12.0000000
 NucSpn=           0           0           0           0           0           0           0           0           0           0
 AtZEff=   0.0000000   0.0000000   0.0000000   0.0000000   0.0000000   0.0000000   0.0000000   0.0000000   0.0000000   0.0000000
 NQMom=    0.0000000   0.0000000   0.0000000   0.0000000   0.0000000   0.0000000   0.0000000   0.0000000   0.0000000   0.0000000
 NMagM=    0.0000000   0.0000000   0.0000000   0.0000000   0.0000000   0.0000000   0.0000000   0.0000000   0.0000000   0.0000000
 AtZNuc=   6.0000000   6.0000000   6.0000000   6.0000000   6.0000000   6.0000000   6.0000000   6.0000000   6.0000000   6.0000000

  Atom        11          12          13          14          15          16          17          18          19          20
 IAtWgt=          12          12          12           1           1           1          16          16          16          12
 AtmWgt=  12.0000000  12.0000000  12.0000000   1.0078250   1.0078250   1.0078250  15.9949146  15.9949146  15.9949146  12.0000000
 NucSpn=           0           0           0           1           1           1           0           0           0           0
 AtZEff=   0.0000000   0.0000000   0.0000000   0.0000000   0.0000000   0.0000000   0.0000000   0.0000000   0.0000000   0.0000000
 NQMom=    0.0000000   0.0000000   0.0000000   0.0000000   0.0000000   0.0000000   0.0000000   0.0000000   0.0000000   0.0000000
 NMagM=    0.0000000   0.0000000   0.0000000   2.7928460   2.7928460   2.7928460   0.0000000   0.0000000   0.0000000   0.0000000
 AtZNuc=   6.0000000   6.0000000   6.0000000   1.0000000   1.0000000   1.0000000   8.0000000   8.0000000   8.0000000   6.0000000

  Atom        21          22          23          24          25          26          27          28          29          30
 IAtWgt=          12          12          12           1          12          12           1           1           1          12
 AtmWgt=  12.0000000  12.0000000  12.0000000   1.0078250  12.0000000  12.0000000   1.0078250   1.0078250   1.0078250  12.0000000
 NucSpn=           0           0           0           1           0           0           1           1           1           0
 AtZEff=   0.0000000   0.0000000   0.0000000   0.0000000   0.0000000   0.0000000   0.0000000   0.0000000   0.0000000   0.0000000
 NQMom=    0.0000000   0.0000000   0.0000000   0.0000000   0.0000000   0.0000000   0.0000000   0.0000000   0.0000000   0.0000000
 NMagM=    0.0000000   0.0000000   0.0000000   2.7928460   0.0000000   0.0000000   2.7928460   2.7928460   2.7928460   0.0000000
 AtZNuc=   6.0000000   6.0000000   6.0000000   1.0000000   6.0000000   6.0000000   1.0000000   1.0000000   1.0000000   6.0000000

  Atom        31          32          33          34          35          36          37          38          39          40
 IAtWgt=          16          16          12          12          12          12           1          12           1          12
 AtmWgt=  15.9949146  15.9949146  12.0000000  12.0000000  12.0000000  12.0000000   1.0078250  12.0000000   1.0078250  12.0000000
 NucSpn=           0           0           0           0           0           0           1           0           1           0
 AtZEff=   0.0000000   0.0000000   0.0000000   0.0000000   0.0000000   0.0000000   0.0000000   0.0000000   0.0000000   0.0000000
 NQMom=    0.0000000   0.0000000   0.0000000   0.0000000   0.0000000   0.0000000   0.0000000   0.0000000   0.0000000   0.0000000
 NMagM=    0.0000000   0.0000000   0.0000000   0.0000000   0.0000000   0.0000000   2.7928460   0.0000000   2.7928460   0.0000000
 AtZNuc=   8.0000000   8.0000000   6.0000000   6.0000000   6.0000000   6.0000000   1.0000000   6.0000000   1.0000000   6.0000000

  Atom        41          42          43          44          45          46          47          48          49          50
 IAtWgt=           1           1           1          12          12          12          12           1          12           1
 AtmWgt=   1.0078250   1.0078250   1.0078250  12.0000000  12.0000000  12.0000000  12.0000000   1.0078250  12.0000000   1.0078250
 NucSpn=           1           1           1           0           0           0           0           1           0           1
 AtZEff=   0.0000000   0.0000000   0.0000000   0.0000000   0.0000000   0.0000000   0.0000000   0.0000000   0.0000000   0.0000000
 NQMom=    0.0000000   0.0000000   0.0000000   0.0000000   0.0000000   0.0000000   0.0000000   0.0000000   0.0000000   0.0000000
 NMagM=    2.7928460   2.7928460   2.7928460   0.0000000   0.0000000   0.0000000   0.0000000   2.7928460   0.0000000   2.7928460
 AtZNuc=   1.0000000   1.0000000   1.0000000   6.0000000   6.0000000   6.0000000   6.0000000   1.0000000   6.0000000   1.0000000

  Atom        51          52          53          54          55          56          57          58          59          60
 IAtWgt=          12           1           1           1          12          12          12          12           1          12
 AtmWgt=  12.0000000   1.0078250   1.0078250   1.0078250  12.0000000  12.0000000  12.0000000  12.0000000   1.0078250  12.0000000
 NucSpn=           0           1           1           1           0           0           0           0           1           0
 AtZEff=   0.0000000   0.0000000   0.0000000   0.0000000   0.0000000   0.0000000   0.0000000   0.0000000   0.0000000   0.0000000
 NQMom=    0.0000000   0.0000000   0.0000000   0.0000000   0.0000000   0.0000000   0.0000000   0.0000000   0.0000000   0.0000000
 NMagM=    0.0000000   2.7928460   2.7928460   2.7928460   0.0000000   0.0000000   0.0000000   0.0000000   2.7928460   0.0000000
 AtZNuc=   6.0000000   1.0000000   1.0000000   1.0000000   6.0000000   6.0000000   6.0000000   6.0000000   1.0000000   6.0000000

  Atom        61          62          63          64          65
 IAtWgt=           1          12           1           1           1
 AtmWgt=   1.0078250  12.0000000   1.0078250   1.0078250   1.0078250
 NucSpn=           1           0           1           1           1
 AtZEff=   0.0000000   0.0000000   0.0000000   0.0000000   0.0000000
 NQMom=    0.0000000   0.0000000   0.0000000   0.0000000   0.0000000
 NMagM=    2.7928460   0.0000000   2.7928460   2.7928460   2.7928460
 AtZNuc=   1.0000000   6.0000000   1.0000000   1.0000000   1.0000000
 Leave Link  101 at Mon Jan 31 23:31:27 2022, MaxMem=  5242880000 cpu:         4.4
 (Enter /opt/nce/packages/global/g09/l103.exe)

 GradGradGradGradGradGradGradGradGradGradGradGradGradGradGradGradGradGrad
 Berny optimization.
 Initialization pass.
                           ----------------------------
                           !    Initial Parameters    !
                           ! (Angstroms and Degrees)  !
 --------------------------                            --------------------------
 ! Name  Definition              Value          Derivative Info.                !
 --------------------------------------------------------------------------------
 ! R1    R(1,2)                  1.4522         estimate D2E/DX2                !
 ! R2    R(1,6)                  1.4462         estimate D2E/DX2                !
 ! R3    R(1,19)                 1.2744         estimate D2E/DX2                !
 ! R4    R(2,3)                  1.3924         estimate D2E/DX2                !
 ! R5    R(2,33)                 1.4754         estimate D2E/DX2                !
 ! R6    R(3,4)                  1.423          estimate D2E/DX2                !
 ! R7    R(3,17)                 1.3661         estimate D2E/DX2                !
 ! R8    R(4,5)                  1.4206         estimate D2E/DX2                !
 ! R9    R(4,7)                  1.4075         estimate D2E/DX2                !
 ! R10   R(5,6)                  1.367          estimate D2E/DX2                !
 ! R11   R(5,14)                 1.104          estimate D2E/DX2                !
 ! R12   R(6,15)                 1.1038         estimate D2E/DX2                !
 ! R13   R(7,8)                  1.4085         estimate D2E/DX2                !
 ! R14   R(7,20)                 1.4855         estimate D2E/DX2                !
 ! R15   R(8,9)                  1.4214         estimate D2E/DX2                !
 ! R16   R(8,13)                 1.4141         estimate D2E/DX2                !
 ! R17   R(9,10)                 1.3889         estimate D2E/DX2                !
 ! R18   R(9,17)                 1.3652         estimate D2E/DX2                !
 ! R19   R(10,11)                1.4536         estimate D2E/DX2                !
 ! R20   R(10,44)                1.4759         estimate D2E/DX2                !
 ! R21   R(11,12)                1.4682         estimate D2E/DX2                !
 ! R22   R(11,18)                1.2677         estimate D2E/DX2                !
 ! R23   R(12,13)                1.3772         estimate D2E/DX2                !
 ! R24   R(12,55)                1.4731         estimate D2E/DX2                !
 ! R25   R(13,16)                1.1047         estimate D2E/DX2                !
 ! R26   R(20,21)                1.4021         estimate D2E/DX2                !
 ! R27   R(20,22)                1.4044         estimate D2E/DX2                !
 ! R28   R(21,23)                1.3946         estimate D2E/DX2                !
 ! R29   R(21,24)                1.1038         estimate D2E/DX2                !
 ! R30   R(22,25)                1.3986         estimate D2E/DX2                !
 ! R31   R(22,30)                1.514          estimate D2E/DX2                !
 ! R32   R(23,26)                1.3971         estimate D2E/DX2                !
 ! R33   R(23,27)                1.1028         estimate D2E/DX2                !
 ! R34   R(25,26)                1.3923         estimate D2E/DX2                !
 ! R35   R(25,28)                1.1036         estimate D2E/DX2                !
 ! R36   R(26,29)                1.103          estimate D2E/DX2                !
 ! R37   R(30,31)                1.2677         estimate D2E/DX2                !
 ! R38   R(30,32)                1.2662         estimate D2E/DX2                !
 ! R39   R(33,34)                1.4058         estimate D2E/DX2                !
 ! R40   R(33,35)                1.4047         estimate D2E/DX2                !
 ! R41   R(34,36)                1.3947         estimate D2E/DX2                !
 ! R42   R(34,37)                1.1019         estimate D2E/DX2                !
 ! R43   R(35,38)                1.3936         estimate D2E/DX2                !
 ! R44   R(35,39)                1.1024         estimate D2E/DX2                !
 ! R45   R(36,40)                1.3973         estimate D2E/DX2                !
 ! R46   R(36,41)                1.1036         estimate D2E/DX2                !
 ! R47   R(38,40)                1.396          estimate D2E/DX2                !
 ! R48   R(38,42)                1.1031         estimate D2E/DX2                !
 ! R49   R(40,43)                1.1032         estimate D2E/DX2                !
 ! R50   R(44,45)                1.404          estimate D2E/DX2                !
 ! R51   R(44,46)                1.4054         estimate D2E/DX2                !
 ! R52   R(45,47)                1.394          estimate D2E/DX2                !
 ! R53   R(45,48)                1.1025         estimate D2E/DX2                !
 ! R54   R(46,49)                1.3944         estimate D2E/DX2                !
 ! R55   R(46,50)                1.102          estimate D2E/DX2                !
 ! R56   R(47,51)                1.3957         estimate D2E/DX2                !
 ! R57   R(47,52)                1.1031         estimate D2E/DX2                !
 ! R58   R(49,51)                1.3976         estimate D2E/DX2                !
 ! R59   R(49,53)                1.1036         estimate D2E/DX2                !
 ! R60   R(51,54)                1.1032         estimate D2E/DX2                !
 ! R61   R(55,56)                1.4069         estimate D2E/DX2                !
 ! R62   R(55,57)                1.4074         estimate D2E/DX2                !
 ! R63   R(56,58)                1.3937         estimate D2E/DX2                !
 ! R64   R(56,59)                1.1041         estimate D2E/DX2                !
 ! R65   R(57,60)                1.3944         estimate D2E/DX2                !
 ! R66   R(57,61)                1.1007         estimate D2E/DX2                !
 ! R67   R(58,62)                1.397          estimate D2E/DX2                !
 ! R68   R(58,63)                1.1032         estimate D2E/DX2                !
 ! R69   R(60,62)                1.3972         estimate D2E/DX2                !
 ! R70   R(60,64)                1.1035         estimate D2E/DX2                !
 ! R71   R(62,65)                1.1029         estimate D2E/DX2                !
 ! A1    A(2,1,6)              117.2048         estimate D2E/DX2                !
 ! A2    A(2,1,19)             122.3053         estimate D2E/DX2                !
 ! A3    A(6,1,19)             120.4821         estimate D2E/DX2                !
 ! A4    A(1,2,3)              118.5548         estimate D2E/DX2                !
 ! A5    A(1,2,33)             119.6988         estimate D2E/DX2                !
 ! A6    A(3,2,33)             121.7459         estimate D2E/DX2                !
 ! A7    A(2,3,4)              123.5346         estimate D2E/DX2                !
 ! A8    A(2,3,17)             116.7055         estimate D2E/DX2                !
 ! A9    A(4,3,17)             119.7488         estimate D2E/DX2                !
 ! A10   A(3,4,5)              117.271          estimate D2E/DX2                !
 ! A11   A(3,4,7)              119.5264         estimate D2E/DX2                !
 ! A12   A(5,4,7)              123.1822         estimate D2E/DX2                !
 ! A13   A(4,5,6)              121.0671         estimate D2E/DX2                !
 ! A14   A(4,5,14)             118.0687         estimate D2E/DX2                !
 ! A15   A(6,5,14)             120.8615         estimate D2E/DX2                !
 ! A16   A(1,6,5)              122.3562         estimate D2E/DX2                !
 ! A17   A(1,6,15)             116.4478         estimate D2E/DX2                !
 ! A18   A(5,6,15)             121.1953         estimate D2E/DX2                !
 ! A19   A(4,7,8)              119.3151         estimate D2E/DX2                !
 ! A20   A(4,7,20)             119.9753         estimate D2E/DX2                !
 ! A21   A(8,7,20)             119.9611         estimate D2E/DX2                !
 ! A22   A(7,8,9)              119.3945         estimate D2E/DX2                !
 ! A23   A(7,8,13)             123.2274         estimate D2E/DX2                !
 ! A24   A(9,8,13)             117.3749         estimate D2E/DX2                !
 ! A25   A(8,9,10)             122.9009         estimate D2E/DX2                !
 ! A26   A(8,9,17)             119.9423         estimate D2E/DX2                !
 ! A27   A(10,9,17)            117.1395         estimate D2E/DX2                !
 ! A28   A(9,10,11)            119.4646         estimate D2E/DX2                !
 ! A29   A(9,10,44)            121.4692         estimate D2E/DX2                !
 ! A30   A(11,10,44)           119.0661         estimate D2E/DX2                !
 ! A31   A(10,11,12)           117.5361         estimate D2E/DX2                !
 ! A32   A(10,11,18)           121.1442         estimate D2E/DX2                !
 ! A33   A(12,11,18)           121.2988         estimate D2E/DX2                !
 ! A34   A(11,12,13)           119.8577         estimate D2E/DX2                !
 ! A35   A(11,12,55)           120.3621         estimate D2E/DX2                !
 ! A36   A(13,12,55)           119.7731         estimate D2E/DX2                !
 ! A37   A(8,13,12)            122.8657         estimate D2E/DX2                !
 ! A38   A(8,13,16)            117.394          estimate D2E/DX2                !
 ! A39   A(12,13,16)           119.7293         estimate D2E/DX2                !
 ! A40   A(3,17,9)             121.9754         estimate D2E/DX2                !
 ! A41   A(7,20,21)            117.5812         estimate D2E/DX2                !
 ! A42   A(7,20,22)            123.1409         estimate D2E/DX2                !
 ! A43   A(21,20,22)           119.2778         estimate D2E/DX2                !
 ! A44   A(20,21,23)           120.743          estimate D2E/DX2                !
 ! A45   A(20,21,24)           119.1168         estimate D2E/DX2                !
 ! A46   A(23,21,24)           120.1402         estimate D2E/DX2                !
 ! A47   A(20,22,25)           119.4729         estimate D2E/DX2                !
 ! A48   A(20,22,30)           120.6504         estimate D2E/DX2                !
 ! A49   A(25,22,30)           119.8764         estimate D2E/DX2                !
 ! A50   A(21,23,26)           119.9416         estimate D2E/DX2                !
 ! A51   A(21,23,27)           119.7237         estimate D2E/DX2                !
 ! A52   A(26,23,27)           120.3347         estimate D2E/DX2                !
 ! A53   A(22,25,26)           121.0877         estimate D2E/DX2                !
 ! A54   A(22,25,28)           117.0808         estimate D2E/DX2                !
 ! A55   A(26,25,28)           121.8314         estimate D2E/DX2                !
 ! A56   A(23,26,25)           119.477          estimate D2E/DX2                !
 ! A57   A(23,26,29)           120.2096         estimate D2E/DX2                !
 ! A58   A(25,26,29)           120.3134         estimate D2E/DX2                !
 ! A59   A(22,30,31)           117.5758         estimate D2E/DX2                !
 ! A60   A(22,30,32)           116.2056         estimate D2E/DX2                !
 ! A61   A(31,30,32)           126.2185         estimate D2E/DX2                !
 ! A62   A(2,33,34)            120.2288         estimate D2E/DX2                !
 ! A63   A(2,33,35)            121.5735         estimate D2E/DX2                !
 ! A64   A(34,33,35)           118.1911         estimate D2E/DX2                !
 ! A65   A(33,34,36)           120.8528         estimate D2E/DX2                !
 ! A66   A(33,34,37)           118.8467         estimate D2E/DX2                !
 ! A67   A(36,34,37)           120.3005         estimate D2E/DX2                !
 ! A68   A(33,35,38)           120.971          estimate D2E/DX2                !
 ! A69   A(33,35,39)           119.3351         estimate D2E/DX2                !
 ! A70   A(38,35,39)           119.6916         estimate D2E/DX2                !
 ! A71   A(34,36,40)           120.2852         estimate D2E/DX2                !
 ! A72   A(34,36,41)           119.6659         estimate D2E/DX2                !
 ! A73   A(40,36,41)           120.0488         estimate D2E/DX2                !
 ! A74   A(35,38,40)           120.2809         estimate D2E/DX2                !
 ! A75   A(35,38,42)           119.5791         estimate D2E/DX2                !
 ! A76   A(40,38,42)           120.1347         estimate D2E/DX2                !
 ! A77   A(36,40,38)           119.4151         estimate D2E/DX2                !
 ! A78   A(36,40,43)           120.2747         estimate D2E/DX2                !
 ! A79   A(38,40,43)           120.31           estimate D2E/DX2                !
 ! A80   A(10,44,45)           121.6564         estimate D2E/DX2                !
 ! A81   A(10,44,46)           120.1057         estimate D2E/DX2                !
 ! A82   A(45,44,46)           118.2372         estimate D2E/DX2                !
 ! A83   A(44,45,47)           120.9475         estimate D2E/DX2                !
 ! A84   A(44,45,48)           119.3185         estimate D2E/DX2                !
 ! A85   A(47,45,48)           119.7309         estimate D2E/DX2                !
 ! A86   A(44,46,49)           120.8538         estimate D2E/DX2                !
 ! A87   A(44,46,50)           118.772          estimate D2E/DX2                !
 ! A88   A(49,46,50)           120.3742         estimate D2E/DX2                !
 ! A89   A(45,47,51)           120.2653         estimate D2E/DX2                !
 ! A90   A(45,47,52)           119.6166         estimate D2E/DX2                !
 ! A91   A(51,47,52)           120.1125         estimate D2E/DX2                !
 ! A92   A(46,49,51)           120.2599         estimate D2E/DX2                !
 ! A93   A(46,49,53)           119.6861         estimate D2E/DX2                !
 ! A94   A(51,49,53)           120.0539         estimate D2E/DX2                !
 ! A95   A(47,51,49)           119.432          estimate D2E/DX2                !
 ! A96   A(47,51,54)           120.3111         estimate D2E/DX2                !
 ! A97   A(49,51,54)           120.2566         estimate D2E/DX2                !
 ! A98   A(12,55,56)           120.2254         estimate D2E/DX2                !
 ! A99   A(12,55,57)           121.7858         estimate D2E/DX2                !
 ! A100  A(56,55,57)           117.9721         estimate D2E/DX2                !
 ! A101  A(55,56,58)           121.2356         estimate D2E/DX2                !
 ! A102  A(55,56,59)           119.1084         estimate D2E/DX2                !
 ! A103  A(58,56,59)           119.6428         estimate D2E/DX2                !
 ! A104  A(55,57,60)           120.7723         estimate D2E/DX2                !
 ! A105  A(55,57,61)           118.5665         estimate D2E/DX2                !
 ! A106  A(60,57,61)           120.6612         estimate D2E/DX2                !
 ! A107  A(56,58,62)           120.1314         estimate D2E/DX2                !
 ! A108  A(56,58,63)           119.7181         estimate D2E/DX2                !
 ! A109  A(62,58,63)           120.1468         estimate D2E/DX2                !
 ! A110  A(57,60,62)           120.5448         estimate D2E/DX2                !
 ! A111  A(57,60,64)           119.5504         estimate D2E/DX2                !
 ! A112  A(62,60,64)           119.9048         estimate D2E/DX2                !
 ! A113  A(58,62,60)           119.3385         estimate D2E/DX2                !
 ! A114  A(58,62,65)           120.3074         estimate D2E/DX2                !
 ! A115  A(60,62,65)           120.3532         estimate D2E/DX2                !
 ! D1    D(6,1,2,3)              1.0168         estimate D2E/DX2                !
 ! D2    D(6,1,2,33)          -178.7121         estimate D2E/DX2                !
 ! D3    D(19,1,2,3)          -179.9948         estimate D2E/DX2                !
 ! D4    D(19,1,2,33)            0.2762         estimate D2E/DX2                !
 ! D5    D(2,1,6,5)             -0.1644         estimate D2E/DX2                !
 ! D6    D(2,1,6,15)           179.5348         estimate D2E/DX2                !
 ! D7    D(19,1,6,5)          -179.1723         estimate D2E/DX2                !
 ! D8    D(19,1,6,15)            0.527          estimate D2E/DX2                !
 ! D9    D(1,2,3,4)             -1.2408         estimate D2E/DX2                !
 ! D10   D(1,2,3,17)           177.5369         estimate D2E/DX2                !
 ! D11   D(33,2,3,4)           178.4823         estimate D2E/DX2                !
 ! D12   D(33,2,3,17)           -2.74           estimate D2E/DX2                !
 ! D13   D(1,2,33,34)          -46.6067         estimate D2E/DX2                !
 ! D14   D(1,2,33,35)          132.4376         estimate D2E/DX2                !
 ! D15   D(3,2,33,34)          133.6733         estimate D2E/DX2                !
 ! D16   D(3,2,33,35)          -47.2824         estimate D2E/DX2                !
 ! D17   D(2,3,4,5)              0.5498         estimate D2E/DX2                !
 ! D18   D(2,3,4,7)            178.9613         estimate D2E/DX2                !
 ! D19   D(17,3,4,5)          -178.1925         estimate D2E/DX2                !
 ! D20   D(17,3,4,7)             0.219          estimate D2E/DX2                !
 ! D21   D(2,3,17,9)           179.4452         estimate D2E/DX2                !
 ! D22   D(4,3,17,9)            -1.7283         estimate D2E/DX2                !
 ! D23   D(3,4,5,6)              0.3624         estimate D2E/DX2                !
 ! D24   D(3,4,5,14)           179.7668         estimate D2E/DX2                !
 ! D25   D(7,4,5,6)           -177.986          estimate D2E/DX2                !
 ! D26   D(7,4,5,14)             1.4183         estimate D2E/DX2                !
 ! D27   D(3,4,7,8)              2.4533         estimate D2E/DX2                !
 ! D28   D(3,4,7,20)           172.541          estimate D2E/DX2                !
 ! D29   D(5,4,7,8)           -179.2337         estimate D2E/DX2                !
 ! D30   D(5,4,7,20)            -9.1461         estimate D2E/DX2                !
 ! D31   D(4,5,6,1)             -0.5355         estimate D2E/DX2                !
 ! D32   D(4,5,6,15)           179.7793         estimate D2E/DX2                !
 ! D33   D(14,5,6,1)          -179.9232         estimate D2E/DX2                !
 ! D34   D(14,5,6,15)            0.3916         estimate D2E/DX2                !
 ! D35   D(4,7,8,9)             -3.6476         estimate D2E/DX2                !
 ! D36   D(4,7,8,13)           177.0297         estimate D2E/DX2                !
 ! D37   D(20,7,8,9)          -173.7367         estimate D2E/DX2                !
 ! D38   D(20,7,8,13)            6.9406         estimate D2E/DX2                !
 ! D39   D(4,7,20,21)          -84.4635         estimate D2E/DX2                !
 ! D40   D(4,7,20,22)           95.6495         estimate D2E/DX2                !
 ! D41   D(8,7,20,21)           85.5597         estimate D2E/DX2                !
 ! D42   D(8,7,20,22)          -94.3272         estimate D2E/DX2                !
 ! D43   D(7,8,9,10)          -179.3384         estimate D2E/DX2                !
 ! D44   D(7,8,9,17)             2.2169         estimate D2E/DX2                !
 ! D45   D(13,8,9,10)            0.0236         estimate D2E/DX2                !
 ! D46   D(13,8,9,17)         -178.4211         estimate D2E/DX2                !
 ! D47   D(7,8,13,12)          179.3625         estimate D2E/DX2                !
 ! D48   D(7,8,13,16)           -1.8486         estimate D2E/DX2                !
 ! D49   D(9,8,13,12)            0.0271         estimate D2E/DX2                !
 ! D50   D(9,8,13,16)          178.8159         estimate D2E/DX2                !
 ! D51   D(8,9,10,11)           -0.0532         estimate D2E/DX2                !
 ! D52   D(8,9,10,44)          179.862          estimate D2E/DX2                !
 ! D53   D(17,9,10,11)         178.4324         estimate D2E/DX2                !
 ! D54   D(17,9,10,44)          -1.6524         estimate D2E/DX2                !
 ! D55   D(8,9,17,3)             0.5068         estimate D2E/DX2                !
 ! D56   D(10,9,17,3)         -178.0259         estimate D2E/DX2                !
 ! D57   D(9,10,11,12)           0.0335         estimate D2E/DX2                !
 ! D58   D(9,10,11,18)         178.3901         estimate D2E/DX2                !
 ! D59   D(44,10,11,12)       -179.8837         estimate D2E/DX2                !
 ! D60   D(44,10,11,18)         -1.5272         estimate D2E/DX2                !
 ! D61   D(9,10,44,45)         -47.98           estimate D2E/DX2                !
 ! D62   D(9,10,44,46)         132.3417         estimate D2E/DX2                !
 ! D63   D(11,10,44,45)        131.9355         estimate D2E/DX2                !
 ! D64   D(11,10,44,46)        -47.7428         estimate D2E/DX2                !
 ! D65   D(10,11,12,13)          0.0139         estimate D2E/DX2                !
 ! D66   D(10,11,12,55)        179.0488         estimate D2E/DX2                !
 ! D67   D(18,11,12,13)       -178.3399         estimate D2E/DX2                !
 ! D68   D(18,11,12,55)          0.6949         estimate D2E/DX2                !
 ! D69   D(11,12,13,8)          -0.045          estimate D2E/DX2                !
 ! D70   D(11,12,13,16)       -178.8066         estimate D2E/DX2                !
 ! D71   D(55,12,13,8)        -179.0855         estimate D2E/DX2                !
 ! D72   D(55,12,13,16)          2.1528         estimate D2E/DX2                !
 ! D73   D(11,12,55,56)       -144.3314         estimate D2E/DX2                !
 ! D74   D(11,12,55,57)         37.1801         estimate D2E/DX2                !
 ! D75   D(13,12,55,56)         34.7042         estimate D2E/DX2                !
 ! D76   D(13,12,55,57)       -143.7843         estimate D2E/DX2                !
 ! D77   D(7,20,21,23)        -179.8822         estimate D2E/DX2                !
 ! D78   D(7,20,21,24)           0.0581         estimate D2E/DX2                !
 ! D79   D(22,20,21,23)          0.0093         estimate D2E/DX2                !
 ! D80   D(22,20,21,24)        179.9496         estimate D2E/DX2                !
 ! D81   D(7,20,22,25)         179.9304         estimate D2E/DX2                !
 ! D82   D(7,20,22,30)          -0.2941         estimate D2E/DX2                !
 ! D83   D(21,20,22,25)          0.0452         estimate D2E/DX2                !
 ! D84   D(21,20,22,30)        179.8208         estimate D2E/DX2                !
 ! D85   D(20,21,23,26)         -0.0489         estimate D2E/DX2                !
 ! D86   D(20,21,23,27)        179.9682         estimate D2E/DX2                !
 ! D87   D(24,21,23,26)       -179.9887         estimate D2E/DX2                !
 ! D88   D(24,21,23,27)          0.0285         estimate D2E/DX2                !
 ! D89   D(20,22,25,26)         -0.0612         estimate D2E/DX2                !
 ! D90   D(20,22,25,28)        179.8469         estimate D2E/DX2                !
 ! D91   D(30,22,25,26)       -179.8386         estimate D2E/DX2                !
 ! D92   D(30,22,25,28)          0.0696         estimate D2E/DX2                !
 ! D93   D(20,22,30,31)        179.9312         estimate D2E/DX2                !
 ! D94   D(20,22,30,32)         -0.1861         estimate D2E/DX2                !
 ! D95   D(25,22,30,31)         -0.2941         estimate D2E/DX2                !
 ! D96   D(25,22,30,32)        179.5885         estimate D2E/DX2                !
 ! D97   D(21,23,26,25)          0.0334         estimate D2E/DX2                !
 ! D98   D(21,23,26,29)       -179.9287         estimate D2E/DX2                !
 ! D99   D(27,23,26,25)       -179.9839         estimate D2E/DX2                !
 ! D100  D(27,23,26,29)          0.0541         estimate D2E/DX2                !
 ! D101  D(22,25,26,23)          0.0218         estimate D2E/DX2                !
 ! D102  D(22,25,26,29)        179.9838         estimate D2E/DX2                !
 ! D103  D(28,25,26,23)       -179.8819         estimate D2E/DX2                !
 ! D104  D(28,25,26,29)          0.0801         estimate D2E/DX2                !
 ! D105  D(2,33,34,36)         179.8295         estimate D2E/DX2                !
 ! D106  D(2,33,34,37)          -0.2474         estimate D2E/DX2                !
 ! D107  D(35,33,34,36)          0.7533         estimate D2E/DX2                !
 ! D108  D(35,33,34,37)       -179.3235         estimate D2E/DX2                !
 ! D109  D(2,33,35,38)        -179.5033         estimate D2E/DX2                !
 ! D110  D(2,33,35,39)           1.0472         estimate D2E/DX2                !
 ! D111  D(34,33,35,38)         -0.4402         estimate D2E/DX2                !
 ! D112  D(34,33,35,39)       -179.8897         estimate D2E/DX2                !
 ! D113  D(33,34,36,40)         -0.6183         estimate D2E/DX2                !
 ! D114  D(33,34,36,41)        179.4561         estimate D2E/DX2                !
 ! D115  D(37,34,36,40)        179.4597         estimate D2E/DX2                !
 ! D116  D(37,34,36,41)         -0.4659         estimate D2E/DX2                !
 ! D117  D(33,35,38,40)         -0.011          estimate D2E/DX2                !
 ! D118  D(33,35,38,42)       -179.1757         estimate D2E/DX2                !
 ! D119  D(39,35,38,40)        179.4367         estimate D2E/DX2                !
 ! D120  D(39,35,38,42)          0.2719         estimate D2E/DX2                !
 ! D121  D(34,36,40,38)          0.1506         estimate D2E/DX2                !
 ! D122  D(34,36,40,43)       -179.9906         estimate D2E/DX2                !
 ! D123  D(41,36,40,38)       -179.9241         estimate D2E/DX2                !
 ! D124  D(41,36,40,43)         -0.0653         estimate D2E/DX2                !
 ! D125  D(35,38,40,36)          0.1613         estimate D2E/DX2                !
 ! D126  D(35,38,40,43)       -179.6975         estimate D2E/DX2                !
 ! D127  D(42,38,40,36)        179.3214         estimate D2E/DX2                !
 ! D128  D(42,38,40,43)         -0.5374         estimate D2E/DX2                !
 ! D129  D(10,44,45,47)        179.8914         estimate D2E/DX2                !
 ! D130  D(10,44,45,48)          0.5327         estimate D2E/DX2                !
 ! D131  D(46,44,45,47)         -0.4245         estimate D2E/DX2                !
 ! D132  D(46,44,45,48)       -179.7832         estimate D2E/DX2                !
 ! D133  D(10,44,46,49)       -179.5162         estimate D2E/DX2                !
 ! D134  D(10,44,46,50)          0.5326         estimate D2E/DX2                !
 ! D135  D(45,44,46,49)          0.7946         estimate D2E/DX2                !
 ! D136  D(45,44,46,50)       -179.1566         estimate D2E/DX2                !
 ! D137  D(44,45,47,51)         -0.0471         estimate D2E/DX2                !
 ! D138  D(44,45,47,52)       -179.1818         estimate D2E/DX2                !
 ! D139  D(48,45,47,51)        179.3089         estimate D2E/DX2                !
 ! D140  D(48,45,47,52)          0.1743         estimate D2E/DX2                !
 ! D141  D(44,46,49,51)         -0.6958         estimate D2E/DX2                !
 ! D142  D(44,46,49,53)        179.4393         estimate D2E/DX2                !
 ! D143  D(50,46,49,51)        179.2546         estimate D2E/DX2                !
 ! D144  D(50,46,49,53)         -0.6103         estimate D2E/DX2                !
 ! D145  D(45,47,51,49)          0.161          estimate D2E/DX2                !
 ! D146  D(45,47,51,54)       -179.6287         estimate D2E/DX2                !
 ! D147  D(52,47,51,49)        179.2914         estimate D2E/DX2                !
 ! D148  D(52,47,51,54)         -0.4984         estimate D2E/DX2                !
 ! D149  D(46,49,51,47)          0.2071         estimate D2E/DX2                !
 ! D150  D(46,49,51,54)        179.997          estimate D2E/DX2                !
 ! D151  D(53,49,51,47)       -179.9285         estimate D2E/DX2                !
 ! D152  D(53,49,51,54)         -0.1386         estimate D2E/DX2                !
 ! D153  D(12,55,56,58)       -177.8177         estimate D2E/DX2                !
 ! D154  D(12,55,56,59)          3.5126         estimate D2E/DX2                !
 ! D155  D(57,55,56,58)          0.7275         estimate D2E/DX2                !
 ! D156  D(57,55,56,59)       -177.9422         estimate D2E/DX2                !
 ! D157  D(12,55,57,60)        177.641          estimate D2E/DX2                !
 ! D158  D(12,55,57,61)         -2.3915         estimate D2E/DX2                !
 ! D159  D(56,55,57,60)         -0.8802         estimate D2E/DX2                !
 ! D160  D(56,55,57,61)        179.0873         estimate D2E/DX2                !
 ! D161  D(55,56,58,62)         -0.2753         estimate D2E/DX2                !
 ! D162  D(55,56,58,63)       -179.5733         estimate D2E/DX2                !
 ! D163  D(59,56,58,62)        178.3874         estimate D2E/DX2                !
 ! D164  D(59,56,58,63)         -0.9106         estimate D2E/DX2                !
 ! D165  D(55,57,60,62)          0.5876         estimate D2E/DX2                !
 ! D166  D(55,57,60,64)       -179.3976         estimate D2E/DX2                !
 ! D167  D(61,57,60,62)       -179.3792         estimate D2E/DX2                !
 ! D168  D(61,57,60,64)          0.6355         estimate D2E/DX2                !
 ! D169  D(56,58,62,60)         -0.0436         estimate D2E/DX2                !
 ! D170  D(56,58,62,65)       -179.7023         estimate D2E/DX2                !
 ! D171  D(63,58,62,60)        179.2514         estimate D2E/DX2                !
 ! D172  D(63,58,62,65)         -0.4073         estimate D2E/DX2                !
 ! D173  D(57,60,62,58)         -0.1121         estimate D2E/DX2                !
 ! D174  D(57,60,62,65)        179.5465         estimate D2E/DX2                !
 ! D175  D(64,60,62,58)        179.8731         estimate D2E/DX2                !
 ! D176  D(64,60,62,65)         -0.4684         estimate D2E/DX2                !
 --------------------------------------------------------------------------------
 Trust Radius=3.00D-01 FncErr=1.00D-07 GrdErr=1.00D-06
 Number of steps in this run=    372 maximum allowed number of steps=    390.
 GradGradGradGradGradGradGradGradGradGradGradGradGradGradGradGradGradGrad

 Leave Link  103 at Mon Jan 31 23:31:27 2022, MaxMem=  5242880000 cpu:         0.3
 (Enter /opt/nce/packages/global/g09/l202.exe)
 Symmetry turned off by external request.
 Stoichiometry    C38H22O5(2-)
 Framework group  C1[X(C38H22O5)]
 Deg. of freedom   189
 Full point group                 C1      NOp   1
                          Input orientation:                          
 ---------------------------------------------------------------------
 Center     Atomic      Atomic             Coordinates (Angstroms)
 Number     Number       Type             X           Y           Z
 ---------------------------------------------------------------------
      1          6           0       -5.061408   -2.318051    1.462909
      2          6           0       -3.670908   -2.006248    1.183434
      3          6           0       -3.386225   -0.978605    0.288135
      4          6           0       -4.386441   -0.228815   -0.391884
      5          6           0       -5.742060   -0.554941   -0.119698
      6          6           0       -6.065369   -1.544644    0.766168
      7          6           0       -4.003578    0.807963   -1.263481
      8          6           0       -2.634238    1.050683   -1.486942
      9          6           0       -1.665971    0.296957   -0.769559
     10          6           0       -0.298484    0.485109   -0.922870
     11          6           0        0.184858    1.491395   -1.853801
     12          6           0       -0.817130    2.268407   -2.593930
     13          6           0       -2.158001    2.028532   -2.390607
     14          1           0       -6.528908    0.021167   -0.637132
     15          1           0       -7.118004   -1.797363    0.981949
     16          1           0       -2.909835    2.600645   -2.963102
     17          8           0       -2.067000   -0.682741    0.092450
     18          8           0        1.425266    1.710651   -1.996504
     19          8           0       -5.403022   -3.243471    2.269791
     20          6           0       -5.023974    1.486448   -2.103198
     21          6           0       -5.364349    0.885636   -3.323443
     22          6           0       -5.649590    2.687453   -1.730844
     23          6           0       -6.312546    1.467381   -4.164525
     24          1           0       -4.870391   -0.057824   -3.613850
     25          6           0       -6.599768    3.260999   -2.581835
     26          6           0       -6.934993    2.661646   -3.792969
     27          1           0       -6.567156    0.980639   -5.120792
     28          1           0       -7.068473    4.203080   -2.249217
     29          1           0       -7.686384    3.124965   -4.454239
     30          6           0       -5.308560    3.360761   -0.418404
     31          8           0       -5.907233    4.443290   -0.141229
     32          8           0       -4.445376    2.777637    0.301488
     33          6           0       -2.601499   -2.780420    1.842165
     34          6           0       -2.658192   -3.031667    3.224205
     35          6           0       -1.517296   -3.301541    1.116897
     36          6           0       -1.656283   -3.764944    3.859567
     37          1           0       -3.509898   -2.637518    3.801729
     38          6           0       -0.519335   -4.039798    1.750263
     39          1           0       -1.453088   -3.114382    0.032368
     40          6           0       -0.582240   -4.274184    3.125018
     41          1           0       -1.715820   -3.942893    4.947079
     42          1           0        0.328938   -4.426714    1.160767
     43          1           0        0.210079   -4.854303    3.627731
     44          6           0        0.679603   -0.313835   -0.159079
     45          6           0        0.558114   -0.498266    1.227423
     46          6           0        1.770885   -0.907988   -0.815812
     47          6           0        1.489415   -1.257776    1.933915
     48          1           0       -0.293166   -0.043075    1.760056
     49          6           0        2.698694   -1.674221   -0.111239
     50          1           0        1.882584   -0.757216   -1.901675
     51          6           0        2.563363   -1.851039    1.268495
     52          1           0        1.365221   -1.399638    3.020787
     53          1           0        3.543274   -2.139642   -0.647892
     54          1           0        3.297424   -2.457314    1.825872
     55          6           0       -0.396744    3.318419   -3.537758
     56          6           0       -1.157519    4.494050   -3.674161
     57          6           0        0.745052    3.173283   -4.347765
     58          6           0       -0.804360    5.480927   -4.592733
     59          1           0       -2.037396    4.642895   -3.023976
     60          6           0        1.096272    4.159374   -5.268962
     61          1           0        1.355965    2.264209   -4.238287
     62          6           0        0.326342    5.318206   -5.396828
     63          1           0       -1.414860    6.396177   -4.673892
     64          1           0        1.990116    4.020232   -5.900886
     65          1           0        0.611264    6.099541   -6.121258
 ---------------------------------------------------------------------
 Rotational constants (GHZ):      0.1027612      0.0702795      0.0456835
 Leave Link  202 at Mon Jan 31 23:31:27 2022, MaxMem=  5242880000 cpu:         0.1
 (Enter /opt/nce/packages/global/g09/l301.exe)
 Standard basis: def2TZVP (5D, 7F)
 Ernie: Thresh=  0.10000D-02 Tol=  0.10000D-05 Strict=F.
  1465 basis functions,  2369 primitive gaussians,  1680 cartesian basis functions
   146 alpha electrons      146 beta electrons
       nuclear repulsion energy      4754.4150242511 Hartrees.
 IExCor= 3630 DFT=T Ex+Corr=B97D3 ExCW=0 ScaHFX=  0.000000
 ScaDFX=  1.000000  1.000000  1.000000  1.000000 ScalE2=  1.000000  1.000000
 IRadAn=      5 IRanWt=     -1 IRanGd=            0 ICorTp=0 IEmpDi=141
 NAtoms=   65 NActive=   65 NUniq=   65 SFac= 1.00D+00 NAtFMM=   60 NAOKFM=T Big=T
 Integral buffers will be    131072 words long.
 Raffenetti 2 integral format.
 Two-electron integral symmetry is turned off.
 R6Disp:  Grimme-D3(BJ) Dispersion energy=       -0.2778840794 Hartrees.
 Nuclear repulsion after empirical dispersion term =     4754.1371401716 Hartrees.
 ------------------------------------------------------------------------------
 Polarizable Continuum Model (PCM)
 =================================
 Model                : PCM (using non-symmetric T matrix).
 Atomic radii         : SMD-Coulomb.
 Polarization charges : Total charges.
 Charge compensation  : None.
 Solution method      : On-the-fly selection.
 Cavity type          : VdW (van der Waals Surface) (Alpha=1.000).
 Cavity algorithm     : GePol (No added spheres)
                        Default sphere list used, NSphG=   65.
                        Lebedev-Laikov grids with approx.  5.0 points / Ang**2.
                        Smoothing algorithm: York/Karplus (Gamma=1.0000).
                        Polarization charges: spherical gaussians, with
                                              point-specific exponents (IZeta= 3).
                        Self-potential: point-specific (ISelfS= 7).
                        Self-field    : sphere-specific E.n sum rule (ISelfD= 2).
 1st derivatives      : Analytical E(r).r(x)/FMM algorithm (CHGder, D1EAlg=3).
                        Cavity 1st derivative terms included.
 Solvent              : Acetonitrile, Eps=  35.688000 Eps(inf)=   1.806874
 ------------------------------------------------------------------------------
 GePol: Number of generator spheres                  =      65
 GePol: Total number of spheres                      =      65
 GePol: Number of exposed spheres                    =      65 (100.00%)
 GePol: Number of points                             =    4820
 GePol: Average weight of points                     =       0.12
 GePol: Minimum weight of points                     =   0.12D-09
 GePol: Maximum weight of points                     =    0.21559
 GePol: Number of points with low weight             =     267
 GePol: Fraction of low-weight points (<1% of avg)   =       5.54%
 GePol: Cavity surface area                          =    564.777 Ang**2
 GePol: Cavity volume                                =    598.451 Ang**3
 ------------------------------------------------------------------------------
 Atomic radii for non-electrostatic terms: SMD-CDS.
 ------------------------------------------------------------------------------
 PCM non-electrostatic energy =        -0.0140226638 Hartrees.
 Nuclear repulsion after PCM non-electrostatic terms =     4754.1231175079 Hartrees.
 Leave Link  301 at Mon Jan 31 23:31:28 2022, MaxMem=  5242880000 cpu:         1.8
 (Enter /opt/nce/packages/global/g09/l302.exe)
 NPDir=0 NMtPBC=     1 NCelOv=     1 NCel=       1 NClECP=     1 NCelD=      1
         NCelK=      1 NCelE2=     1 NClLst=     1 CellRange=     0.0.
 One-electron integrals computed using PRISM.
   1 Symmetry operations used in ECPInt.
 ECPInt:  NShTT=  157641 NPrTT=  493540 LenC2=  119516 LenP2D=  246576.
 LDataN:  DoStor=T MaxTD1= 6 Len=  172
 NBasis=  1465 RedAO= T EigKep=  3.82D-06  NBF=  1465
 NBsUse=  1465 1.00D-06 EigRej= -1.00D+00 NBFU=  1465
 Precomputing XC quadrature grid using
 IXCGrd= 4 IRadAn=           5 IRanWt=          -1 IRanGd=           0 AccXCQ= 0.00D+00.
 Generated NRdTot=       0 NPtTot=           0 NUsed=           0 NTot=          32
 NSgBfM=  1614  1614  1614  1614  1614 MxSgAt=    65 MxSgA2=    65.
 Leave Link  302 at Mon Jan 31 23:31:33 2022, MaxMem=  5242880000 cpu:        59.0
 (Enter /opt/nce/packages/global/g09/l303.exe)
 DipDrv:  MaxL=1.
 Leave Link  303 at Mon Jan 31 23:31:33 2022, MaxMem=  5242880000 cpu:         5.1
 (Enter /opt/nce/packages/global/g09/l401.exe)
 ExpMin= 9.52D-02 ExpMax= 2.70D+04 ExpMxC= 9.22D+02 IAcc=3 IRadAn=         5 AccDes= 0.00D+00
 Harris functional with IExCor= 3630 and IRadAn=       5 diagonalized for initial guess.
 HarFok:  IExCor= 3630 AccDes= 0.00D+00 IRadAn=         5 IDoV= 1 UseB2=F ITyADJ=14
 ICtDFT=  3500011 ScaDFX=  1.000000  1.000000  1.000000  1.000000
 FoFCou: FMM=F IPFlag=           0 FMFlag=      100000 FMFlg1=        2001
         NFxFlg=           0 DoJE=T BraDBF=F KetDBF=T FulRan=T
         wScrn=  0.000000 ICntrl=     500 IOpCl=  0 I1Cent=   200000004 NGrid=           0
         NMat0=    1 NMatS0=      1 NMatT0=    0 NMatD0=    1 NMtDS0=    0 NMtDT0=    0
 Symmetry not used in FoFCou.
 Harris En= -1837.93966897072    
 JPrj=0 DoOrth=F DoCkMO=F.
 Leave Link  401 at Mon Jan 31 23:31:53 2022, MaxMem=  5242880000 cpu:       234.3
 (Enter /opt/nce/packages/global/g09/l502.exe)
 Closed shell SCF:
 Using DIIS extrapolation, IDIIS=  1040.
 Two-electron integral symmetry not used.
 IVT=     8516120 IEndB=     8516120 NGot=  5242880000 MDV=  5237204601
 LenX=  5237204601 LenY=  5234380521
 Requested convergence on RMS density matrix=1.00D-08 within 128 cycles.
 Requested convergence on MAX density matrix=1.00D-06.
 Requested convergence on             energy=1.00D-06.
 No special actions if energy rises.
 Fock matrices will be formed incrementally for  20 cycles.

 Cycle   1  Pass 1  IDiag  1:
 FoFJK:  IHMeth= 1 ICntrl=     500 DoSepK=F KAlg= 0 I1Cent=   0 FoldK=F
 IRaf= 710000000 NMat=   1 IRICut=       1 DoRegI=T DoRafI=F ISym2E= 0.
 FoFCou: FMM=T IPFlag=           0 FMFlag=      100000 FMFlg1=        2001
         NFxFlg=           0 DoJE=T BraDBF=F KetDBF=F FulRan=T
         wScrn=  0.000000 ICntrl=     500 IOpCl=  0 I1Cent=           0 NGrid=           0
         NMat0=    1 NMatS0=      1 NMatT0=    0 NMatD0=    1 NMtDS0=    0 NMtDT0=    0
 Symmetry not used in FoFCou.
 FMM levels:  10  Number of levels for PrismC:   9
 Inv3:  Mode=1 IEnd=    69697200.
 Iteration    1 A*A^-1 deviation from unit magnitude is 8.66D-15 for   4809.
 Iteration    1 A*A^-1 deviation from orthogonality  is 4.11D-15 for   2465   2268.
 Iteration    1 A^-1*A deviation from unit magnitude is 8.44D-15 for   4814.
 Iteration    1 A^-1*A deviation from orthogonality  is 4.75D-12 for   4272   3679.
 E= -1836.22419929921    
 DIIS: error= 2.19D-02 at cycle   1 NSaved=   1.
 NSaved= 1 IEnMin= 1 EnMin= -1836.22419929921     IErMin= 1 ErrMin= 2.19D-02
 ErrMax= 2.19D-02  0.00D+00 EMaxC= 1.00D-01 BMatC= 1.06D+00 BMatP= 1.06D+00
 IDIUse=3 WtCom= 7.81D-01 WtEn= 2.19D-01
 Coeff-Com:  0.100D+01
 Coeff-En:   0.100D+01
 Coeff:      0.100D+01
 Gap=     0.037 Goal=   None    Shift=    0.000
 GapD=    0.037 DampG=0.250 DampE=0.500 DampFc=0.2500 IDamp=-1.
 Damping current iteration by 2.50D-01
 RMSDP=3.20D-02 MaxDP=4.25D+00              OVMax= 8.94D-01

 Cycle   2  Pass 1  IDiag  1:
 RMSU=  7.86D-03    CP:  1.31D+00
 E= -1836.41250621196     Delta-E=       -0.188306912758 Rises=F Damp=T
 DIIS: error= 7.77D-03 at cycle   2 NSaved=   2.
 NSaved= 2 IEnMin= 2 EnMin= -1836.41250621196     IErMin= 2 ErrMin= 7.77D-03
 ErrMax= 7.77D-03  0.00D+00 EMaxC= 1.00D-01 BMatC= 2.17D-01 BMatP= 1.06D+00
 IDIUse=3 WtCom= 9.22D-01 WtEn= 7.77D-02
 Coeff-Com: -0.174D+00 0.117D+01
 Coeff-En:   0.294D+00 0.706D+00
 Coeff:     -0.138D+00 0.114D+01
 Gap=    -0.225 Goal=   None    Shift=    0.000
 RMSDP=6.35D-03 MaxDP=9.16D-01 DE=-1.88D-01 OVMax= 6.08D-01

 Cycle   3  Pass 1  IDiag  1:
 RMSU=  2.27D-03    CP:  1.05D+00  2.62D-01
 E= -1836.40196746143     Delta-E=        0.010538750531 Rises=F Damp=F
 DIIS: error= 1.56D-02 at cycle   3 NSaved=   3.
 NSaved= 3 IEnMin= 2 EnMin= -1836.41250621196     IErMin= 2 ErrMin= 7.77D-03
 ErrMax= 1.56D-02  0.00D+00 EMaxC= 1.00D-01 BMatC= 7.92D-01 BMatP= 2.17D-01
 IDIUse=2 WtCom= 0.00D+00 WtEn= 1.00D+00
 Coeff-En:   0.000D+00 0.504D+00 0.496D+00
 Coeff:      0.000D+00 0.504D+00 0.496D+00
 Gap=     0.149 Goal=   None    Shift=    0.000
 RMSDP=8.91D-03 MaxDP=1.70D+00 DE= 1.05D-02 OVMax= 8.13D-01

 Cycle   4  Pass 1  IDiag  1:
 RMSU=  4.17D-03    CP:  1.36D+00  1.20D+00 -8.12D-02
 E= -1834.69529694156     Delta-E=        1.706670519872 Rises=F Damp=F
 DIIS: error= 2.96D-02 at cycle   4 NSaved=   4.
 NSaved= 4 IEnMin= 2 EnMin= -1836.41250621196     IErMin= 2 ErrMin= 7.77D-03
 ErrMax= 2.96D-02  0.00D+00 EMaxC= 1.00D-01 BMatC= 1.79D+00 BMatP= 2.17D-01
 IDIUse=2 WtCom= 0.00D+00 WtEn= 1.00D+00
 EnCoef did     2 forward-backward iterations
 Coeff-En:   0.853D-01 0.000D+00 0.619D+00 0.296D+00
 Coeff:      0.853D-01 0.000D+00 0.619D+00 0.296D+00
 Gap=     0.024 Goal=   None    Shift=    0.000
 RMSDP=7.31D-03 MaxDP=1.46D+00 DE= 1.71D+00 OVMax= 8.75D-01

 Cycle   5  Pass 1  IDiag  1:
 RMSU=  2.55D-03    CP:  1.20D+00  6.16D-01  6.25D-01 -1.50D-01
 E= -1836.23933078820     Delta-E=       -1.544033846642 Rises=F Damp=F
 DIIS: error= 2.97D-02 at cycle   5 NSaved=   5.
 NSaved= 5 IEnMin= 2 EnMin= -1836.41250621196     IErMin= 2 ErrMin= 7.77D-03
 ErrMax= 2.97D-02  0.00D+00 EMaxC= 1.00D-01 BMatC= 8.23D-01 BMatP= 2.17D-01
 IDIUse=2 WtCom= 0.00D+00 WtEn= 1.00D+00
 EnCoef did     3 forward-backward iterations
 Coeff-En:   0.795D-02 0.000D+00 0.532D+00 0.211D+00 0.249D+00
 Coeff:      0.795D-02 0.000D+00 0.532D+00 0.211D+00 0.249D+00
 Gap=     0.062 Goal=   None    Shift=    0.000
 RMSDP=3.86D-03 MaxDP=7.10D-01 DE=-1.54D+00 OVMax= 4.60D-01

 Cycle   6  Pass 1  IDiag  1:
 RMSU=  1.71D-03    CP:  1.11D+00  3.87D-01  3.38D-01  2.75D-01  1.27D-01
 E= -1837.10583648173     Delta-E=       -0.866505693526 Rises=F Damp=F
 DIIS: error= 8.12D-03 at cycle   6 NSaved=   6.
 NSaved= 6 IEnMin= 6 EnMin= -1837.10583648173     IErMin= 2 ErrMin= 7.77D-03
 ErrMax= 8.12D-03  0.00D+00 EMaxC= 1.00D-01 BMatC= 1.54D-01 BMatP= 2.17D-01
 IDIUse=3 WtCom= 9.19D-01 WtEn= 8.12D-02
 EnCoef did     3 forward-backward iterations
 Coeff-Com: -0.196D+00 0.482D+00 0.263D+00-0.213D-02 0.964D-01 0.357D+00
 Coeff-En:   0.000D+00 0.000D+00 0.746D-01 0.000D+00 0.131D+00 0.794D+00
 Coeff:     -0.180D+00 0.443D+00 0.247D+00-0.196D-02 0.992D-01 0.393D+00
 Gap=     0.073 Goal=   None    Shift=    0.000
 RMSDP=1.15D-03 MaxDP=2.90D-01 DE=-8.67D-01 OVMax= 1.30D-01

 Cycle   7  Pass 1  IDiag  1:
 RMSU=  5.83D-04    CP:  1.10D+00  3.34D-01  5.08D-01  1.88D-01  1.83D-01
                    CP:  5.89D-01
 E= -1837.19297089669     Delta-E=       -0.087134414960 Rises=F Damp=F
 DIIS: error= 5.74D-03 at cycle   7 NSaved=   7.
 NSaved= 7 IEnMin= 7 EnMin= -1837.19297089669     IErMin= 7 ErrMin= 5.74D-03
 ErrMax= 5.74D-03  0.00D+00 EMaxC= 1.00D-01 BMatC= 5.11D-02 BMatP= 1.54D-01
 IDIUse=3 WtCom= 9.43D-01 WtEn= 5.74D-02
 Coeff-Com: -0.178D+00 0.320D+00 0.102D+00-0.263D-01 0.614D-01 0.306D+00
 Coeff-Com:  0.415D+00
 Coeff-En:   0.000D+00 0.000D+00 0.000D+00 0.000D+00 0.000D+00 0.239D+00
 Coeff-En:   0.761D+00
 Coeff:     -0.168D+00 0.302D+00 0.962D-01-0.248D-01 0.579D-01 0.302D+00
 Coeff:      0.435D+00
 Gap=     0.069 Goal=   None    Shift=    0.000
 RMSDP=6.60D-04 MaxDP=1.48D-01 DE=-8.71D-02 OVMax= 8.85D-02

 Cycle   8  Pass 1  IDiag  1:
 RMSU=  3.28D-04    CP:  1.12D+00  3.88D-01  5.24D-01  1.73D-01  2.83D-01
                    CP:  6.53D-01  5.95D-01
 E= -1837.22853867355     Delta-E=       -0.035567776866 Rises=F Damp=F
 DIIS: error= 3.20D-03 at cycle   8 NSaved=   8.
 NSaved= 8 IEnMin= 8 EnMin= -1837.22853867355     IErMin= 8 ErrMin= 3.20D-03
 ErrMax= 3.20D-03  0.00D+00 EMaxC= 1.00D-01 BMatC= 9.07D-03 BMatP= 5.11D-02
 IDIUse=3 WtCom= 9.68D-01 WtEn= 3.20D-02
 Coeff-Com: -0.766D-01 0.120D+00-0.144D-01-0.634D-02 0.200D-01 0.563D-01
 Coeff-Com:  0.310D+00 0.592D+00
 Coeff-En:   0.000D+00 0.000D+00 0.000D+00 0.000D+00 0.000D+00 0.000D+00
 Coeff-En:   0.100D+00 0.900D+00
 Coeff:     -0.741D-01 0.116D+00-0.140D-01-0.613D-02 0.193D-01 0.545D-01
 Coeff:      0.303D+00 0.602D+00
 Gap=     0.070 Goal=   None    Shift=    0.000
 RMSDP=3.48D-04 MaxDP=7.69D-02 DE=-3.56D-02 OVMax= 3.90D-02

 Cycle   9  Pass 1  IDiag  1:
 RMSU=  1.52D-04    CP:  1.13D+00  4.12D-01  5.04D-01  1.98D-01  2.91D-01
                    CP:  7.13D-01  8.74D-01  7.24D-01
 E= -1837.23568114758     Delta-E=       -0.007142474027 Rises=F Damp=F
 DIIS: error= 7.91D-04 at cycle   9 NSaved=   9.
 NSaved= 9 IEnMin= 9 EnMin= -1837.23568114758     IErMin= 9 ErrMin= 7.91D-04
 ErrMax= 7.91D-04  0.00D+00 EMaxC= 1.00D-01 BMatC= 1.19D-03 BMatP= 9.07D-03
 IDIUse=3 WtCom= 9.92D-01 WtEn= 7.91D-03
 Coeff-Com: -0.381D-01 0.576D-01-0.186D-01-0.574D-03 0.706D-02 0.491D-02
 Coeff-Com:  0.149D+00 0.399D+00 0.440D+00
 Coeff-En:   0.000D+00 0.000D+00 0.000D+00 0.000D+00 0.000D+00 0.000D+00
 Coeff-En:   0.000D+00 0.265D-01 0.973D+00
 Coeff:     -0.378D-01 0.571D-01-0.185D-01-0.570D-03 0.700D-02 0.487D-02
 Coeff:      0.148D+00 0.396D+00 0.444D+00
 Gap=     0.068 Goal=   None    Shift=    0.000
 RMSDP=9.30D-05 MaxDP=2.49D-02 DE=-7.14D-03 OVMax= 1.08D-02

 Cycle  10  Pass 1  IDiag  1:
 RMSU=  6.27D-05    CP:  1.13D+00  4.14D-01  5.03D-01  1.97D-01  3.04D-01
                    CP:  7.11D-01  8.61D-01  8.94D-01  9.23D-01
 E= -1837.23656922475     Delta-E=       -0.000888077167 Rises=F Damp=F
 DIIS: error= 3.20D-04 at cycle  10 NSaved=  10.
 NSaved=10 IEnMin=10 EnMin= -1837.23656922475     IErMin=10 ErrMin= 3.20D-04
 ErrMax= 3.20D-04  0.00D+00 EMaxC= 1.00D-01 BMatC= 2.89D-04 BMatP= 1.19D-03
 IDIUse=3 WtCom= 9.97D-01 WtEn= 3.20D-03
 Coeff-Com: -0.151D-01 0.233D-01-0.690D-02-0.628D-03 0.975D-03 0.694D-03
 Coeff-Com:  0.225D-01 0.892D-01 0.315D+00 0.571D+00
 Coeff-En:   0.000D+00 0.000D+00 0.000D+00 0.000D+00 0.000D+00 0.000D+00
 Coeff-En:   0.000D+00 0.000D+00 0.190D+00 0.810D+00
 Coeff:     -0.150D-01 0.232D-01-0.688D-02-0.626D-03 0.971D-03 0.692D-03
 Coeff:      0.224D-01 0.889D-01 0.315D+00 0.571D+00
 Gap=     0.069 Goal=   None    Shift=    0.000
 RMSDP=5.69D-05 MaxDP=1.57D-02 DE=-8.88D-04 OVMax= 4.80D-03

 Cycle  11  Pass 1  IDiag  1:
 RMSU=  1.99D-05    CP:  1.13D+00  4.18D-01  4.99D-01  2.01D-01  3.02D-01
                    CP:  7.27D-01  8.77D-01  8.57D-01  1.05D+00  8.08D-01
 E= -1837.23674580827     Delta-E=       -0.000176583524 Rises=F Damp=F
 DIIS: error= 2.82D-04 at cycle  11 NSaved=  11.
 NSaved=11 IEnMin=11 EnMin= -1837.23674580827     IErMin=11 ErrMin= 2.82D-04
 ErrMax= 2.82D-04  0.00D+00 EMaxC= 1.00D-01 BMatC= 8.80D-05 BMatP= 2.89D-04
 IDIUse=3 WtCom= 9.97D-01 WtEn= 2.82D-03
 Coeff-Com: -0.399D-02 0.558D-02-0.583D-03-0.536D-04-0.170D-03 0.312D-02
 Coeff-Com: -0.181D-01-0.309D-01 0.144D+00 0.440D+00 0.461D+00
 Coeff-En:   0.000D+00 0.000D+00 0.000D+00 0.000D+00 0.000D+00 0.000D+00
 Coeff-En:   0.000D+00 0.000D+00 0.000D+00 0.242D+00 0.758D+00
 Coeff:     -0.398D-02 0.556D-02-0.581D-03-0.535D-04-0.170D-03 0.311D-02
 Coeff:     -0.180D-01-0.308D-01 0.144D+00 0.439D+00 0.462D+00
 Gap=     0.068 Goal=   None    Shift=    0.000
 RMSDP=2.18D-05 MaxDP=3.20D-03 DE=-1.77D-04 OVMax= 2.94D-03

 Cycle  12  Pass 1  IDiag  1:
 RMSU=  9.71D-06    CP:  1.13D+00  4.20D-01  5.00D-01  2.02D-01  3.03D-01
                    CP:  7.30D-01  8.69D-01  8.66D-01  1.05D+00  8.80D-01
                    CP:  6.71D-01
 E= -1837.23683778953     Delta-E=       -0.000091981254 Rises=F Damp=F
 DIIS: error= 9.68D-05 at cycle  12 NSaved=  12.
 NSaved=12 IEnMin=12 EnMin= -1837.23683778953     IErMin=12 ErrMin= 9.68D-05
 ErrMax= 9.68D-05  0.00D+00 EMaxC= 1.00D-01 BMatC= 6.63D-06 BMatP= 8.80D-05
 IDIUse=1 WtCom= 1.00D+00 WtEn= 0.00D+00
 Coeff-Com: -0.163D-02 0.194D-02-0.244D-03-0.596D-04-0.197D-03 0.192D-02
 Coeff-Com: -0.134D-01-0.291D-01 0.713D-01 0.241D+00 0.306D+00 0.423D+00
 Coeff:     -0.163D-02 0.194D-02-0.244D-03-0.596D-04-0.197D-03 0.192D-02
 Coeff:     -0.134D-01-0.291D-01 0.713D-01 0.241D+00 0.306D+00 0.423D+00
 Gap=     0.069 Goal=   None    Shift=    0.000
 RMSDP=1.62D-05 MaxDP=3.66D-03 DE=-9.20D-05 OVMax= 1.53D-03

 Cycle  13  Pass 1  IDiag  1:
 RMSU=  5.60D-06    CP:  1.13D+00  4.20D-01  4.98D-01  2.03D-01  3.04D-01
                    CP:  7.33D-01  8.79D-01  8.71D-01  1.09D+00  9.22D-01
                    CP:  8.91D-01  4.97D-01
 E= -1837.23684376118     Delta-E=       -0.000005971656 Rises=F Damp=F
 DIIS: error= 1.90D-05 at cycle  13 NSaved=  13.
 NSaved=13 IEnMin=13 EnMin= -1837.23684376118     IErMin=13 ErrMin= 1.90D-05
 ErrMax= 1.90D-05  0.00D+00 EMaxC= 1.00D-01 BMatC= 1.31D-06 BMatP= 6.63D-06
 IDIUse=1 WtCom= 1.00D+00 WtEn= 0.00D+00
 Coeff-Com: -0.677D-03 0.728D-03-0.185D-04-0.126D-04 0.398D-04 0.862D-03
 Coeff-Com: -0.693D-02-0.169D-01 0.284D-01 0.101D+00 0.147D+00 0.300D+00
 Coeff-Com:  0.447D+00
 Coeff:     -0.677D-03 0.728D-03-0.185D-04-0.126D-04 0.398D-04 0.862D-03
 Coeff:     -0.693D-02-0.169D-01 0.284D-01 0.101D+00 0.147D+00 0.300D+00
 Coeff:      0.447D+00
 Gap=     0.068 Goal=   None    Shift=    0.000
 RMSDP=6.64D-06 MaxDP=1.22D-03 DE=-5.97D-06 OVMax= 6.80D-04

 Cycle  14  Pass 1  IDiag  1:
 RMSU=  1.54D-06    CP:  1.13D+00  4.21D-01  4.99D-01  2.03D-01  3.04D-01
                    CP:  7.33D-01  8.76D-01  8.68D-01  1.09D+00  9.03D-01
                    CP:  8.07D-01  7.60D-01  5.07D-01
 E= -1837.23684465773     Delta-E=       -0.000000896544 Rises=F Damp=F
 DIIS: error= 1.55D-05 at cycle  14 NSaved=  14.
 NSaved=14 IEnMin=14 EnMin= -1837.23684465773     IErMin=14 ErrMin= 1.55D-05
 ErrMax= 1.55D-05  0.00D+00 EMaxC= 1.00D-01 BMatC= 3.09D-07 BMatP= 1.31D-06
 IDIUse=1 WtCom= 1.00D+00 WtEn= 0.00D+00
 Coeff-Com: -0.217D-03 0.304D-03 0.437D-05-0.139D-04 0.380D-04-0.191D-04
 Coeff-Com: -0.244D-02-0.685D-02 0.573D-02 0.227D-01 0.438D-01 0.130D+00
 Coeff-Com:  0.349D+00 0.458D+00
 Coeff:     -0.217D-03 0.304D-03 0.437D-05-0.139D-04 0.380D-04-0.191D-04
 Coeff:     -0.244D-02-0.685D-02 0.573D-02 0.227D-01 0.438D-01 0.130D+00
 Coeff:      0.349D+00 0.458D+00
 Gap=     0.068 Goal=   None    Shift=    0.000
 RMSDP=2.33D-06 MaxDP=3.72D-04 DE=-8.97D-07 OVMax= 2.54D-04

 Cycle  15  Pass 1  IDiag  1:
 RMSU=  4.57D-07    CP:  1.13D+00  4.21D-01  4.99D-01  2.03D-01  3.04D-01
                    CP:  7.33D-01  8.77D-01  8.69D-01  1.09D+00  9.13D-01
                    CP:  8.39D-01  6.95D-01  6.37D-01  6.54D-01
 E= -1837.23684493376     Delta-E=       -0.000000276036 Rises=F Damp=F
 DIIS: error= 3.72D-06 at cycle  15 NSaved=  15.
 NSaved=15 IEnMin=15 EnMin= -1837.23684493376     IErMin=15 ErrMin= 3.72D-06
 ErrMax= 3.72D-06  0.00D+00 EMaxC= 1.00D-01 BMatC= 1.81D-08 BMatP= 3.09D-07
 IDIUse=1 WtCom= 1.00D+00 WtEn= 0.00D+00
 Coeff-Com: -0.551D-04 0.856D-04-0.436D-05-0.126D-05 0.300D-04-0.136D-03
 Coeff-Com: -0.980D-03-0.279D-02 0.823D-03 0.477D-02 0.129D-01 0.476D-01
 Coeff-Com:  0.170D+00 0.258D+00 0.510D+00
 Coeff:     -0.551D-04 0.856D-04-0.436D-05-0.126D-05 0.300D-04-0.136D-03
 Coeff:     -0.980D-03-0.279D-02 0.823D-03 0.477D-02 0.129D-01 0.476D-01
 Coeff:      0.170D+00 0.258D+00 0.510D+00
 Gap=     0.068 Goal=   None    Shift=    0.000
 RMSDP=4.76D-07 MaxDP=6.25D-05 DE=-2.76D-07 OVMax= 4.32D-05

 Cycle  16  Pass 1  IDiag  1:
 RMSU=  1.31D-07    CP:  1.13D+00  4.21D-01  4.99D-01  2.03D-01  3.04D-01
                    CP:  7.33D-01  8.77D-01  8.69D-01  1.09D+00  9.13D-01
                    CP:  8.40D-01  7.01D-01  6.35D-01  6.85D-01  8.65D-01
 E= -1837.23684494970     Delta-E=       -0.000000015933 Rises=F Damp=F
 DIIS: error= 1.42D-06 at cycle  16 NSaved=  16.
 NSaved=16 IEnMin=16 EnMin= -1837.23684494970     IErMin=16 ErrMin= 1.42D-06
 ErrMax= 1.42D-06  0.00D+00 EMaxC= 1.00D-01 BMatC= 3.46D-09 BMatP= 1.81D-08
 IDIUse=1 WtCom= 1.00D+00 WtEn= 0.00D+00
 Coeff-Com: -0.193D-05 0.380D-06-0.945D-05 0.188D-05 0.194D-04-0.954D-04
 Coeff-Com: -0.341D-03-0.938D-03-0.334D-03-0.138D-05 0.221D-02 0.115D-01
 Coeff-Com:  0.645D-01 0.102D+00 0.350D+00 0.472D+00
 Coeff:     -0.193D-05 0.380D-06-0.945D-05 0.188D-05 0.194D-04-0.954D-04
 Coeff:     -0.341D-03-0.938D-03-0.334D-03-0.138D-05 0.221D-02 0.115D-01
 Coeff:      0.645D-01 0.102D+00 0.350D+00 0.472D+00
 Gap=     0.068 Goal=   None    Shift=    0.000
 RMSDP=2.51D-07 MaxDP=5.21D-05 DE=-1.59D-08 OVMax= 1.30D-05

 Cycle  17  Pass 1  IDiag  1:
 RMSU=  5.49D-08    CP:  1.13D+00  4.21D-01  4.99D-01  2.03D-01  3.04D-01
                    CP:  7.33D-01  8.78D-01  8.69D-01  1.09D+00  9.13D-01
                    CP:  8.42D-01  6.99D-01  6.45D-01  6.79D-01  8.72D-01
                    CP:  8.55D-01
 E= -1837.23684495271     Delta-E=       -0.000000003011 Rises=F Damp=F
 DIIS: error= 3.60D-07 at cycle  17 NSaved=  17.
 NSaved=17 IEnMin=17 EnMin= -1837.23684495271     IErMin=17 ErrMin= 3.60D-07
 ErrMax= 3.60D-07  0.00D+00 EMaxC= 1.00D-01 BMatC= 3.10D-10 BMatP= 3.46D-09
 IDIUse=1 WtCom= 1.00D+00 WtEn= 0.00D+00
 Coeff-Com:  0.239D-05-0.553D-05-0.485D-05 0.587D-06 0.798D-05-0.355D-04
 Coeff-Com: -0.751D-04-0.203D-03-0.283D-03-0.444D-03-0.331D-03-0.218D-04
 Coeff-Com:  0.146D-01 0.211D-01 0.132D+00 0.277D+00 0.556D+00
 Coeff:      0.239D-05-0.553D-05-0.485D-05 0.587D-06 0.798D-05-0.355D-04
 Coeff:     -0.751D-04-0.203D-03-0.283D-03-0.444D-03-0.331D-03-0.218D-04
 Coeff:      0.146D-01 0.211D-01 0.132D+00 0.277D+00 0.556D+00
 Gap=     0.068 Goal=   None    Shift=    0.000
 RMSDP=7.03D-08 MaxDP=1.56D-05 DE=-3.01D-09 OVMax= 4.86D-06

 Cycle  18  Pass 1  IDiag  1:
 RMSU=  1.93D-08    CP:  1.13D+00  4.21D-01  4.99D-01  2.03D-01  3.04D-01
                    CP:  7.33D-01  8.78D-01  8.69D-01  1.09D+00  9.13D-01
                    CP:  8.42D-01  6.98D-01  6.46D-01  6.83D-01  8.70D-01
                    CP:  9.11D-01  8.44D-01
 E= -1837.23684495285     Delta-E=       -0.000000000144 Rises=F Damp=F
 DIIS: error= 1.83D-07 at cycle  18 NSaved=  18.
 NSaved=18 IEnMin=18 EnMin= -1837.23684495285     IErMin=18 ErrMin= 1.83D-07
 ErrMax= 1.83D-07  0.00D+00 EMaxC= 1.00D-01 BMatC= 7.09D-11 BMatP= 3.10D-10
 IDIUse=1 WtCom= 1.00D+00 WtEn= 0.00D+00
 Coeff-Com:  0.511D-06-0.105D-05-0.136D-05 0.143D-06 0.176D-05-0.781D-05
 Coeff-Com:  0.118D-05-0.326D-05-0.105D-03-0.177D-03-0.422D-03-0.165D-02
 Coeff-Com: -0.763D-03-0.280D-02 0.269D-01 0.999D-01 0.380D+00 0.499D+00
 Coeff:      0.511D-06-0.105D-05-0.136D-05 0.143D-06 0.176D-05-0.781D-05
 Coeff:      0.118D-05-0.326D-05-0.105D-03-0.177D-03-0.422D-03-0.165D-02
 Coeff:     -0.763D-03-0.280D-02 0.269D-01 0.999D-01 0.380D+00 0.499D+00
 Gap=     0.068 Goal=   None    Shift=    0.000
 RMSDP=1.76D-08 MaxDP=2.66D-06 DE=-1.44D-10 OVMax= 2.39D-06

 Cycle  19  Pass 1  IDiag  1:
 RMSU=  7.25D-09    CP:  1.13D+00  4.21D-01  4.99D-01  2.03D-01  3.04D-01
                    CP:  7.33D-01  8.78D-01  8.69D-01  1.09D+00  9.13D-01
                    CP:  8.42D-01  6.98D-01  6.46D-01  6.82D-01  8.77D-01
                    CP:  9.09D-01  8.82D-01  6.65D-01
 E= -1837.23684495295     Delta-E=       -0.000000000102 Rises=F Damp=F
 DIIS: error= 5.78D-08 at cycle  19 NSaved=  19.
 NSaved=19 IEnMin=19 EnMin= -1837.23684495295     IErMin=19 ErrMin= 5.78D-08
 ErrMax= 5.78D-08  0.00D+00 EMaxC= 1.00D-01 BMatC= 5.52D-12 BMatP= 7.09D-11
 IDIUse=1 WtCom= 1.00D+00 WtEn= 0.00D+00
 Coeff-Com: -0.423D-06 0.882D-06-0.483D-06-0.501D-07 0.374D-06-0.252D-05
 Coeff-Com:  0.426D-05 0.250D-05-0.388D-04-0.567D-04-0.189D-03-0.931D-03
 Coeff-Com: -0.123D-02-0.288D-02 0.779D-02 0.437D-01 0.195D+00 0.306D+00
 Coeff-Com:  0.453D+00
 Coeff:     -0.423D-06 0.882D-06-0.483D-06-0.501D-07 0.374D-06-0.252D-05
 Coeff:      0.426D-05 0.250D-05-0.388D-04-0.567D-04-0.189D-03-0.931D-03
 Coeff:     -0.123D-02-0.288D-02 0.779D-02 0.437D-01 0.195D+00 0.306D+00
 Coeff:      0.453D+00
 Gap=     0.068 Goal=   None    Shift=    0.000
 RMSDP=4.57D-09 MaxDP=5.67D-07 DE=-1.02D-10 OVMax= 8.14D-07

 Error on total polarization charges =  0.07009
 SCF Done:  E(RB97D3) =  -1837.23684495     A.U. after   19 cycles
            NFock= 19  Conv=0.46D-08     -V/T= 2.0048
 KE= 1.828543923590D+03 PE=-1.385286496575D+04 EE= 5.432961079702D+03
 SMD-CDS (non-electrostatic) energy       (kcal/mol) =      -8.80
 (included in total energy above)
 Leave Link  502 at Tue Feb  1 00:03:05 2022, MaxMem=  5242880000 cpu:     22364.3
 (Enter /opt/nce/packages/global/g09/l601.exe)
 Copying SCF densities to generalized density rwf, IOpCl= 0 IROHF=0.

 **********************************************************************

            Population analysis using the SCF density.

 **********************************************************************

 Alpha  occ. eigenvalues --  -18.80110 -18.68032 -18.67783 -18.66907 -18.66393
 Alpha  occ. eigenvalues --   -9.96072  -9.96009  -9.95317  -9.94140  -9.93726
 Alpha  occ. eigenvalues --   -9.92764  -9.90753  -9.90267  -9.90138  -9.90122
 Alpha  occ. eigenvalues --   -9.89889  -9.89847  -9.89738  -9.89711  -9.89659
 Alpha  occ. eigenvalues --   -9.89561  -9.89491  -9.89425  -9.89395  -9.89388
 Alpha  occ. eigenvalues --   -9.89381  -9.89302  -9.89264  -9.89252  -9.89212
 Alpha  occ. eigenvalues --   -9.89207  -9.89202  -9.89163  -9.89158  -9.89127
 Alpha  occ. eigenvalues --   -9.89031  -9.89014  -9.89007  -9.88994  -9.88975
 Alpha  occ. eigenvalues --   -9.88678  -9.88674  -9.88014  -1.00828  -0.90933
 Alpha  occ. eigenvalues --   -0.89011  -0.88270  -0.82532  -0.78825  -0.77923
 Alpha  occ. eigenvalues --   -0.77342  -0.77133  -0.76153  -0.75903  -0.71617
 Alpha  occ. eigenvalues --   -0.70783  -0.69139  -0.67700  -0.67061  -0.66508
 Alpha  occ. eigenvalues --   -0.66446  -0.66367  -0.66156  -0.65258  -0.63284
 Alpha  occ. eigenvalues --   -0.62813  -0.57853  -0.57579  -0.55948  -0.54553
 Alpha  occ. eigenvalues --   -0.54365  -0.53402  -0.53246  -0.53045  -0.52758
 Alpha  occ. eigenvalues --   -0.52106  -0.50396  -0.49723  -0.47417  -0.46796
 Alpha  occ. eigenvalues --   -0.46717  -0.45086  -0.45027  -0.44032  -0.43348
 Alpha  occ. eigenvalues --   -0.41803  -0.41306  -0.41002  -0.40599  -0.39900
 Alpha  occ. eigenvalues --   -0.39538  -0.39023  -0.38857  -0.38532  -0.38346
 Alpha  occ. eigenvalues --   -0.37958  -0.37684  -0.37610  -0.36620  -0.36389
 Alpha  occ. eigenvalues --   -0.36059  -0.35854  -0.35663  -0.35624  -0.35522
 Alpha  occ. eigenvalues --   -0.34930  -0.34165  -0.33969  -0.33705  -0.32804
 Alpha  occ. eigenvalues --   -0.32656  -0.32508  -0.31852  -0.31642  -0.31542
 Alpha  occ. eigenvalues --   -0.31151  -0.30751  -0.30554  -0.30267  -0.30039
 Alpha  occ. eigenvalues --   -0.29379  -0.29156  -0.28650  -0.28623  -0.28585
 Alpha  occ. eigenvalues --   -0.28450  -0.28163  -0.26898  -0.26433  -0.24209
 Alpha  occ. eigenvalues --   -0.22801  -0.22261  -0.22178  -0.21951  -0.21869
 Alpha  occ. eigenvalues --   -0.21470  -0.21042  -0.20683  -0.19547  -0.18906
 Alpha  occ. eigenvalues --   -0.17676  -0.17177  -0.17031  -0.16748  -0.15822
 Alpha  occ. eigenvalues --   -0.14758
 Alpha virt. eigenvalues --   -0.07911  -0.05102  -0.04405  -0.03954  -0.03314
 Alpha virt. eigenvalues --   -0.03154  -0.02974  -0.02770  -0.01908  -0.00602
 Alpha virt. eigenvalues --    0.00520   0.01147   0.03522   0.04399   0.04911
 Alpha virt. eigenvalues --    0.05251   0.05393   0.05549   0.05766   0.06193
 Alpha virt. eigenvalues --    0.06736   0.07209   0.07682   0.08126   0.08530
 Alpha virt. eigenvalues --    0.09108   0.09214   0.09753   0.09961   0.10254
 Alpha virt. eigenvalues --    0.10436   0.10665   0.10811   0.10950   0.11309
 Alpha virt. eigenvalues --    0.11515   0.11718   0.11798   0.12343   0.12477
 Alpha virt. eigenvalues --    0.12920   0.13085   0.13218   0.13774   0.14205
 Alpha virt. eigenvalues --    0.14508   0.14648   0.15234   0.16309   0.16595
 Alpha virt. eigenvalues --    0.17371   0.17570   0.17652   0.17954   0.18175
 Alpha virt. eigenvalues --    0.18459   0.18656   0.18991   0.19108   0.19539
 Alpha virt. eigenvalues --    0.19853   0.20009   0.20120   0.20449   0.20644
 Alpha virt. eigenvalues --    0.20802   0.20912   0.21087   0.21413   0.21543
 Alpha virt. eigenvalues --    0.21840   0.22088   0.22204   0.22354   0.22583
 Alpha virt. eigenvalues --    0.22800   0.23048   0.23351   0.23650   0.23728
 Alpha virt. eigenvalues --    0.24053   0.24230   0.24495   0.24541   0.25018
 Alpha virt. eigenvalues --    0.25084   0.25539   0.25658   0.25957   0.26076
 Alpha virt. eigenvalues --    0.26119   0.26326   0.26593   0.26718   0.27063
[...]
 Alpha virt. eigenvalues --    1.86709   1.87423   1.88106   1.88771   1.88861
 Alpha virt. eigenvalues --    1.89436   1.90569   1.90977   1.91234   1.92197
 Alpha virt. eigenvalues --    1.92432   1.93096   1.93552   1.93849   1.94928
 Alpha virt. eigenvalues --    1.95375   1.96291   1.96993   1.97342   1.97649
 Alpha virt. eigenvalues --    1.98555   1.98682   1.99077   2.00042   2.00377
 Alpha virt. eigenvalues --    2.00936   2.01354   2.01679   2.02242   2.02643
 Alpha virt. eigenvalues --    2.02808   2.03215   2.03482   2.03671   2.04125
 Alpha virt. eigenvalues --    2.04440   2.04605   2.05540   2.05686   2.05987
 Alpha virt. eigenvalues --    2.06443   2.06893   2.07340   2.07814   2.08452
 Alpha virt. eigenvalues --    2.08884   2.09072   2.09805   2.10197   2.10783
 Alpha virt. eigenvalues --    2.11075   2.11800   2.12214   2.12479   2.13092
 Alpha virt. eigenvalues --    2.13296   2.13666   2.14879   2.15338   2.15627
 Alpha virt. eigenvalues --    2.15791   2.16649   2.16860   2.17410   2.17643
 Alpha virt. eigenvalues --    2.17859   2.18113   2.18603   2.19434   2.19637
 Alpha virt. eigenvalues --    2.19824   2.20591   2.21026   2.21957   2.22359
 Alpha virt. eigenvalues --    2.22855   2.23750   2.23930   2.24219   2.24785
 Alpha virt. eigenvalues --    2.25014   2.26181   2.26392   2.27726   2.27942
 Alpha virt. eigenvalues --    2.28442   2.29052   2.29664   2.30229   2.31023
 Alpha virt. eigenvalues --    2.31258   2.31770   2.32866   2.33797   2.34007
 Alpha virt. eigenvalues --    2.35259   2.35861   2.36602   2.37969   2.38937
 Alpha virt. eigenvalues --    2.39252   2.40347   2.41150   2.41528   2.42104
 Alpha virt. eigenvalues --    2.42185   2.43314   2.43709   2.43908   2.44629
 Alpha virt. eigenvalues --    2.44797   2.45185   2.45395   2.45851   2.46240
 Alpha virt. eigenvalues --    2.47344   2.47974   2.48561   2.48850   2.49266
 Alpha virt. eigenvalues --    2.49403   2.50121   2.50556   2.51324   2.51730
 Alpha virt. eigenvalues --    2.52074   2.52445   2.52778   2.53651   2.54050
 Alpha virt. eigenvalues --    2.54295   2.54617   2.55180   2.55559   2.55649
 Alpha virt. eigenvalues --    2.56227   2.56721   2.56750   2.57148   2.57411
 Alpha virt. eigenvalues --    2.57614   2.57693   2.58030   2.58485   2.58681
 Alpha virt. eigenvalues --    2.59032   2.59429   2.59648   2.60034   2.60221
 Alpha virt. eigenvalues --    2.60230   2.60979   2.61259   2.61423   2.61494
 Alpha virt. eigenvalues --    2.61646   2.61985   2.63090   2.63106   2.63341
 Alpha virt. eigenvalues --    2.63743   2.64271   2.64578   2.64825   2.64932
 Alpha virt. eigenvalues --    2.65466   2.65980   2.66345   2.66787   2.67128
 Alpha virt. eigenvalues --    2.67420   2.68368   2.68485   2.68684   2.69082
 Alpha virt. eigenvalues --    2.69586   2.69832   2.70206   2.70277   2.70681
 Alpha virt. eigenvalues --    2.71303   2.71405   2.71908   2.72145   2.72216
 Alpha virt. eigenvalues --    2.72606   2.72961   2.73221   2.73318   2.74349
 Alpha virt. eigenvalues --    2.74490   2.74598   2.75048   2.75397   2.75515
 Alpha virt. eigenvalues --    2.75812   2.76004   2.76573   2.76948   2.77071
 Alpha virt. eigenvalues --    2.77390   2.77674   2.77971   2.78156   2.78694
 Alpha virt. eigenvalues --    2.78907   2.79505   2.79870   2.80058   2.80358
 Alpha virt. eigenvalues --    2.80745   2.81003   2.81187   2.81355   2.81864
 Alpha virt. eigenvalues --    2.82074   2.82555   2.82891   2.84002   2.84187
 Alpha virt. eigenvalues --    2.84719   2.84923   2.85278   2.85937   2.86357
 Alpha virt. eigenvalues --    2.86700   2.87454   2.87524   2.87784   2.88570
 Alpha virt. eigenvalues --    2.88981   2.89506   2.89965   2.90278   2.90524
 Alpha virt. eigenvalues --    2.91073   2.91632   2.91790   2.92823   2.93271
 Alpha virt. eigenvalues --    2.93542   2.94213   2.94536   2.94854   2.95155
 Alpha virt. eigenvalues --    2.95466   2.95750   2.96489   2.96987   2.97122
 Alpha virt. eigenvalues --    2.97629   2.97833   2.98640   2.98881   2.99087
 Alpha virt. eigenvalues --    2.99504   2.99841   3.00469   3.00657   3.00881
 Alpha virt. eigenvalues --    3.01639   3.02018   3.02577   3.02702   3.03016
 Alpha virt. eigenvalues --    3.03207   3.03858   3.04078   3.04542   3.04931
 Alpha virt. eigenvalues --    3.05348   3.05896   3.06067   3.06394   3.06550
 Alpha virt. eigenvalues --    3.06647   3.06970   3.07055   3.07446   3.07873
 Alpha virt. eigenvalues --    3.08005   3.08186   3.08589   3.09024   3.09301
 Alpha virt. eigenvalues --    3.09518   3.10013   3.10136   3.10539   3.10762
 Alpha virt. eigenvalues --    3.10926   3.11161   3.11492   3.11593   3.12251
 Alpha virt. eigenvalues --    3.12382   3.13023   3.13490   3.13862   3.14270
 Alpha virt. eigenvalues --    3.14851   3.14969   3.15136   3.15666   3.15922
 Alpha virt. eigenvalues --    3.16102   3.16401   3.16854   3.17407   3.17532
 Alpha virt. eigenvalues --    3.17935   3.18376   3.19044   3.19163   3.19743
 Alpha virt. eigenvalues --    3.20069   3.20447   3.20531   3.20633   3.21067
 Alpha virt. eigenvalues --    3.21196   3.21908   3.22170   3.22748   3.22912
 Alpha virt. eigenvalues --    3.23109   3.23637   3.24142   3.24678   3.25000
 Alpha virt. eigenvalues --    3.25690   3.25801   3.26042   3.26319   3.26421
 Alpha virt. eigenvalues --    3.26889   3.27125   3.27493   3.27745   3.28007
 Alpha virt. eigenvalues --    3.28436   3.28531   3.28747   3.28933   3.29477
 Alpha virt. eigenvalues --    3.29750   3.30022   3.30417   3.30670   3.31025
 Alpha virt. eigenvalues --    3.31447   3.31754   3.31962   3.32206   3.32647
 Alpha virt. eigenvalues --    3.32965   3.33205   3.33490   3.33795   3.34476
 Alpha virt. eigenvalues --    3.34657   3.35200   3.35589   3.35836   3.36219
 Alpha virt. eigenvalues --    3.36746   3.36955   3.37175   3.37316   3.37487
 Alpha virt. eigenvalues --    3.37852   3.38524   3.38659   3.38935   3.39150
 Alpha virt. eigenvalues --    3.39356   3.39568   3.40066   3.40210   3.40363
 Alpha virt. eigenvalues --    3.40909   3.41249   3.41454   3.42140   3.42398
 Alpha virt. eigenvalues --    3.42576   3.43086   3.43140   3.43402   3.44095
 Alpha virt. eigenvalues --    3.44275   3.44650   3.44999   3.45042   3.45448
 Alpha virt. eigenvalues --    3.45471   3.45891   3.46126   3.46489   3.46784
 Alpha virt. eigenvalues --    3.46939   3.47096   3.47809   3.47998   3.48170
 Alpha virt. eigenvalues --    3.48447   3.48771   3.49166   3.49318   3.50028
 Alpha virt. eigenvalues --    3.50815   3.51415   3.51707   3.52087   3.52280
 Alpha virt. eigenvalues --    3.53599   3.53792   3.54620   3.54762   3.55191
 Alpha virt. eigenvalues --    3.56108   3.56270   3.56400   3.56800   3.57302
 Alpha virt. eigenvalues --    3.58276   3.58800   3.58871   3.59485   3.60057
 Alpha virt. eigenvalues --    3.60839   3.61208   3.61401   3.62341   3.62893
 Alpha virt. eigenvalues --    3.63507   3.63951   3.64157   3.64870   3.65311
 Alpha virt. eigenvalues --    3.65983   3.66661   3.67281   3.67510   3.68833
 Alpha virt. eigenvalues --    3.69102   3.70006   3.70809   3.71452   3.72403
 Alpha virt. eigenvalues --    3.73202   3.73634   3.73968   3.74616   3.75411
 Alpha virt. eigenvalues --    3.76013   3.76372   3.77566   3.78532   3.79068
 Alpha virt. eigenvalues --    3.79451   3.80435   3.80701   3.81460   3.83030
 Alpha virt. eigenvalues --    3.83311   3.84413   3.85345   3.86218   3.86539
 Alpha virt. eigenvalues --    3.86543   3.86993   3.87505   3.88341   3.88414
 Alpha virt. eigenvalues --    3.88910   3.89826   3.90586   3.90777   3.91159
 Alpha virt. eigenvalues --    3.91835   3.92028   3.93091   3.93706   3.95049
 Alpha virt. eigenvalues --    3.95321   3.95828   3.96405   3.96829   3.97742
 Alpha virt. eigenvalues --    3.98322   3.98619   3.99115   3.99865   4.00438
 Alpha virt. eigenvalues --    4.00990   4.01515   4.01703   4.03143   4.03787
 Alpha virt. eigenvalues --    4.04133   4.04779   4.05308   4.06051   4.06068
 Alpha virt. eigenvalues --    4.06433   4.06801   4.07415   4.07862   4.08012
 Alpha virt. eigenvalues --    4.08336   4.09633   4.10262   4.10855   4.11896
 Alpha virt. eigenvalues --    4.12185   4.12573   4.12919   4.13646   4.13844
 Alpha virt. eigenvalues --    4.14343   4.14391   4.14592   4.15004   4.15157
 Alpha virt. eigenvalues --    4.16069   4.16171   4.16891   4.17193   4.17502
 Alpha virt. eigenvalues --    4.17960   4.18187   4.18340   4.18939   4.19007
 Alpha virt. eigenvalues --    4.19483   4.20327   4.20547   4.20989   4.21263
 Alpha virt. eigenvalues --    4.21713   4.21998   4.22515   4.22893   4.24413
 Alpha virt. eigenvalues --    4.24952   4.25189   4.26056   4.26358   4.26765
 Alpha virt. eigenvalues --    4.27339   4.28261   4.28888   4.31085   4.31527
 Alpha virt. eigenvalues --    4.32149   4.32821   4.33906   4.35143   4.35957
 Alpha virt. eigenvalues --    4.36744   4.37720   4.38488   4.39664   4.40618
 Alpha virt. eigenvalues --    4.40990   4.42327   4.42649   4.43352   4.44720
 Alpha virt. eigenvalues --    4.45482   4.46450   4.47577   4.47727   4.49929
 Alpha virt. eigenvalues --    4.52553   4.53199   4.54260   4.55571   4.56152
 Alpha virt. eigenvalues --    4.56612   4.57001   4.58186   4.58439   4.59675
 Alpha virt. eigenvalues --    4.60068   4.61070   4.61831   4.62242   4.62808
 Alpha virt. eigenvalues --    4.63555   4.64485   4.65181   4.65747   4.66555
 Alpha virt. eigenvalues --    4.67303   4.68968   4.69812   4.69865   4.70395
 Alpha virt. eigenvalues --    4.70741   4.72886   4.74119   4.75597   4.77723
 Alpha virt. eigenvalues --    4.78112   4.78958   4.79587   4.79794   4.81468
 Alpha virt. eigenvalues --    4.82773   4.83652   4.85100   4.85858   4.87032
 Alpha virt. eigenvalues --    4.87809   4.88600   4.91224   4.92549   4.93228
 Alpha virt. eigenvalues --    4.96251   4.97155   4.99332   5.00593   5.03409
 Alpha virt. eigenvalues --    5.05451   5.05778   5.06731   5.08123   5.08682
 Alpha virt. eigenvalues --    5.09781   5.10934   5.11832   5.12280   5.12354
 Alpha virt. eigenvalues --    5.12781   5.13132   5.13404   5.13698   5.13882
 Alpha virt. eigenvalues --    5.14362   5.14762   5.15196   5.15727   5.16841
 Alpha virt. eigenvalues --    5.17175   5.18354   5.19232   5.21361   5.23354
 Alpha virt. eigenvalues --    5.26504   5.26667   5.30267   5.31100   5.32311
 Alpha virt. eigenvalues --    5.33915   5.35403   5.36868   5.37693   5.38208
 Alpha virt. eigenvalues --    5.39064   5.41495   5.44157   5.45484   5.46263
 Alpha virt. eigenvalues --    5.48109   5.48271   5.49078   5.49739   5.51660
 Alpha virt. eigenvalues --    5.52686   5.55059   5.56917   5.58259   5.59195
 Alpha virt. eigenvalues --    5.60362   5.62482   5.63491   5.67561   5.68351
 Alpha virt. eigenvalues --    5.71132   5.72398   5.75804   5.78032   5.78771
 Alpha virt. eigenvalues --    5.82734   5.86175   5.97560   5.99321   5.99492
 Alpha virt. eigenvalues --    6.06542   6.08568   6.16285   6.28822   6.31222
 Alpha virt. eigenvalues --    6.31440   6.32344   6.32738   6.33688   6.34172
 Alpha virt. eigenvalues --    6.39706   6.42593   6.45646   6.50510   6.52172
 Alpha virt. eigenvalues --    6.55573   6.58876   6.61916   6.66607   6.73258
 Alpha virt. eigenvalues --    6.73609   6.76003   6.79087   6.82523   6.83592
 Alpha virt. eigenvalues --    6.85459   6.87827   6.98660   7.01188   7.03335
 Alpha virt. eigenvalues --    7.03935   7.08046   7.08747   7.19043   7.38174
 Alpha virt. eigenvalues --    7.42247  21.93505  22.02971  22.08418  22.15404
 Alpha virt. eigenvalues --   22.32198  22.40276  22.40967  22.42582  22.43967
 Alpha virt. eigenvalues --   22.44287  22.45754  22.48255  22.51426  22.53803
 Alpha virt. eigenvalues --   22.57677  22.61541  22.62726  22.64574  22.64979
 Alpha virt. eigenvalues --   22.65069  22.66370  22.68396  22.72998  22.79863
 Alpha virt. eigenvalues --   22.87758  22.89043  22.93728  22.96983  22.99848
 Alpha virt. eigenvalues --   23.04896  23.06155  23.07178  23.15255  23.18173
 Alpha virt. eigenvalues --   23.32914  23.44436  23.58729  23.67933  43.77343
 Alpha virt. eigenvalues --   43.77591  43.80264  43.87883  44.43809
          Condensed to atoms (all electrons):
 Mulliken charges:
               1
     1  C    0.204861
     2  C   -0.053960
     3  C    0.186144
     4  C    0.076651
     5  C   -0.233150
     6  C   -0.300938
     7  C    0.398227
     8  C    0.106792
     9  C    0.163803
    10  C    0.028630
    11  C    0.088625
    12  C    0.093961
    13  C   -0.311733
    14  H    0.131535
    15  H    0.086329
    16  H    0.137367
    17  O   -0.173873
    18  O   -0.446026
    19  O   -0.463667
    20  C    0.009808
    21  C   -0.305681
    22  C   -0.084722
    23  C   -0.124163
    24  H    0.113464
    25  C   -0.200222
    26  C   -0.151350
    27  H    0.127051
    28  H    0.112852
    29  H    0.125837
    30  C    0.189411
    31  O   -0.491867
    32  O   -0.493190
    33  C    0.142129
    34  C   -0.248102
    35  C   -0.221342
    36  C   -0.136869
    37  H    0.106723
    38  C   -0.110363
    39  H    0.108582
    40  C   -0.148580
    41  H    0.124005
    42  H    0.117749
    43  H    0.124936
    44  C    0.079423
    45  C   -0.228113
    46  C   -0.251701
    47  C   -0.113141
    48  H    0.110163
    49  C   -0.140557
    50  H    0.107562
    51  C   -0.144376
    52  H    0.117772
    53  H    0.123535
    54  H    0.124886
    55  C    0.076421
    56  C   -0.249872
    57  C   -0.223731
    58  C   -0.150868
    59  H    0.154607
    60  C   -0.132766
    61  H    0.102601
    62  C   -0.143124
    63  H    0.123668
    64  H    0.124370
    65  H    0.127571
 Sum of Mulliken charges =  -2.00000
 Mulliken charges with hydrogens summed into heavy atoms:
               1
     1  C    0.204861
     2  C   -0.053960
     3  C    0.186144
     4  C    0.076651
     5  C   -0.101615
     6  C   -0.214609
     7  C    0.398227
     8  C    0.106792
     9  C    0.163803
    10  C    0.028630
    11  C    0.088625
    12  C    0.093961
    13  C   -0.174366
    17  O   -0.173873
    18  O   -0.446026
    19  O   -0.463667
    20  C    0.009808
    21  C   -0.192217
    22  C   -0.084722
    23  C    0.002887
    25  C   -0.087369
    26  C   -0.025513
    30  C    0.189411
    31  O   -0.491867
    32  O   -0.493190
    33  C    0.142129
    34  C   -0.141379
    35  C   -0.112760
    36  C   -0.012864
    38  C    0.007386
    40  C   -0.023645
    44  C    0.079423
    45  C   -0.117950
    46  C   -0.144138
    47  C    0.004631
    49  C   -0.017023
    51  C   -0.019491
    55  C    0.076421
    56  C   -0.095265
    57  C   -0.121130
    58  C   -0.027200
    60  C   -0.008396
    62  C   -0.015553
 Electronic spatial extent (au):  <R**2>=          22421.2289
 Charge=             -2.0000 electrons
 Dipole moment (field-independent basis, Debye):
    X=              2.3934    Y=              5.5142    Z=            -10.7435  Tot=             12.3109
 Quadrupole moment (field-independent basis, Debye-Ang):
   XX=           -339.5758   YY=           -323.9336   ZZ=           -274.4904
   XY=             43.9188   XZ=             34.0702   YZ=              8.5977
 Traceless Quadrupole moment (field-independent basis, Debye-Ang):
   XX=            -26.9092   YY=            -11.2670   ZZ=             38.1762
   XY=             43.9188   XZ=             34.0702   YZ=              8.5977
 Octapole moment (field-independent basis, Debye-Ang**2):
  XXX=           -119.1400  YYY=              2.2958  ZZZ=            -74.1495  XYY=            -88.9081
  XXY=            227.9398  XXZ=            -15.2766  XZZ=             92.6803  YZZ=             45.9603
  YYZ=            -85.2533  XYZ=            -55.3183
 Hexadecapole moment (field-independent basis, Debye-Ang**3):
 XXXX=         -19687.6466 YYYY=         -12254.9186 ZZZZ=          -1832.8128 XXXY=           1094.0291
 XXXZ=            510.2319 YYYX=            789.2330 YYYZ=           -155.3784 ZZZX=            201.9523
 ZZZY=            130.0638 XXYY=          -5460.7732 XXZZ=          -3592.9651 YYZZ=          -2196.4367
 XXYZ=            -38.0666 YYXZ=            188.5146 ZZXY=            -34.6779
 N-N= 4.770676573750D+03 E-N=-1.388717813249D+04  KE= 1.828824945211D+03
 Leave Link  601 at Wed Feb  2 13:29:13 2022, MaxMem=  5242880000 cpu:         9.1
 (Enter /opt/nce/packages/global/g09/l9999.exe)
 1\1\GINC-CN013\SP\RB97D3 TD-FC\Gen\C38H22O5(2-)\PNG4RJV\02-Feb-2022\0\
 \#p B97D3 chkbasis geom=allcheck Guess=Read int=ultrafine scrf=(SMD,so
 lvent=Acetonitrile) td=(NStates=30)\\Title\\-2,1\C,0,-5.049314515,-2.5
 206617999,1.3574596281\C,0,-3.663164907,-2.1564367572,1.0747311922\C,0
 ,-3.4043018699,-1.1185648557,0.1928897372\C,0,-4.4159045746,-0.3787563
 594,-0.4944785423\C,0,-5.7669664847,-0.7311342492,-0.2013670594\C,0,-6
 .0682127709,-1.7386650426,0.6707884659\C,0,-4.0401078405,0.6585676161,
 -1.3712308625\C,0,-2.6735364189,0.9600604877,-1.5481208274\C,0,-1.6940
 087527,0.239343764,-0.8042199532\C,0,-0.3368583196,0.494511418,-0.8837
 745364\C,0,0.1566457739,1.5432633659,-1.7723339194\C,0,-0.8558107257,2
 .2638450363,-2.5692651359\C,0,-2.1900314424,1.9555035289,-2.4357360466
 \H,0,-6.5619311596,-0.1702190144,-0.6842961789\H,0,-7.1044941656,-1.99
 2556291,0.88608539\H,0,-2.9178303933,2.4892492207,-3.0366163884\O,0,-2
 .0870219158,-0.7832077384,0.0167757104\O,0,1.3790531996,1.831554783,-1
 .8291228502\O,0,-5.3619006999,-3.4556838845,2.1421341975\C,0,-5.067870
 0055,1.4048801379,-2.1436163271\C,0,-5.7838732306,0.7220632744,-3.1391
 732787\C,0,-5.3025850658,2.7802654684,-1.9343980637\C,0,-6.7445376398,
 1.3750923287,-3.9104810649\H,0,-5.5759269702,-0.331773448,-3.308744422
 5\C,0,-6.2593662053,3.4252395095,-2.7314043887\C,0,-6.9880335519,2.734
 4881411,-3.6991306242\H,0,-7.293182603,0.8273375455,-4.6729358393\H,0,
 -6.4277324473,4.4888268289,-2.5798569913\H,0,-7.7373598156,3.255119647
 2,-4.2917425642\C,0,-4.5664003568,3.5815972423,-0.8541287518\O,0,-4.04
 08582932,4.6635848302,-1.2331655379\O,0,-4.5830436504,3.0944717944,0.3
 067594532\C,0,-2.5539852148,-2.8853194668,1.7370257523\C,0,-2.47294090
 04,-2.9481266329,3.1375551544\C,0,-1.5533747067,-3.5247873174,0.986224
 8746\C,0,-1.4200616255,-3.6150583352,3.7658893349\H,0,-3.2379054684,-2
 .4594893928,3.7341419753\C,0,-0.5013929573,-4.1935910666,1.6115155354\
 H,0,-1.5988371451,-3.4900467993,-0.0990103013\C,0,-0.4283133706,-4.240
 0077402,3.0056888645\H,0,-1.3712897087,-3.6417847601,4.8524528738\H,0,
 0.2674232175,-4.6711698202,1.0085085021\H,0,0.3964794156,-4.7529381106
 ,3.4947987516\C,0,0.6244543171,-0.2774253894,-0.0574259102\C,0,0.52118
 34448,-0.2950207404,1.3430048095\C,0,1.6536475629,-1.0210760414,-0.656
 1199459\C,0,1.4094849124,-1.0384448843,2.1199771931\H,0,-0.268812365,0
 .2749372257,1.8247095479\C,0,2.5432234204,-1.7670232317,0.118807729\H,
 0,1.7482650791,-1.0189596301,-1.7385052098\C,0,2.4245381732,-1.7797657
 393,1.5109630722\H,0,1.3029624457,-1.04498529,3.2022515441\H,0,3.32815
 92853,-2.3434357839,-0.3662836366\H,0,3.1126676,-2.3666711971,2.114854
 8432\C,0,-0.4594015326,3.3547928193,-3.4864212816\C,0,-1.2517507523,4.
 5166025406,-3.5780452848\C,0,0.6805484716,3.2656068893,-4.3076363551\C
 ,0,-0.9222068998,5.5431351894,-4.4633687143\H,0,-2.126606003,4.6153816
 779,-2.9378184689\C,0,1.0065720936,4.2926530506,-5.1937088414\H,0,1.30
 52552646,2.3813526711,-4.2505759444\C,0,0.2092996764,5.437940811,-5.27
 64845584\H,0,-1.5475954754,6.432304382,-4.5114677036\H,0,1.8873665032,
 4.197150739,-5.825479615\H,0,0.4690690603,6.239742845,-5.963899206\\Ve
 rsion=ES64L-G09RevE.01\State=1-A\HF=-1837.2456894\RMSD=5.933e-09\PG=C0
 1 [X(C38H22O5)]\\@


 SI MONUMENTUM REQUIRIS, CIRCUMSPICE
     -- FROM SIR CHRISTOPHER WREN'S TOMBSTONE
 Job cpu time:       4 days  1 hours 59 minutes 27.5 seconds.
 File lengths (MBytes):  RWF=   8562 Int=      0 D2E=      0 Chk=   1912 Scr=      1
 Normal termination of Gaussian 09 at Wed Feb  2 13:29:16 2022.
