 Entering Gaussian System, Link 0=g09
 Input=/home/png4rjv/fotokatalizis/benchmark/OPCs/Eos_1_PBE-D3_def2TZVP.gjf
 Output=/home/png4rjv/fotokatalizis/benchmark/OPCs/Eos_1_PBE-D3_def2TZVP.log
 Initial command:
 /opt/nce/packages/global/g09/l1.exe "/home/png4rjv/fotokatalizis/benchmark/OPCs/Eos_1_PBE-D3_def2TZVP/Gau-23265.inp" -scrdir="/home/png4rjv/fotokatalizis/benchmark/OPCs/Eos_1_PBE-D3_def2TZVP/"
 Default is to use a total of  12 processors:
                               12 via shared-memory
                                1 via Linda
 Entering Link 1 = /opt/nce/packages/global/g09/l1.exe PID=     23266.
  
 Copyright (c) 1988,1990,1992,1993,1995,1998,2003,2009,2015,
            Gaussian, Inc.  All Rights Reserved.
  
 This is part of the Gaussian(R) 09 program.  It is based on
 the Gaussian(R) 03 system (copyright 2003, Gaussian, Inc.),
 the Gaussian(R) 98 system (copyright 1998, Gaussian, Inc.),
 the Gaussian(R) 94 system (copyright 1995, Gaussian, Inc.),
 the Gaussian 92(TM) system (copyright 1992, Gaussian, Inc.),
 the Gaussian 90(TM) system (copyright 1990, Gaussian, Inc.),
 the Gaussian 88(TM) system (copyright 1988, Gaussian, Inc.),
 the Gaussian 86(TM) system (copyright 1986, Carnegie Mellon
 University), and the Gaussian 82(TM) system (copyright 1983,
 Carnegie Mellon University). Gaussian is a federally registered
 trademark of Gaussian, Inc.
  
 This software contains proprietary and confidential information,
 including trade secrets, belonging to Gaussian, Inc.
  
 This software is provided under written license and may be
 used, copied, transmitted, or stored only in accord with that
 written license.
  
 The following legend is applicable only to US Government
 contracts under FAR:
  
                    RESTRICTED RIGHTS LEGEND
  
 Use, reproduction and disclosure by the US Government is
 subject to restrictions as set forth in subparagraphs (a)
 and (c) of the Commercial Computer Software - Restricted
 Rights clause in FAR 52.227-19.
  
 Gaussian, Inc.
 340 Quinnipiac St., Bldg. 40, Wallingford CT 06492
  
  
 ---------------------------------------------------------------
 Warning -- This program may not be used in any manner that
 competes with the business of Gaussian, Inc. or will provide
 assistance to any competitor of Gaussian, Inc.  The licensee
 of this program is prohibited from giving any competitor of
 Gaussian, Inc. access to this program.  By using this program,
 the user acknowledges that Gaussian, Inc. is engaged in the
 business of creating and licensing software in the field of
 computational chemistry and represents and warrants to the
 licensee that it is not a competitor of Gaussian, Inc. and that
 it will not use this program in any manner prohibited above.
 ---------------------------------------------------------------
  

 Cite this work as:
 Gaussian 09, Revision E.01,
 M. J. Frisch, G. W. Trucks, H. B. Schlegel, G. E. Scuseria, 
 M. A. Robb, J. R. Cheeseman, G. Scalmani, V. Barone, B. Mennucci, 
 G. A. Petersson, H. Nakatsuji, M. Caricato, X. Li, H. P. Hratchian, 
 A. F. Izmaylov, J. Bloino, G. Zheng, J. L. Sonnenberg, M. Hada, 
 M. Ehara, K. Toyota, R. Fukuda, J. Hasegawa, M. Ishida, T. Nakajima, 
 Y. Honda, O. Kitao, H. Nakai, T. Vreven, J. A. Montgomery, Jr., 
 J. E. Peralta, F. Ogliaro, M. Bearpark, J. J. Heyd, E. Brothers, 
 K. N. Kudin, V. N. Staroverov, T. Keith, R. Kobayashi, J. Normand, 
 K. Raghavachari, A. Rendell, J. C. Burant, S. S. Iyengar, J. Tomasi, 
 M. Cossi, N. Rega, J. M. Millam, M. Klene, J. E. Knox, J. B. Cross, 
 V. Bakken, C. Adamo, J. Jaramillo, R. Gomperts, R. E. Stratmann, 
 O. Yazyev, A. J. Austin, R. Cammi, C. Pomelli, J. W. Ochterski, 
 R. L. Martin, K. Morokuma, V. G. Zakrzewski, G. A. Voth, 
 P. Salvador, J. J. Dannenberg, S. Dapprich, A. D. Daniels, 
 O. Farkas, J. B. Foresman, J. V. Ortiz, J. Cioslowski, 
 and D. J. Fox, Gaussian, Inc., Wallingford CT, 2013.
 
 ******************************************
 Gaussian 09:  ES64L-G09RevE.01 30-Nov-2015
                 2-Feb-2022 
 ******************************************
 %chk=cp.chk
 Default route:  MaxDisk=500GB
 ----------------------------------------------------------------------
 #p PBEPBE/def2TZVP opt freq=noraman nosymm int=ultrafine scrf=(SMD,sol
 vent=Acetonitrile) EmpiricalDispersion=GD3BJ
 ----------------------------------------------------------------------
 1/14=-1,18=20,19=15,26=4,38=1/1,3;
 2/9=110,12=2,15=1,17=6,18=5,40=1/2;
 3/5=44,7=101,11=2,16=1,25=1,30=1,70=32201,71=1,72=2,74=1009,75=-5,124=41/1,2,3;
 4//1;
 5/5=2,38=5,53=2/2;
 6/7=2,8=2,9=2,10=2,28=1/1;
 7/30=1/1,2,3,16;
 1/14=-1,18=20,19=15,26=4/3(2);
 2/9=110,15=1/2;
 99//99;
 2/9=110,15=1/2;
 3/5=44,7=101,11=2,16=1,25=1,30=1,70=32205,71=1,72=2,74=1009,75=-5,124=41/1,2,3;
 4/5=5,16=3,69=1/1;
 5/5=2,38=5,53=2/2;
 7/30=1/1,2,3,16;
 1/14=-1,18=20,19=15,26=4/3(-5);
 2/9=110,15=1/2;
 6/7=2,8=2,9=2,10=2,19=2,28=1/1;
 99/9=1/99;
 Leave Link    1 at Wed Feb  2 10:46:07 2022, MaxMem=           0 cpu:         1.0
 (Enter /opt/nce/packages/global/g09/l101.exe)
 -----
 Title
 -----
 Symbolic Z-matrix:
 Charge = -2 Multiplicity = 1
 C                    -5.06141  -2.31805   1.46291 
 C                    -3.67091  -2.00625   1.18343 
 C                    -3.38623  -0.97861   0.28814 
 C                    -4.38644  -0.22882  -0.39188 
 C                    -5.74206  -0.55494  -0.1197 
 C                    -6.06537  -1.54464   0.76617 
 C                    -4.00358   0.80796  -1.26348 
 C                    -2.63424   1.05068  -1.48694 
 C                    -1.66597   0.29696  -0.76956 
 C                    -0.29848   0.48511  -0.92287 
 C                     0.18486   1.4914   -1.8538 
 C                    -0.81713   2.26841  -2.59393 
 C                    -2.158     2.02853  -2.39061 
 H                    -6.52891   0.02117  -0.63713 
 H                    -7.118    -1.79736   0.98195 
 H                    -2.90984   2.60065  -2.9631 
 O                    -2.067    -0.68274   0.09245 
 O                     1.42527   1.71065  -1.9965 
 O                    -5.40302  -3.24347   2.26979 
 C                    -5.02397   1.48645  -2.1032 
 C                    -5.36435   0.88564  -3.32344 
 C                    -5.64959   2.68745  -1.73084 
 C                    -6.31255   1.46738  -4.16453 
 H                    -4.87039  -0.05782  -3.61385 
 C                    -6.59977   3.261    -2.58184 
 C                    -6.93499   2.66165  -3.79297 
 H                    -6.56716   0.98064  -5.12079 
 H                    -7.06847   4.20308  -2.24922 
 H                    -7.68638   3.12496  -4.45424 
 C                    -5.30856   3.36076  -0.4184 
 O                    -5.90723   4.44329  -0.14123 
 O                    -4.44538   2.77764   0.30149 
 C                    -2.6015   -2.78042   1.84217 
 C                    -2.65819  -3.03167   3.2242 
 C                    -1.5173   -3.30154   1.1169 
 C                    -1.65628  -3.76494   3.85957 
 H                    -3.5099   -2.63752   3.80173 
 C                    -0.51934  -4.0398    1.75026 
 H                    -1.45309  -3.11438   0.03237 
 C                    -0.58224  -4.27418   3.12502 
 H                    -1.71582  -3.94289   4.94708 
 H                     0.32894  -4.42671   1.16077 
 H                     0.21008  -4.8543    3.62773 
 C                     0.6796   -0.31384  -0.15908 
 C                     0.55811  -0.49827   1.22742 
 C                     1.77089  -0.90799  -0.81581 
 C                     1.48942  -1.25778   1.93392 
 H                    -0.29317  -0.04308   1.76006 
 C                     2.69869  -1.67422  -0.11124 
 H                     1.88258  -0.75722  -1.90168 
 C                     2.56336  -1.85104   1.2685 
 H                     1.36522  -1.39964   3.02079 
 H                     3.54327  -2.13964  -0.64789 
 H                     3.29742  -2.45731   1.82587 
 C                    -0.39674   3.31842  -3.53776 
 C                    -1.15752   4.49405  -3.67416 
 C                     0.74505   3.17328  -4.34776 
 C                    -0.80436   5.48093  -4.59273 
 H                    -2.0374    4.6429   -3.02398 
 C                     1.09627   4.15937  -5.26896 
 H                     1.35597   2.26421  -4.23829 
 C                     0.32634   5.31821  -5.39683 
 H                    -1.41486   6.39618  -4.67389 
 H                     1.99012   4.02023  -5.90089 
 H                     0.61126   6.09954  -6.12126 
 
 NAtoms=     65 NQM=       65 NQMF=       0 NMMI=      0 NMMIF=      0
                NMic=       0 NMicF=      0.
                    Isotopes and Nuclear Properties:
 (Nuclear quadrupole moments (NQMom) in fm**2, nuclear magnetic moments (NMagM)
  in nuclear magnetons)

  Atom         1           2           3           4           5           6           7           8           9          10
 IAtWgt=          12          12          12          12          12          12          12          12          12          12
 AtmWgt=  12.0000000  12.0000000  12.0000000  12.0000000  12.0000000  12.0000000  12.0000000  12.0000000  12.0000000  12.0000000
 NucSpn=           0           0           0           0           0           0           0           0           0           0
 AtZEff=   0.0000000   0.0000000   0.0000000   0.0000000   0.0000000   0.0000000   0.0000000   0.0000000   0.0000000   0.0000000
 NQMom=    0.0000000   0.0000000   0.0000000   0.0000000   0.0000000   0.0000000   0.0000000   0.0000000   0.0000000   0.0000000
 NMagM=    0.0000000   0.0000000   0.0000000   0.0000000   0.0000000   0.0000000   0.0000000   0.0000000   0.0000000   0.0000000
 AtZNuc=   6.0000000   6.0000000   6.0000000   6.0000000   6.0000000   6.0000000   6.0000000   6.0000000   6.0000000   6.0000000

  Atom        11          12          13          14          15          16          17          18          19          20
 IAtWgt=          12          12          12           1           1           1          16          16          16          12
 AtmWgt=  12.0000000  12.0000000  12.0000000   1.0078250   1.0078250   1.0078250  15.9949146  15.9949146  15.9949146  12.0000000
 NucSpn=           0           0           0           1           1           1           0           0           0           0
 AtZEff=   0.0000000   0.0000000   0.0000000   0.0000000   0.0000000   0.0000000   0.0000000   0.0000000   0.0000000   0.0000000
 NQMom=    0.0000000   0.0000000   0.0000000   0.0000000   0.0000000   0.0000000   0.0000000   0.0000000   0.0000000   0.0000000
 NMagM=    0.0000000   0.0000000   0.0000000   2.7928460   2.7928460   2.7928460   0.0000000   0.0000000   0.0000000   0.0000000
 AtZNuc=   6.0000000   6.0000000   6.0000000   1.0000000   1.0000000   1.0000000   8.0000000   8.0000000   8.0000000   6.0000000

  Atom        21          22          23          24          25          26          27          28          29          30
 IAtWgt=          12          12          12           1          12          12           1           1           1          12
 AtmWgt=  12.0000000  12.0000000  12.0000000   1.0078250  12.0000000  12.0000000   1.0078250   1.0078250   1.0078250  12.0000000
 NucSpn=           0           0           0           1           0           0           1           1           1           0
 AtZEff=   0.0000000   0.0000000   0.0000000   0.0000000   0.0000000   0.0000000   0.0000000   0.0000000   0.0000000   0.0000000
 NQMom=    0.0000000   0.0000000   0.0000000   0.0000000   0.0000000   0.0000000   0.0000000   0.0000000   0.0000000   0.0000000
 NMagM=    0.0000000   0.0000000   0.0000000   2.7928460   0.0000000   0.0000000   2.7928460   2.7928460   2.7928460   0.0000000
 AtZNuc=   6.0000000   6.0000000   6.0000000   1.0000000   6.0000000   6.0000000   1.0000000   1.0000000   1.0000000   6.0000000

  Atom        31          32          33          34          35          36          37          38          39          40
 IAtWgt=          16          16          12          12          12          12           1          12           1          12
 AtmWgt=  15.9949146  15.9949146  12.0000000  12.0000000  12.0000000  12.0000000   1.0078250  12.0000000   1.0078250  12.0000000
 NucSpn=           0           0           0           0           0           0           1           0           1           0
 AtZEff=   0.0000000   0.0000000   0.0000000   0.0000000   0.0000000   0.0000000   0.0000000   0.0000000   0.0000000   0.0000000
 NQMom=    0.0000000   0.0000000   0.0000000   0.0000000   0.0000000   0.0000000   0.0000000   0.0000000   0.0000000   0.0000000
 NMagM=    0.0000000   0.0000000   0.0000000   0.0000000   0.0000000   0.0000000   2.7928460   0.0000000   2.7928460   0.0000000
 AtZNuc=   8.0000000   8.0000000   6.0000000   6.0000000   6.0000000   6.0000000   1.0000000   6.0000000   1.0000000   6.0000000

  Atom        41          42          43          44          45          46          47          48          49          50
 IAtWgt=           1           1           1          12          12          12          12           1          12           1
 AtmWgt=   1.0078250   1.0078250   1.0078250  12.0000000  12.0000000  12.0000000  12.0000000   1.0078250  12.0000000   1.0078250
 NucSpn=           1           1           1           0           0           0           0           1           0           1
 AtZEff=   0.0000000   0.0000000   0.0000000   0.0000000   0.0000000   0.0000000   0.0000000   0.0000000   0.0000000   0.0000000
 NQMom=    0.0000000   0.0000000   0.0000000   0.0000000   0.0000000   0.0000000   0.0000000   0.0000000   0.0000000   0.0000000
 NMagM=    2.7928460   2.7928460   2.7928460   0.0000000   0.0000000   0.0000000   0.0000000   2.7928460   0.0000000   2.7928460
 AtZNuc=   1.0000000   1.0000000   1.0000000   6.0000000   6.0000000   6.0000000   6.0000000   1.0000000   6.0000000   1.0000000

  Atom        51          52          53          54          55          56          57          58          59          60
 IAtWgt=          12           1           1           1          12          12          12          12           1          12
 AtmWgt=  12.0000000   1.0078250   1.0078250   1.0078250  12.0000000  12.0000000  12.0000000  12.0000000   1.0078250  12.0000000
 NucSpn=           0           1           1           1           0           0           0           0           1           0
 AtZEff=   0.0000000   0.0000000   0.0000000   0.0000000   0.0000000   0.0000000   0.0000000   0.0000000   0.0000000   0.0000000
 NQMom=    0.0000000   0.0000000   0.0000000   0.0000000   0.0000000   0.0000000   0.0000000   0.0000000   0.0000000   0.0000000
 NMagM=    0.0000000   2.7928460   2.7928460   2.7928460   0.0000000   0.0000000   0.0000000   0.0000000   2.7928460   0.0000000
 AtZNuc=   6.0000000   1.0000000   1.0000000   1.0000000   6.0000000   6.0000000   6.0000000   6.0000000   1.0000000   6.0000000

  Atom        61          62          63          64          65
 IAtWgt=           1          12           1           1           1
 AtmWgt=   1.0078250  12.0000000   1.0078250   1.0078250   1.0078250
 NucSpn=           1           0           1           1           1
 AtZEff=   0.0000000   0.0000000   0.0000000   0.0000000   0.0000000
 NQMom=    0.0000000   0.0000000   0.0000000   0.0000000   0.0000000
 NMagM=    2.7928460   0.0000000   2.7928460   2.7928460   2.7928460
 AtZNuc=   1.0000000   6.0000000   1.0000000   1.0000000   1.0000000
 Leave Link  101 at Wed Feb  2 10:46:07 2022, MaxMem=  5242880000 cpu:         4.4
 (Enter /opt/nce/packages/global/g09/l103.exe)

 GradGradGradGradGradGradGradGradGradGradGradGradGradGradGradGradGradGrad
 Berny optimization.
 Initialization pass.
                           ----------------------------
                           !    Initial Parameters    !
                           ! (Angstroms and Degrees)  !
 --------------------------                            --------------------------
 ! Name  Definition              Value          Derivative Info.                !
 --------------------------------------------------------------------------------
 ! R1    R(1,2)                  1.4522         estimate D2E/DX2                !
 ! R2    R(1,6)                  1.4462         estimate D2E/DX2                !
 ! R3    R(1,19)                 1.2744         estimate D2E/DX2                !
 ! R4    R(2,3)                  1.3924         estimate D2E/DX2                !
 ! R5    R(2,33)                 1.4754         estimate D2E/DX2                !
 ! R6    R(3,4)                  1.423          estimate D2E/DX2                !
 ! R7    R(3,17)                 1.3661         estimate D2E/DX2                !
 ! R8    R(4,5)                  1.4206         estimate D2E/DX2                !
 ! R9    R(4,7)                  1.4075         estimate D2E/DX2                !
 ! R10   R(5,6)                  1.367          estimate D2E/DX2                !
 ! R11   R(5,14)                 1.104          estimate D2E/DX2                !
 ! R12   R(6,15)                 1.1038         estimate D2E/DX2                !
 ! R13   R(7,8)                  1.4085         estimate D2E/DX2                !
 ! R14   R(7,20)                 1.4855         estimate D2E/DX2                !
 ! R15   R(8,9)                  1.4214         estimate D2E/DX2                !
 ! R16   R(8,13)                 1.4141         estimate D2E/DX2                !
 ! R17   R(9,10)                 1.3889         estimate D2E/DX2                !
 ! R18   R(9,17)                 1.3652         estimate D2E/DX2                !
 ! R19   R(10,11)                1.4536         estimate D2E/DX2                !
 ! R20   R(10,44)                1.4759         estimate D2E/DX2                !
 ! R21   R(11,12)                1.4682         estimate D2E/DX2                !
 ! R22   R(11,18)                1.2677         estimate D2E/DX2                !
 ! R23   R(12,13)                1.3772         estimate D2E/DX2                !
 ! R24   R(12,55)                1.4731         estimate D2E/DX2                !
 ! R25   R(13,16)                1.1047         estimate D2E/DX2                !
 ! R26   R(20,21)                1.4021         estimate D2E/DX2                !
 ! R27   R(20,22)                1.4044         estimate D2E/DX2                !
 ! R28   R(21,23)                1.3946         estimate D2E/DX2                !
 ! R29   R(21,24)                1.1038         estimate D2E/DX2                !
 ! R30   R(22,25)                1.3986         estimate D2E/DX2                !
 ! R31   R(22,30)                1.514          estimate D2E/DX2                !
 ! R32   R(23,26)                1.3971         estimate D2E/DX2                !
 ! R33   R(23,27)                1.1028         estimate D2E/DX2                !
 ! R34   R(25,26)                1.3923         estimate D2E/DX2                !
 ! R35   R(25,28)                1.1036         estimate D2E/DX2                !
 ! R36   R(26,29)                1.103          estimate D2E/DX2                !
 ! R37   R(30,31)                1.2677         estimate D2E/DX2                !
 ! R38   R(30,32)                1.2662         estimate D2E/DX2                !
 ! R39   R(33,34)                1.4058         estimate D2E/DX2                !
 ! R40   R(33,35)                1.4047         estimate D2E/DX2                !
 ! R41   R(34,36)                1.3947         estimate D2E/DX2                !
 ! R42   R(34,37)                1.1019         estimate D2E/DX2                !
 ! R43   R(35,38)                1.3936         estimate D2E/DX2                !
 ! R44   R(35,39)                1.1024         estimate D2E/DX2                !
 ! R45   R(36,40)                1.3973         estimate D2E/DX2                !
 ! R46   R(36,41)                1.1036         estimate D2E/DX2                !
 ! R47   R(38,40)                1.396          estimate D2E/DX2                !
 ! R48   R(38,42)                1.1031         estimate D2E/DX2                !
 ! R49   R(40,43)                1.1032         estimate D2E/DX2                !
 ! R50   R(44,45)                1.404          estimate D2E/DX2                !
 ! R51   R(44,46)                1.4054         estimate D2E/DX2                !
 ! R52   R(45,47)                1.394          estimate D2E/DX2                !
 ! R53   R(45,48)                1.1025         estimate D2E/DX2                !
 ! R54   R(46,49)                1.3944         estimate D2E/DX2                !
 ! R55   R(46,50)                1.102          estimate D2E/DX2                !
 ! R56   R(47,51)                1.3957         estimate D2E/DX2                !
 ! R57   R(47,52)                1.1031         estimate D2E/DX2                !
 ! R58   R(49,51)                1.3976         estimate D2E/DX2                !
 ! R59   R(49,53)                1.1036         estimate D2E/DX2                !
 ! R60   R(51,54)                1.1032         estimate D2E/DX2                !
 ! R61   R(55,56)                1.4069         estimate D2E/DX2                !
 ! R62   R(55,57)                1.4074         estimate D2E/DX2                !
 ! R63   R(56,58)                1.3937         estimate D2E/DX2                !
 ! R64   R(56,59)                1.1041         estimate D2E/DX2                !
 ! R65   R(57,60)                1.3944         estimate D2E/DX2                !
 ! R66   R(57,61)                1.1007         estimate D2E/DX2                !
 ! R67   R(58,62)                1.397          estimate D2E/DX2                !
 ! R68   R(58,63)                1.1032         estimate D2E/DX2                !
 ! R69   R(60,62)                1.3972         estimate D2E/DX2                !
 ! R70   R(60,64)                1.1035         estimate D2E/DX2                !
 ! R71   R(62,65)                1.1029         estimate D2E/DX2                !
 ! A1    A(2,1,6)              117.2048         estimate D2E/DX2                !
 ! A2    A(2,1,19)             122.3053         estimate D2E/DX2                !
 ! A3    A(6,1,19)             120.4821         estimate D2E/DX2                !
 ! A4    A(1,2,3)              118.5548         estimate D2E/DX2                !
 ! A5    A(1,2,33)             119.6988         estimate D2E/DX2                !
 ! A6    A(3,2,33)             121.7459         estimate D2E/DX2                !
 ! A7    A(2,3,4)              123.5346         estimate D2E/DX2                !
 ! A8    A(2,3,17)             116.7055         estimate D2E/DX2                !
 ! A9    A(4,3,17)             119.7488         estimate D2E/DX2                !
 ! A10   A(3,4,5)              117.271          estimate D2E/DX2                !
 ! A11   A(3,4,7)              119.5264         estimate D2E/DX2                !
 ! A12   A(5,4,7)              123.1822         estimate D2E/DX2                !
 ! A13   A(4,5,6)              121.0671         estimate D2E/DX2                !
 ! A14   A(4,5,14)             118.0687         estimate D2E/DX2                !
 ! A15   A(6,5,14)             120.8615         estimate D2E/DX2                !
 ! A16   A(1,6,5)              122.3562         estimate D2E/DX2                !
 ! A17   A(1,6,15)             116.4478         estimate D2E/DX2                !
 ! A18   A(5,6,15)             121.1953         estimate D2E/DX2                !
 ! A19   A(4,7,8)              119.3151         estimate D2E/DX2                !
 ! A20   A(4,7,20)             119.9753         estimate D2E/DX2                !
 ! A21   A(8,7,20)             119.9611         estimate D2E/DX2                !
 ! A22   A(7,8,9)              119.3945         estimate D2E/DX2                !
 ! A23   A(7,8,13)             123.2274         estimate D2E/DX2                !
 ! A24   A(9,8,13)             117.3749         estimate D2E/DX2                !
 ! A25   A(8,9,10)             122.9009         estimate D2E/DX2                !
 ! A26   A(8,9,17)             119.9423         estimate D2E/DX2                !
 ! A27   A(10,9,17)            117.1395         estimate D2E/DX2                !
 ! A28   A(9,10,11)            119.4646         estimate D2E/DX2                !
 ! A29   A(9,10,44)            121.4692         estimate D2E/DX2                !
 ! A30   A(11,10,44)           119.0661         estimate D2E/DX2                !
 ! A31   A(10,11,12)           117.5361         estimate D2E/DX2                !
 ! A32   A(10,11,18)           121.1442         estimate D2E/DX2                !
 ! A33   A(12,11,18)           121.2988         estimate D2E/DX2                !
 ! A34   A(11,12,13)           119.8577         estimate D2E/DX2                !
 ! A35   A(11,12,55)           120.3621         estimate D2E/DX2                !
 ! A36   A(13,12,55)           119.7731         estimate D2E/DX2                !
 ! A37   A(8,13,12)            122.8657         estimate D2E/DX2                !
 ! A38   A(8,13,16)            117.394          estimate D2E/DX2                !
 ! A39   A(12,13,16)           119.7293         estimate D2E/DX2                !
 ! A40   A(3,17,9)             121.9754         estimate D2E/DX2                !
 ! A41   A(7,20,21)            117.5812         estimate D2E/DX2                !
 ! A42   A(7,20,22)            123.1409         estimate D2E/DX2                !
 ! A43   A(21,20,22)           119.2778         estimate D2E/DX2                !
 ! A44   A(20,21,23)           120.743          estimate D2E/DX2                !
 ! A45   A(20,21,24)           119.1168         estimate D2E/DX2                !
 ! A46   A(23,21,24)           120.1402         estimate D2E/DX2                !
 ! A47   A(20,22,25)           119.4729         estimate D2E/DX2                !
 ! A48   A(20,22,30)           120.6504         estimate D2E/DX2                !
 ! A49   A(25,22,30)           119.8764         estimate D2E/DX2                !
 ! A50   A(21,23,26)           119.9416         estimate D2E/DX2                !
 ! A51   A(21,23,27)           119.7237         estimate D2E/DX2                !
 ! A52   A(26,23,27)           120.3347         estimate D2E/DX2                !
 ! A53   A(22,25,26)           121.0877         estimate D2E/DX2                !
 ! A54   A(22,25,28)           117.0808         estimate D2E/DX2                !
 ! A55   A(26,25,28)           121.8314         estimate D2E/DX2                !
 ! A56   A(23,26,25)           119.477          estimate D2E/DX2                !
 ! A57   A(23,26,29)           120.2096         estimate D2E/DX2                !
 ! A58   A(25,26,29)           120.3134         estimate D2E/DX2                !
 ! A59   A(22,30,31)           117.5758         estimate D2E/DX2                !
 ! A60   A(22,30,32)           116.2056         estimate D2E/DX2                !
 ! A61   A(31,30,32)           126.2185         estimate D2E/DX2                !
 ! A62   A(2,33,34)            120.2288         estimate D2E/DX2                !
 ! A63   A(2,33,35)            121.5735         estimate D2E/DX2                !
 ! A64   A(34,33,35)           118.1911         estimate D2E/DX2                !
 ! A65   A(33,34,36)           120.8528         estimate D2E/DX2                !
 ! A66   A(33,34,37)           118.8467         estimate D2E/DX2                !
 ! A67   A(36,34,37)           120.3005         estimate D2E/DX2                !
 ! A68   A(33,35,38)           120.971          estimate D2E/DX2                !
 ! A69   A(33,35,39)           119.3351         estimate D2E/DX2                !
 ! A70   A(38,35,39)           119.6916         estimate D2E/DX2                !
 ! A71   A(34,36,40)           120.2852         estimate D2E/DX2                !
 ! A72   A(34,36,41)           119.6659         estimate D2E/DX2                !
 ! A73   A(40,36,41)           120.0488         estimate D2E/DX2                !
 ! A74   A(35,38,40)           120.2809         estimate D2E/DX2                !
 ! A75   A(35,38,42)           119.5791         estimate D2E/DX2                !
 ! A76   A(40,38,42)           120.1347         estimate D2E/DX2                !
 ! A77   A(36,40,38)           119.4151         estimate D2E/DX2                !
 ! A78   A(36,40,43)           120.2747         estimate D2E/DX2                !
 ! A79   A(38,40,43)           120.31           estimate D2E/DX2                !
 ! A80   A(10,44,45)           121.6564         estimate D2E/DX2                !
 ! A81   A(10,44,46)           120.1057         estimate D2E/DX2                !
 ! A82   A(45,44,46)           118.2372         estimate D2E/DX2                !
 ! A83   A(44,45,47)           120.9475         estimate D2E/DX2                !
 ! A84   A(44,45,48)           119.3185         estimate D2E/DX2                !
 ! A85   A(47,45,48)           119.7309         estimate D2E/DX2                !
 ! A86   A(44,46,49)           120.8538         estimate D2E/DX2                !
 ! A87   A(44,46,50)           118.772          estimate D2E/DX2                !
 ! A88   A(49,46,50)           120.3742         estimate D2E/DX2                !
 ! A89   A(45,47,51)           120.2653         estimate D2E/DX2                !
 ! A90   A(45,47,52)           119.6166         estimate D2E/DX2                !
 ! A91   A(51,47,52)           120.1125         estimate D2E/DX2                !
 ! A92   A(46,49,51)           120.2599         estimate D2E/DX2                !
 ! A93   A(46,49,53)           119.6861         estimate D2E/DX2                !
 ! A94   A(51,49,53)           120.0539         estimate D2E/DX2                !
 ! A95   A(47,51,49)           119.432          estimate D2E/DX2                !
 ! A96   A(47,51,54)           120.3111         estimate D2E/DX2                !
 ! A97   A(49,51,54)           120.2566         estimate D2E/DX2                !
 ! A98   A(12,55,56)           120.2254         estimate D2E/DX2                !
 ! A99   A(12,55,57)           121.7858         estimate D2E/DX2                !
 ! A100  A(56,55,57)           117.9721         estimate D2E/DX2                !
 ! A101  A(55,56,58)           121.2356         estimate D2E/DX2                !
 ! A102  A(55,56,59)           119.1084         estimate D2E/DX2                !
 ! A103  A(58,56,59)           119.6428         estimate D2E/DX2                !
 ! A104  A(55,57,60)           120.7723         estimate D2E/DX2                !
 ! A105  A(55,57,61)           118.5665         estimate D2E/DX2                !
 ! A106  A(60,57,61)           120.6612         estimate D2E/DX2                !
 ! A107  A(56,58,62)           120.1314         estimate D2E/DX2                !
 ! A108  A(56,58,63)           119.7181         estimate D2E/DX2                !
 ! A109  A(62,58,63)           120.1468         estimate D2E/DX2                !
 ! A110  A(57,60,62)           120.5448         estimate D2E/DX2                !
 ! A111  A(57,60,64)           119.5504         estimate D2E/DX2                !
 ! A112  A(62,60,64)           119.9048         estimate D2E/DX2                !
 ! A113  A(58,62,60)           119.3385         estimate D2E/DX2                !
 ! A114  A(58,62,65)           120.3074         estimate D2E/DX2                !
 ! A115  A(60,62,65)           120.3532         estimate D2E/DX2                !
 ! D1    D(6,1,2,3)              1.0168         estimate D2E/DX2                !
 ! D2    D(6,1,2,33)          -178.7121         estimate D2E/DX2                !
 ! D3    D(19,1,2,3)          -179.9948         estimate D2E/DX2                !
 ! D4    D(19,1,2,33)            0.2762         estimate D2E/DX2                !
 ! D5    D(2,1,6,5)             -0.1644         estimate D2E/DX2                !
 ! D6    D(2,1,6,15)           179.5348         estimate D2E/DX2                !
 ! D7    D(19,1,6,5)          -179.1723         estimate D2E/DX2                !
 ! D8    D(19,1,6,15)            0.527          estimate D2E/DX2                !
 ! D9    D(1,2,3,4)             -1.2408         estimate D2E/DX2                !
 ! D10   D(1,2,3,17)           177.5369         estimate D2E/DX2                !
 ! D11   D(33,2,3,4)           178.4823         estimate D2E/DX2                !
 ! D12   D(33,2,3,17)           -2.74           estimate D2E/DX2                !
 ! D13   D(1,2,33,34)          -46.6067         estimate D2E/DX2                !
 ! D14   D(1,2,33,35)          132.4376         estimate D2E/DX2                !
 ! D15   D(3,2,33,34)          133.6733         estimate D2E/DX2                !
 ! D16   D(3,2,33,35)          -47.2824         estimate D2E/DX2                !
 ! D17   D(2,3,4,5)              0.5498         estimate D2E/DX2                !
 ! D18   D(2,3,4,7)            178.9613         estimate D2E/DX2                !
 ! D19   D(17,3,4,5)          -178.1925         estimate D2E/DX2                !
 ! D20   D(17,3,4,7)             0.219          estimate D2E/DX2                !
 ! D21   D(2,3,17,9)           179.4452         estimate D2E/DX2                !
 ! D22   D(4,3,17,9)            -1.7283         estimate D2E/DX2                !
 ! D23   D(3,4,5,6)              0.3624         estimate D2E/DX2                !
 ! D24   D(3,4,5,14)           179.7668         estimate D2E/DX2                !
 ! D25   D(7,4,5,6)           -177.986          estimate D2E/DX2                !
 ! D26   D(7,4,5,14)             1.4183         estimate D2E/DX2                !
 ! D27   D(3,4,7,8)              2.4533         estimate D2E/DX2                !
 ! D28   D(3,4,7,20)           172.541          estimate D2E/DX2                !
 ! D29   D(5,4,7,8)           -179.2337         estimate D2E/DX2                !
 ! D30   D(5,4,7,20)            -9.1461         estimate D2E/DX2                !
 ! D31   D(4,5,6,1)             -0.5355         estimate D2E/DX2                !
 ! D32   D(4,5,6,15)           179.7793         estimate D2E/DX2                !
 ! D33   D(14,5,6,1)          -179.9232         estimate D2E/DX2                !
 ! D34   D(14,5,6,15)            0.3916         estimate D2E/DX2                !
 ! D35   D(4,7,8,9)             -3.6476         estimate D2E/DX2                !
 ! D36   D(4,7,8,13)           177.0297         estimate D2E/DX2                !
 ! D37   D(20,7,8,9)          -173.7367         estimate D2E/DX2                !
 ! D38   D(20,7,8,13)            6.9406         estimate D2E/DX2                !
 ! D39   D(4,7,20,21)          -84.4635         estimate D2E/DX2                !
 ! D40   D(4,7,20,22)           95.6495         estimate D2E/DX2                !
 ! D41   D(8,7,20,21)           85.5597         estimate D2E/DX2                !
 ! D42   D(8,7,20,22)          -94.3272         estimate D2E/DX2                !
 ! D43   D(7,8,9,10)          -179.3384         estimate D2E/DX2                !
 ! D44   D(7,8,9,17)             2.2169         estimate D2E/DX2                !
 ! D45   D(13,8,9,10)            0.0236         estimate D2E/DX2                !
 ! D46   D(13,8,9,17)         -178.4211         estimate D2E/DX2                !
 ! D47   D(7,8,13,12)          179.3625         estimate D2E/DX2                !
 ! D48   D(7,8,13,16)           -1.8486         estimate D2E/DX2                !
 ! D49   D(9,8,13,12)            0.0271         estimate D2E/DX2                !
 ! D50   D(9,8,13,16)          178.8159         estimate D2E/DX2                !
 ! D51   D(8,9,10,11)           -0.0532         estimate D2E/DX2                !
 ! D52   D(8,9,10,44)          179.862          estimate D2E/DX2                !
 ! D53   D(17,9,10,11)         178.4324         estimate D2E/DX2                !
 ! D54   D(17,9,10,44)          -1.6524         estimate D2E/DX2                !
 ! D55   D(8,9,17,3)             0.5068         estimate D2E/DX2                !
 ! D56   D(10,9,17,3)         -178.0259         estimate D2E/DX2                !
 ! D57   D(9,10,11,12)           0.0335         estimate D2E/DX2                !
 ! D58   D(9,10,11,18)         178.3901         estimate D2E/DX2                !
 ! D59   D(44,10,11,12)       -179.8837         estimate D2E/DX2                !
 ! D60   D(44,10,11,18)         -1.5272         estimate D2E/DX2                !
 ! D61   D(9,10,44,45)         -47.98           estimate D2E/DX2                !
 ! D62   D(9,10,44,46)         132.3417         estimate D2E/DX2                !
 ! D63   D(11,10,44,45)        131.9355         estimate D2E/DX2                !
 ! D64   D(11,10,44,46)        -47.7428         estimate D2E/DX2                !
 ! D65   D(10,11,12,13)          0.0139         estimate D2E/DX2                !
 ! D66   D(10,11,12,55)        179.0488         estimate D2E/DX2                !
 ! D67   D(18,11,12,13)       -178.3399         estimate D2E/DX2                !
 ! D68   D(18,11,12,55)          0.6949         estimate D2E/DX2                !
 ! D69   D(11,12,13,8)          -0.045          estimate D2E/DX2                !
 ! D70   D(11,12,13,16)       -178.8066         estimate D2E/DX2                !
 ! D71   D(55,12,13,8)        -179.0855         estimate D2E/DX2                !
 ! D72   D(55,12,13,16)          2.1528         estimate D2E/DX2                !
 ! D73   D(11,12,55,56)       -144.3314         estimate D2E/DX2                !
 ! D74   D(11,12,55,57)         37.1801         estimate D2E/DX2                !
 ! D75   D(13,12,55,56)         34.7042         estimate D2E/DX2                !
 ! D76   D(13,12,55,57)       -143.7843         estimate D2E/DX2                !
 ! D77   D(7,20,21,23)        -179.8822         estimate D2E/DX2                !
 ! D78   D(7,20,21,24)           0.0581         estimate D2E/DX2                !
 ! D79   D(22,20,21,23)          0.0093         estimate D2E/DX2                !
 ! D80   D(22,20,21,24)        179.9496         estimate D2E/DX2                !
 ! D81   D(7,20,22,25)         179.9304         estimate D2E/DX2                !
 ! D82   D(7,20,22,30)          -0.2941         estimate D2E/DX2                !
 ! D83   D(21,20,22,25)          0.0452         estimate D2E/DX2                !
 ! D84   D(21,20,22,30)        179.8208         estimate D2E/DX2                !
 ! D85   D(20,21,23,26)         -0.0489         estimate D2E/DX2                !
 ! D86   D(20,21,23,27)        179.9682         estimate D2E/DX2                !
 ! D87   D(24,21,23,26)       -179.9887         estimate D2E/DX2                !
 ! D88   D(24,21,23,27)          0.0285         estimate D2E/DX2                !
 ! D89   D(20,22,25,26)         -0.0612         estimate D2E/DX2                !
 ! D90   D(20,22,25,28)        179.8469         estimate D2E/DX2                !
 ! D91   D(30,22,25,26)       -179.8386         estimate D2E/DX2                !
 ! D92   D(30,22,25,28)          0.0696         estimate D2E/DX2                !
 ! D93   D(20,22,30,31)        179.9312         estimate D2E/DX2                !
 ! D94   D(20,22,30,32)         -0.1861         estimate D2E/DX2                !
 ! D95   D(25,22,30,31)         -0.2941         estimate D2E/DX2                !
 ! D96   D(25,22,30,32)        179.5885         estimate D2E/DX2                !
 ! D97   D(21,23,26,25)          0.0334         estimate D2E/DX2                !
 ! D98   D(21,23,26,29)       -179.9287         estimate D2E/DX2                !
 ! D99   D(27,23,26,25)       -179.9839         estimate D2E/DX2                !
 ! D100  D(27,23,26,29)          0.0541         estimate D2E/DX2                !
 ! D101  D(22,25,26,23)          0.0218         estimate D2E/DX2                !
 ! D102  D(22,25,26,29)        179.9838         estimate D2E/DX2                !
 ! D103  D(28,25,26,23)       -179.8819         estimate D2E/DX2                !
 ! D104  D(28,25,26,29)          0.0801         estimate D2E/DX2                !
 ! D105  D(2,33,34,36)         179.8295         estimate D2E/DX2                !
 ! D106  D(2,33,34,37)          -0.2474         estimate D2E/DX2                !
 ! D107  D(35,33,34,36)          0.7533         estimate D2E/DX2                !
 ! D108  D(35,33,34,37)       -179.3235         estimate D2E/DX2                !
 ! D109  D(2,33,35,38)        -179.5033         estimate D2E/DX2                !
 ! D110  D(2,33,35,39)           1.0472         estimate D2E/DX2                !
 ! D111  D(34,33,35,38)         -0.4402         estimate D2E/DX2                !
 ! D112  D(34,33,35,39)       -179.8897         estimate D2E/DX2                !
 ! D113  D(33,34,36,40)         -0.6183         estimate D2E/DX2                !
 ! D114  D(33,34,36,41)        179.4561         estimate D2E/DX2                !
 ! D115  D(37,34,36,40)        179.4597         estimate D2E/DX2                !
 ! D116  D(37,34,36,41)         -0.4659         estimate D2E/DX2                !
 ! D117  D(33,35,38,40)         -0.011          estimate D2E/DX2                !
 ! D118  D(33,35,38,42)       -179.1757         estimate D2E/DX2                !
 ! D119  D(39,35,38,40)        179.4367         estimate D2E/DX2                !
 ! D120  D(39,35,38,42)          0.2719         estimate D2E/DX2                !
 ! D121  D(34,36,40,38)          0.1506         estimate D2E/DX2                !
 ! D122  D(34,36,40,43)       -179.9906         estimate D2E/DX2                !
 ! D123  D(41,36,40,38)       -179.9241         estimate D2E/DX2                !
 ! D124  D(41,36,40,43)         -0.0653         estimate D2E/DX2                !
 ! D125  D(35,38,40,36)          0.1613         estimate D2E/DX2                !
 ! D126  D(35,38,40,43)       -179.6975         estimate D2E/DX2                !
 ! D127  D(42,38,40,36)        179.3214         estimate D2E/DX2                !
 ! D128  D(42,38,40,43)         -0.5374         estimate D2E/DX2                !
 ! D129  D(10,44,45,47)        179.8914         estimate D2E/DX2                !
 ! D130  D(10,44,45,48)          0.5327         estimate D2E/DX2                !
 ! D131  D(46,44,45,47)         -0.4245         estimate D2E/DX2                !
 ! D132  D(46,44,45,48)       -179.7832         estimate D2E/DX2                !
 ! D133  D(10,44,46,49)       -179.5162         estimate D2E/DX2                !
 ! D134  D(10,44,46,50)          0.5326         estimate D2E/DX2                !
 ! D135  D(45,44,46,49)          0.7946         estimate D2E/DX2                !
 ! D136  D(45,44,46,50)       -179.1566         estimate D2E/DX2                !
 ! D137  D(44,45,47,51)         -0.0471         estimate D2E/DX2                !
 ! D138  D(44,45,47,52)       -179.1818         estimate D2E/DX2                !
 ! D139  D(48,45,47,51)        179.3089         estimate D2E/DX2                !
 ! D140  D(48,45,47,52)          0.1743         estimate D2E/DX2                !
 ! D141  D(44,46,49,51)         -0.6958         estimate D2E/DX2                !
 ! D142  D(44,46,49,53)        179.4393         estimate D2E/DX2                !
 ! D143  D(50,46,49,51)        179.2546         estimate D2E/DX2                !
 ! D144  D(50,46,49,53)         -0.6103         estimate D2E/DX2                !
 ! D145  D(45,47,51,49)          0.161          estimate D2E/DX2                !
 ! D146  D(45,47,51,54)       -179.6287         estimate D2E/DX2                !
 ! D147  D(52,47,51,49)        179.2914         estimate D2E/DX2                !
 ! D148  D(52,47,51,54)         -0.4984         estimate D2E/DX2                !
 ! D149  D(46,49,51,47)          0.2071         estimate D2E/DX2                !
 ! D150  D(46,49,51,54)        179.997          estimate D2E/DX2                !
 ! D151  D(53,49,51,47)       -179.9285         estimate D2E/DX2                !
 ! D152  D(53,49,51,54)         -0.1386         estimate D2E/DX2                !
 ! D153  D(12,55,56,58)       -177.8177         estimate D2E/DX2                !
 ! D154  D(12,55,56,59)          3.5126         estimate D2E/DX2                !
 ! D155  D(57,55,56,58)          0.7275         estimate D2E/DX2                !
 ! D156  D(57,55,56,59)       -177.9422         estimate D2E/DX2                !
 ! D157  D(12,55,57,60)        177.641          estimate D2E/DX2                !
 ! D158  D(12,55,57,61)         -2.3915         estimate D2E/DX2                !
 ! D159  D(56,55,57,60)         -0.8802         estimate D2E/DX2                !
 ! D160  D(56,55,57,61)        179.0873         estimate D2E/DX2                !
 ! D161  D(55,56,58,62)         -0.2753         estimate D2E/DX2                !
 ! D162  D(55,56,58,63)       -179.5733         estimate D2E/DX2                !
 ! D163  D(59,56,58,62)        178.3874         estimate D2E/DX2                !
 ! D164  D(59,56,58,63)         -0.9106         estimate D2E/DX2                !
 ! D165  D(55,57,60,62)          0.5876         estimate D2E/DX2                !
 ! D166  D(55,57,60,64)       -179.3976         estimate D2E/DX2                !
 ! D167  D(61,57,60,62)       -179.3792         estimate D2E/DX2                !
 ! D168  D(61,57,60,64)          0.6355         estimate D2E/DX2                !
 ! D169  D(56,58,62,60)         -0.0436         estimate D2E/DX2                !
 ! D170  D(56,58,62,65)       -179.7023         estimate D2E/DX2                !
 ! D171  D(63,58,62,60)        179.2514         estimate D2E/DX2                !
 ! D172  D(63,58,62,65)         -0.4073         estimate D2E/DX2                !
 ! D173  D(57,60,62,58)         -0.1121         estimate D2E/DX2                !
 ! D174  D(57,60,62,65)        179.5465         estimate D2E/DX2                !
 ! D175  D(64,60,62,58)        179.8731         estimate D2E/DX2                !
 ! D176  D(64,60,62,65)         -0.4684         estimate D2E/DX2                !
 --------------------------------------------------------------------------------
 Trust Radius=3.00D-01 FncErr=1.00D-07 GrdErr=1.00D-06
 Number of steps in this run=    372 maximum allowed number of steps=    390.
 GradGradGradGradGradGradGradGradGradGradGradGradGradGradGradGradGradGrad

 Leave Link  103 at Wed Feb  2 10:46:07 2022, MaxMem=  5242880000 cpu:         0.3
 (Enter /opt/nce/packages/global/g09/l202.exe)
 Symmetry turned off by external request.
 Stoichiometry    C38H22O5(2-)
 Framework group  C1[X(C38H22O5)]
 Deg. of freedom   189
 Full point group                 C1      NOp   1
                          Input orientation:                          
 ---------------------------------------------------------------------
 Center     Atomic      Atomic             Coordinates (Angstroms)
 Number     Number       Type             X           Y           Z
 ---------------------------------------------------------------------
      1          6           0       -5.061408   -2.318051    1.462909
      2          6           0       -3.670908   -2.006248    1.183434
      3          6           0       -3.386225   -0.978605    0.288135
      4          6           0       -4.386441   -0.228815   -0.391884
      5          6           0       -5.742060   -0.554941   -0.119698
      6          6           0       -6.065369   -1.544644    0.766168
      7          6           0       -4.003578    0.807963   -1.263481
      8          6           0       -2.634238    1.050683   -1.486942
      9          6           0       -1.665971    0.296957   -0.769559
     10          6           0       -0.298484    0.485109   -0.922870
     11          6           0        0.184858    1.491395   -1.853801
     12          6           0       -0.817130    2.268407   -2.593930
     13          6           0       -2.158001    2.028532   -2.390607
     14          1           0       -6.528908    0.021167   -0.637132
     15          1           0       -7.118004   -1.797363    0.981949
     16          1           0       -2.909835    2.600645   -2.963102
     17          8           0       -2.067000   -0.682741    0.092450
     18          8           0        1.425266    1.710651   -1.996504
     19          8           0       -5.403022   -3.243471    2.269791
     20          6           0       -5.023974    1.486448   -2.103198
     21          6           0       -5.364349    0.885636   -3.323443
     22          6           0       -5.649590    2.687453   -1.730844
     23          6           0       -6.312546    1.467381   -4.164525
     24          1           0       -4.870391   -0.057824   -3.613850
     25          6           0       -6.599768    3.260999   -2.581835
     26          6           0       -6.934993    2.661646   -3.792969
     27          1           0       -6.567156    0.980639   -5.120792
     28          1           0       -7.068473    4.203080   -2.249217
     29          1           0       -7.686384    3.124965   -4.454239
     30          6           0       -5.308560    3.360761   -0.418404
     31          8           0       -5.907233    4.443290   -0.141229
     32          8           0       -4.445376    2.777637    0.301488
     33          6           0       -2.601499   -2.780420    1.842165
     34          6           0       -2.658192   -3.031667    3.224205
     35          6           0       -1.517296   -3.301541    1.116897
     36          6           0       -1.656283   -3.764944    3.859567
     37          1           0       -3.509898   -2.637518    3.801729
     38          6           0       -0.519335   -4.039798    1.750263
     39          1           0       -1.453088   -3.114382    0.032368
     40          6           0       -0.582240   -4.274184    3.125018
     41          1           0       -1.715820   -3.942893    4.947079
     42          1           0        0.328938   -4.426714    1.160767
     43          1           0        0.210079   -4.854303    3.627731
     44          6           0        0.679603   -0.313835   -0.159079
     45          6           0        0.558114   -0.498266    1.227423
     46          6           0        1.770885   -0.907988   -0.815812
     47          6           0        1.489415   -1.257776    1.933915
     48          1           0       -0.293166   -0.043075    1.760056
     49          6           0        2.698694   -1.674221   -0.111239
     50          1           0        1.882584   -0.757216   -1.901675
     51          6           0        2.563363   -1.851039    1.268495
     52          1           0        1.365221   -1.399638    3.020787
     53          1           0        3.543274   -2.139642   -0.647892
     54          1           0        3.297424   -2.457314    1.825872
     55          6           0       -0.396744    3.318419   -3.537758
     56          6           0       -1.157519    4.494050   -3.674161
     57          6           0        0.745052    3.173283   -4.347765
     58          6           0       -0.804360    5.480927   -4.592733
     59          1           0       -2.037396    4.642895   -3.023976
     60          6           0        1.096272    4.159374   -5.268962
     61          1           0        1.355965    2.264209   -4.238287
     62          6           0        0.326342    5.318206   -5.396828
     63          1           0       -1.414860    6.396177   -4.673892
     64          1           0        1.990116    4.020232   -5.900886
     65          1           0        0.611264    6.099541   -6.121258
 ---------------------------------------------------------------------
 Rotational constants (GHZ):      0.1027612      0.0702795      0.0456835
 Leave Link  202 at Wed Feb  2 10:46:07 2022, MaxMem=  5242880000 cpu:         0.1
 (Enter /opt/nce/packages/global/g09/l301.exe)
 Standard basis: def2TZVP (5D, 7F)
 Ernie: Thresh=  0.10000D-02 Tol=  0.10000D-05 Strict=F.
  1465 basis functions,  2369 primitive gaussians,  1680 cartesian basis functions
   146 alpha electrons      146 beta electrons
       nuclear repulsion energy      4754.4150242511 Hartrees.
 IExCor= 1009 DFT=T Ex=PBE Corr=PBE ExCW=0 ScaHFX=  0.000000
 ScaDFX=  1.000000  1.000000  1.000000  1.000000 ScalE2=  1.000000  1.000000
 IRadAn=      5 IRanWt=     -1 IRanGd=            0 ICorTp=0 IEmpDi=141
 NAtoms=   65 NActive=   65 NUniq=   65 SFac= 1.00D+00 NAtFMM=   60 NAOKFM=T Big=T
 Integral buffers will be    131072 words long.
 Raffenetti 2 integral format.
 Two-electron integral symmetry is turned off.
 R6Disp:  Grimme-D3(BJ) Dispersion energy=       -0.1093977019 Hartrees.
 Nuclear repulsion after empirical dispersion term =     4754.3056265491 Hartrees.
 ------------------------------------------------------------------------------
 Polarizable Continuum Model (PCM)
 =================================
 Model                : PCM (using non-symmetric T matrix).
 Atomic radii         : SMD-Coulomb.
 Polarization charges : Total charges.
 Charge compensation  : None.
 Solution method      : On-the-fly selection.
 Cavity type          : VdW (van der Waals Surface) (Alpha=1.000).
 Cavity algorithm     : GePol (No added spheres)
                        Default sphere list used, NSphG=   65.
                        Lebedev-Laikov grids with approx.  5.0 points / Ang**2.
                        Smoothing algorithm: York/Karplus (Gamma=1.0000).
                        Polarization charges: spherical gaussians, with
                                              point-specific exponents (IZeta= 3).
                        Self-potential: point-specific (ISelfS= 7).
                        Self-field    : sphere-specific E.n sum rule (ISelfD= 2).
 1st derivatives      : Analytical E(r).r(x)/FMM algorithm (CHGder, D1EAlg=3).
                        Cavity 1st derivative terms included.
 Solvent              : Acetonitrile, Eps=  35.688000 Eps(inf)=   1.806874
 ------------------------------------------------------------------------------
 GePol: Number of generator spheres                  =      65
 GePol: Total number of spheres                      =      65
 GePol: Number of exposed spheres                    =      65 (100.00%)
 GePol: Number of points                             =    4820
 GePol: Average weight of points                     =       0.12
 GePol: Minimum weight of points                     =   0.12D-09
 GePol: Maximum weight of points                     =    0.21559
 GePol: Number of points with low weight             =     267
 GePol: Fraction of low-weight points (<1% of avg)   =       5.54%
 GePol: Cavity surface area                          =    564.777 Ang**2
 GePol: Cavity volume                                =    598.451 Ang**3
 ------------------------------------------------------------------------------
 Atomic radii for non-electrostatic terms: SMD-CDS.
 ------------------------------------------------------------------------------
 PCM non-electrostatic energy =        -0.0140226638 Hartrees.
 Nuclear repulsion after PCM non-electrostatic terms =     4754.2916038854 Hartrees.
 Leave Link  301 at Wed Feb  2 10:46:08 2022, MaxMem=  5242880000 cpu:         4.6
 (Enter /opt/nce/packages/global/g09/l302.exe)
 NPDir=0 NMtPBC=     1 NCelOv=     1 NCel=       1 NClECP=     1 NCelD=      1
         NCelK=      1 NCelE2=     1 NClLst=     1 CellRange=     0.0.
 One-electron integrals computed using PRISM.
   1 Symmetry operations used in ECPInt.
 ECPInt:  NShTT=  157641 NPrTT=  493540 LenC2=  119516 LenP2D=  246576.
 LDataN:  DoStor=T MaxTD1= 6 Len=  172
 NBasis=  1465 RedAO= T EigKep=  3.82D-06  NBF=  1465
 NBsUse=  1465 1.00D-06 EigRej= -1.00D+00 NBFU=  1465
 Precomputing XC quadrature grid using
 IXCGrd= 4 IRadAn=           5 IRanWt=          -1 IRanGd=           0 AccXCQ= 0.00D+00.
 Generated NRdTot=       0 NPtTot=           0 NUsed=           0 NTot=          32
 NSgBfM=  1614  1614  1614  1614  1614 MxSgAt=    65 MxSgA2=    65.
 Leave Link  302 at Wed Feb  2 10:46:12 2022, MaxMem=  5242880000 cpu:        56.6
 (Enter /opt/nce/packages/global/g09/l303.exe)
 DipDrv:  MaxL=1.
 Leave Link  303 at Wed Feb  2 10:46:13 2022, MaxMem=  5242880000 cpu:         5.0
 (Enter /opt/nce/packages/global/g09/l401.exe)
 ExpMin= 9.52D-02 ExpMax= 2.70D+04 ExpMxC= 9.22D+02 IAcc=3 IRadAn=         5 AccDes= 0.00D+00
 Harris functional with IExCor= 1009 and IRadAn=       5 diagonalized for initial guess.
 HarFok:  IExCor= 1009 AccDes= 0.00D+00 IRadAn=         5 IDoV= 1 UseB2=F ITyADJ=14
 ICtDFT=  3500011 ScaDFX=  1.000000  1.000000  1.000000  1.000000
 FoFCou: FMM=F IPFlag=           0 FMFlag=      100000 FMFlg1=        2001
         NFxFlg=           0 DoJE=T BraDBF=F KetDBF=T FulRan=T
         wScrn=  0.000000 ICntrl=     500 IOpCl=  0 I1Cent=   200000004 NGrid=           0
         NMat0=    1 NMatS0=      1 NMatT0=    0 NMatD0=    1 NMtDS0=    0 NMtDT0=    0
 Symmetry not used in FoFCou.
 Harris En= -1837.07047656135    
 JPrj=0 DoOrth=F DoCkMO=F.
 Leave Link  401 at Wed Feb  2 10:46:31 2022, MaxMem=  5242880000 cpu:       214.3
 (Enter /opt/nce/packages/global/g09/l502.exe)
 Closed shell SCF:
 Using DIIS extrapolation, IDIIS=  1040.
 Two-electron integral symmetry not used.
 IVT=     8516120 IEndB=     8516120 NGot=  5242880000 MDV=  5237204601
 LenX=  5237204601 LenY=  5234380521
 Requested convergence on RMS density matrix=1.00D-08 within 128 cycles.
 Requested convergence on MAX density matrix=1.00D-06.
 Requested convergence on             energy=1.00D-06.
 No special actions if energy rises.
 Fock matrices will be formed incrementally for  20 cycles.

 Cycle   1  Pass 1  IDiag  1:
 FoFJK:  IHMeth= 1 ICntrl=     500 DoSepK=F KAlg= 0 I1Cent=   0 FoldK=F
 IRaf= 710000000 NMat=   1 IRICut=       1 DoRegI=T DoRafI=F ISym2E= 0.
 FoFCou: FMM=T IPFlag=           0 FMFlag=      100000 FMFlg1=        2001
         NFxFlg=           0 DoJE=T BraDBF=F KetDBF=F FulRan=T
         wScrn=  0.000000 ICntrl=     500 IOpCl=  0 I1Cent=           0 NGrid=           0
         NMat0=    1 NMatS0=      1 NMatT0=    0 NMatD0=    1 NMtDS0=    0 NMtDT0=    0
 Symmetry not used in FoFCou.
 FMM levels:  10  Number of levels for PrismC:   9
 Inv3:  Mode=1 IEnd=    69697200.
 Iteration    1 A*A^-1 deviation from unit magnitude is 8.88D-15 for   4809.
 Iteration    1 A*A^-1 deviation from orthogonality  is 3.66D-15 for   2465   2268.
 Iteration    1 A^-1*A deviation from unit magnitude is 8.44D-15 for   4809.
 Iteration    1 A^-1*A deviation from orthogonality  is 3.27D-12 for   4251   3679.
 E= -1835.40722767973    
 DIIS: error= 2.03D-02 at cycle   1 NSaved=   1.
 NSaved= 1 IEnMin= 1 EnMin= -1835.40722767973     IErMin= 1 ErrMin= 2.03D-02
 ErrMax= 2.03D-02  0.00D+00 EMaxC= 1.00D-01 BMatC= 9.32D-01 BMatP= 9.32D-01
 IDIUse=3 WtCom= 7.97D-01 WtEn= 2.03D-01
 Coeff-Com:  0.100D+01
 Coeff-En:   0.100D+01
 Coeff:      0.100D+01
 Gap=     0.036 Goal=   None    Shift=    0.000
 GapD=    0.036 DampG=0.250 DampE=0.500 DampFc=0.2500 IDamp=-1.
 Damping current iteration by 2.50D-01
 RMSDP=3.30D-02 MaxDP=6.80D+00              OVMax= 6.93D-01

 Cycle   2  Pass 1  IDiag  1:
 RMSU=  8.10D-03    CP:  1.32D+00
 E= -1835.65100687912     Delta-E=       -0.243779199391 Rises=F Damp=T
 DIIS: error= 7.60D-03 at cycle   2 NSaved=   2.
 NSaved= 2 IEnMin= 2 EnMin= -1835.65100687912     IErMin= 2 ErrMin= 7.60D-03
 ErrMax= 7.60D-03  0.00D+00 EMaxC= 1.00D-01 BMatC= 1.76D-01 BMatP= 9.32D-01
 IDIUse=3 WtCom= 9.24D-01 WtEn= 7.60D-02
 Coeff-Com: -0.256D+00 0.126D+01
 Coeff-En:   0.132D+00 0.868D+00
 Coeff:     -0.227D+00 0.123D+01
 Gap=     0.141 Goal=   None    Shift=    0.000
 RMSDP=5.76D-03 MaxDP=1.21D+00 DE=-2.44D-01 OVMax= 5.99D-01

 Cycle   3  Pass 1  IDiag  1:
 RMSU=  1.99D-03    CP:  1.09D+00  3.46D-01
 E= -1835.82557687782     Delta-E=       -0.174569998705 Rises=F Damp=F
 DIIS: error= 1.92D-02 at cycle   3 NSaved=   3.
 NSaved= 3 IEnMin= 3 EnMin= -1835.82557687782     IErMin= 2 ErrMin= 7.60D-03
 ErrMax= 1.92D-02  0.00D+00 EMaxC= 1.00D-01 BMatC= 4.65D-01 BMatP= 1.76D-01
 IDIUse=2 WtCom= 0.00D+00 WtEn= 1.00D+00
 Coeff-En:   0.000D+00 0.365D+00 0.635D+00
 Coeff:      0.000D+00 0.365D+00 0.635D+00
 Gap=     0.131 Goal=   None    Shift=    0.000
 RMSDP=9.19D-03 MaxDP=1.78D+00 DE=-1.75D-01 OVMax= 7.13D-01

 Cycle   4  Pass 1  IDiag  1:
 RMSU=  2.56D-03    CP:  1.44D+00  1.41D+00  3.82D-01
 E= -1833.83921573913     Delta-E=        1.986361138689 Rises=F Damp=F
 DIIS: error= 3.44D-02 at cycle   4 NSaved=   4.
 NSaved= 4 IEnMin= 3 EnMin= -1835.82557687782     IErMin= 2 ErrMin= 7.60D-03
 ErrMax= 3.44D-02  0.00D+00 EMaxC= 1.00D-01 BMatC= 2.25D+00 BMatP= 1.76D-01
 IDIUse=2 WtCom= 0.00D+00 WtEn= 1.00D+00
 Coeff-En:   0.000D+00 0.000D+00 0.759D+00 0.241D+00
 Coeff:      0.000D+00 0.000D+00 0.759D+00 0.241D+00
 Gap=     0.061 Goal=   None    Shift=    0.000
 RMSDP=7.75D-03 MaxDP=1.52D+00 DE= 1.99D+00 OVMax= 7.33D-01

 Cycle   5  Pass 1  IDiag  1:
 RMSU=  1.11D-03    CP:  1.17D+00  4.94D-01  6.04D-01  3.89D-01
 E= -1836.14385196316     Delta-E=       -2.304636224031 Rises=F Damp=F
 DIIS: error= 8.40D-03 at cycle   5 NSaved=   5.
 NSaved= 5 IEnMin= 5 EnMin= -1836.14385196316     IErMin= 2 ErrMin= 7.60D-03
 ErrMax= 8.40D-03  0.00D+00 EMaxC= 1.00D-01 BMatC= 1.50D-01 BMatP= 1.76D-01
 IDIUse=3 WtCom= 9.16D-01 WtEn= 8.40D-02
 Coeff-Com: -0.202D+00 0.516D+00 0.358D+00 0.190D-02 0.326D+00
 Coeff-En:   0.000D+00 0.000D+00 0.292D+00 0.000D+00 0.708D+00
 Coeff:     -0.185D+00 0.472D+00 0.352D+00 0.174D-02 0.358D+00
 Gap=     0.112 Goal=   None    Shift=    0.000
 RMSDP=1.41D-03 MaxDP=2.17D-01 DE=-2.30D+00 OVMax= 1.81D-01

 Cycle   6  Pass 1  IDiag  1:
 RMSU=  1.03D-03    CP:  1.14D+00  4.23D-01  6.73D-01  1.67D-01  5.83D-01
 E= -1836.26777891910     Delta-E=       -0.123926955933 Rises=F Damp=F
 DIIS: error= 5.67D-03 at cycle   6 NSaved=   6.
 NSaved= 6 IEnMin= 6 EnMin= -1836.26777891910     IErMin= 6 ErrMin= 5.67D-03
 ErrMax= 5.67D-03  0.00D+00 EMaxC= 1.00D-01 BMatC= 4.20D-02 BMatP= 1.50D-01
 IDIUse=3 WtCom= 9.43D-01 WtEn= 5.67D-02
 Coeff-Com: -0.145D+00 0.268D+00 0.199D+00-0.235D-01 0.344D+00 0.357D+00
 Coeff-En:   0.000D+00 0.000D+00 0.000D+00 0.000D+00 0.203D+00 0.797D+00
 Coeff:     -0.137D+00 0.253D+00 0.188D+00-0.221D-01 0.336D+00 0.382D+00
 Gap=     0.081 Goal=   None    Shift=    0.000
 RMSDP=6.96D-04 MaxDP=1.03D-01 DE=-1.24D-01 OVMax= 8.42D-02

 Cycle   7  Pass 1  IDiag  1:
 RMSU=  3.18D-04    CP:  1.15D+00  4.56D-01  6.90D-01  2.25D-01  8.06D-01
                    CP:  5.42D-01
 E= -1836.29942816071     Delta-E=       -0.031649241614 Rises=F Damp=F
 DIIS: error= 2.45D-03 at cycle   7 NSaved=   7.
 NSaved= 7 IEnMin= 7 EnMin= -1836.29942816071     IErMin= 7 ErrMin= 2.45D-03
 ErrMax= 2.45D-03  0.00D+00 EMaxC= 1.00D-01 BMatC= 4.43D-03 BMatP= 4.20D-02
 IDIUse=3 WtCom= 9.75D-01 WtEn= 2.45D-02
 Coeff-Com: -0.713D-01 0.115D+00 0.768D-01-0.102D-01 0.171D+00 0.269D+00
 Coeff-Com:  0.450D+00
 Coeff-En:   0.000D+00 0.000D+00 0.000D+00 0.000D+00 0.000D+00 0.929D-01
 Coeff-En:   0.907D+00
 Coeff:     -0.695D-01 0.112D+00 0.749D-01-0.999D-02 0.167D+00 0.265D+00
 Coeff:      0.461D+00
 Gap=     0.068 Goal=   None    Shift=    0.000
 RMSDP=2.64D-04 MaxDP=6.11D-02 DE=-3.16D-02 OVMax= 3.60D-02

 Cycle   8  Pass 1  IDiag  1:
 RMSU=  1.21D-04    CP:  1.15D+00  4.68D-01  7.10D-01  2.33D-01  7.60D-01
                    CP:  5.06D-01  3.77D-01
 E= -1836.30198296858     Delta-E=       -0.002554807869 Rises=F Damp=F
 DIIS: error= 1.00D-03 at cycle   8 NSaved=   8.
 NSaved= 8 IEnMin= 8 EnMin= -1836.30198296858     IErMin= 8 ErrMin= 1.00D-03
 ErrMax= 1.00D-03  0.00D+00 EMaxC= 1.00D-01 BMatC= 1.13D-03 BMatP= 4.43D-03
 IDIUse=3 WtCom= 9.90D-01 WtEn= 1.00D-02
 Coeff-Com: -0.222D-01 0.316D-01 0.103D-01-0.244D-02 0.400D-01 0.114D+00
 Coeff-Com:  0.380D+00 0.449D+00
 Coeff-En:   0.000D+00 0.000D+00 0.000D+00 0.000D+00 0.000D+00 0.000D+00
 Coeff-En:   0.255D+00 0.745D+00
 Coeff:     -0.220D-01 0.313D-01 0.102D-01-0.241D-02 0.396D-01 0.113D+00
 Coeff:      0.378D+00 0.452D+00
 Gap=     0.068 Goal=   None    Shift=    0.000
 RMSDP=1.23D-04 MaxDP=3.15D-02 DE=-2.55D-03 OVMax= 1.36D-02

 Cycle   9  Pass 1  IDiag  1:
 RMSU=  4.70D-05    CP:  1.15D+00  4.67D-01  6.99D-01  2.28D-01  7.76D-01
                    CP:  5.68D-01  5.71D-01  4.82D-01
 E= -1836.30277720401     Delta-E=       -0.000794235434 Rises=F Damp=F
 DIIS: error= 2.25D-04 at cycle   9 NSaved=   9.
 NSaved= 9 IEnMin= 9 EnMin= -1836.30277720401     IErMin= 9 ErrMin= 2.25D-04
 ErrMax= 2.25D-04  0.00D+00 EMaxC= 1.00D-01 BMatC= 1.31D-04 BMatP= 1.13D-03
 IDIUse=3 WtCom= 9.98D-01 WtEn= 2.25D-03
 Coeff-Com: -0.487D-02 0.580D-02-0.429D-02 0.172D-03 0.846D-03 0.410D-01
 Coeff-Com:  0.209D+00 0.329D+00 0.423D+00
 Coeff-En:   0.000D+00 0.000D+00 0.000D+00 0.000D+00 0.000D+00 0.000D+00
 Coeff-En:   0.000D+00 0.992D-01 0.901D+00
 Coeff:     -0.486D-02 0.578D-02-0.428D-02 0.171D-03 0.844D-03 0.409D-01
 Coeff:      0.209D+00 0.329D+00 0.424D+00
 Gap=     0.068 Goal=   None    Shift=    0.000
 RMSDP=5.38D-05 MaxDP=1.15D-02 DE=-7.94D-04 OVMax= 4.91D-03

 Cycle  10  Pass 1  IDiag  1:
 RMSU=  2.19D-05    CP:  1.16D+00  4.67D-01  7.00D-01  2.30D-01  7.85D-01
                    CP:  5.57D-01  6.44D-01  5.88D-01  2.04D-01
 E= -1836.30288168655     Delta-E=       -0.000104482536 Rises=F Damp=F
 DIIS: error= 1.09D-04 at cycle  10 NSaved=  10.
 NSaved=10 IEnMin=10 EnMin= -1836.30288168655     IErMin=10 ErrMin= 1.09D-04
 ErrMax= 1.09D-04  0.00D+00 EMaxC= 1.00D-01 BMatC= 1.57D-05 BMatP= 1.31D-04
 IDIUse=3 WtCom= 9.99D-01 WtEn= 1.09D-03
 Coeff-Com: -0.218D-02 0.242D-02-0.338D-02 0.315D-03-0.160D-02 0.228D-01
 Coeff-Com:  0.124D+00 0.206D+00 0.311D+00 0.340D+00
 Coeff-En:   0.000D+00 0.000D+00 0.000D+00 0.000D+00 0.000D+00 0.000D+00
 Coeff-En:   0.000D+00 0.000D+00 0.745D-01 0.926D+00
 Coeff:     -0.217D-02 0.242D-02-0.338D-02 0.315D-03-0.160D-02 0.228D-01
 Coeff:      0.124D+00 0.206D+00 0.311D+00 0.341D+00
 Gap=     0.068 Goal=   None    Shift=    0.000
 RMSDP=2.45D-05 MaxDP=5.50D-03 DE=-1.04D-04 OVMax= 2.44D-03

 Cycle  11  Pass 1  IDiag  1:
 RMSU=  4.65D-06    CP:  1.15D+00  4.67D-01  6.99D-01  2.29D-01  7.81D-01
                    CP:  5.65D-01  6.08D-01  5.55D-01  5.02D-01  4.99D-01
 E= -1836.30289454287     Delta-E=       -0.000012856321 Rises=F Damp=F
 DIIS: error= 2.17D-05 at cycle  11 NSaved=  11.
 NSaved=11 IEnMin=11 EnMin= -1836.30289454287     IErMin=11 ErrMin= 2.17D-05
 ErrMax= 2.17D-05  0.00D+00 EMaxC= 1.00D-01 BMatC= 1.76D-06 BMatP= 1.57D-05
 IDIUse=1 WtCom= 1.00D+00 WtEn= 0.00D+00
 Coeff-Com: -0.413D-03 0.641D-03-0.112D-02 0.629D-04-0.128D-02 0.555D-02
 Coeff-Com:  0.298D-01 0.557D-01 0.109D+00 0.245D+00 0.556D+00
 Coeff:     -0.413D-03 0.641D-03-0.112D-02 0.629D-04-0.128D-02 0.555D-02
 Coeff:      0.298D-01 0.557D-01 0.109D+00 0.245D+00 0.556D+00
 Gap=     0.068 Goal=   None    Shift=    0.000
 RMSDP=7.70D-06 MaxDP=2.16D-03 DE=-1.29D-05 OVMax= 7.16D-04

 Cycle  12  Pass 1  IDiag  1:
 RMSU=  1.50D-06    CP:  1.15D+00  4.66D-01  6.99D-01  2.29D-01  7.82D-01
                    CP:  5.63D-01  6.16D-01  5.64D-01  4.24D-01  6.56D-01
                    CP:  6.64D-01
 E= -1836.30289569538     Delta-E=       -0.000001152505 Rises=F Damp=F
 DIIS: error= 2.08D-05 at cycle  12 NSaved=  12.
 NSaved=12 IEnMin=12 EnMin= -1836.30289569538     IErMin=12 ErrMin= 2.08D-05
 ErrMax= 2.08D-05  0.00D+00 EMaxC= 1.00D-01 BMatC= 3.68D-07 BMatP= 1.76D-06
 IDIUse=1 WtCom= 1.00D+00 WtEn= 0.00D+00
 Coeff-Com: -0.917D-04 0.234D-03-0.358D-03 0.166D-04-0.578D-03 0.165D-02
 Coeff-Com:  0.788D-02 0.173D-01 0.442D-01 0.136D+00 0.397D+00 0.397D+00
 Coeff:     -0.917D-04 0.234D-03-0.358D-03 0.166D-04-0.578D-03 0.165D-02
 Coeff:      0.788D-02 0.173D-01 0.442D-01 0.136D+00 0.397D+00 0.397D+00
 Gap=     0.068 Goal=   None    Shift=    0.000
 RMSDP=2.40D-06 MaxDP=6.38D-04 DE=-1.15D-06 OVMax= 2.56D-04

 Cycle  13  Pass 1  IDiag  1:
 RMSU=  4.98D-07    CP:  1.15D+00  4.66D-01  6.99D-01  2.29D-01  7.81D-01
                    CP:  5.64D-01  6.13D-01  5.61D-01  4.47D-01  6.09D-01
                    CP:  7.59D-01  6.71D-01
 E= -1836.30289601279     Delta-E=       -0.000000317415 Rises=F Damp=F
 DIIS: error= 6.16D-06 at cycle  13 NSaved=  13.
 NSaved=13 IEnMin=13 EnMin= -1836.30289601279     IErMin=13 ErrMin= 6.16D-06
 ErrMax= 6.16D-06  0.00D+00 EMaxC= 1.00D-01 BMatC= 2.92D-08 BMatP= 3.68D-07
 IDIUse=1 WtCom= 1.00D+00 WtEn= 0.00D+00
 Coeff-Com:  0.695D-05 0.166D-04-0.860D-04 0.948D-05-0.151D-03 0.290D-03
 Coeff-Com:  0.120D-02 0.378D-02 0.139D-01 0.554D-01 0.182D+00 0.254D+00
 Coeff-Com:  0.489D+00
 Coeff:      0.695D-05 0.166D-04-0.860D-04 0.948D-05-0.151D-03 0.290D-03
 Coeff:      0.120D-02 0.378D-02 0.139D-01 0.554D-01 0.182D+00 0.254D+00
 Coeff:      0.489D+00
 Gap=     0.068 Goal=   None    Shift=    0.000
 RMSDP=5.66D-07 MaxDP=1.20D-04 DE=-3.17D-07 OVMax= 6.44D-05

 Cycle  14  Pass 1  IDiag  1:
 RMSU=  1.96D-07    CP:  1.15D+00  4.66D-01  6.99D-01  2.29D-01  7.81D-01
                    CP:  5.64D-01  6.14D-01  5.62D-01  4.45D-01  6.21D-01
                    CP:  7.46D-01  7.30D-01  6.79D-01
 E= -1836.30289603968     Delta-E=       -0.000000026889 Rises=F Damp=F
 DIIS: error= 1.63D-06 at cycle  14 NSaved=  14.
 NSaved=14 IEnMin=14 EnMin= -1836.30289603968     IErMin=14 ErrMin= 1.63D-06
 ErrMax= 1.63D-06  0.00D+00 EMaxC= 1.00D-01 BMatC= 5.75D-09 BMatP= 2.92D-08
 IDIUse=1 WtCom= 1.00D+00 WtEn= 0.00D+00
 Coeff-Com: -0.288D-06 0.832D-05-0.141D-04 0.289D-06-0.166D-04 0.958D-05
 Coeff-Com: -0.150D-04 0.704D-03 0.429D-02 0.220D-01 0.773D-01 0.127D+00
 Coeff-Com:  0.345D+00 0.424D+00
 Coeff:     -0.288D-06 0.832D-05-0.141D-04 0.289D-06-0.166D-04 0.958D-05
 Coeff:     -0.150D-04 0.704D-03 0.429D-02 0.220D-01 0.773D-01 0.127D+00
 Coeff:      0.345D+00 0.424D+00
 Gap=     0.068 Goal=   None    Shift=    0.000
 RMSDP=1.73D-07 MaxDP=3.30D-05 DE=-2.69D-08 OVMax= 1.85D-05

 Cycle  15  Pass 1  IDiag  1:
 RMSU=  5.93D-08    CP:  1.15D+00  4.66D-01  6.99D-01  2.29D-01  7.81D-01
                    CP:  5.64D-01  6.14D-01  5.62D-01  4.45D-01  6.20D-01
                    CP:  7.48D-01  7.13D-01  7.37D-01  7.00D-01
 E= -1836.30289604503     Delta-E=       -0.000000005355 Rises=F Damp=F
 DIIS: error= 3.45D-07 at cycle  15 NSaved=  15.
 NSaved=15 IEnMin=15 EnMin= -1836.30289604503     IErMin=15 ErrMin= 3.45D-07
 ErrMax= 3.45D-07  0.00D+00 EMaxC= 1.00D-01 BMatC= 4.05D-10 BMatP= 5.75D-09
 IDIUse=1 WtCom= 1.00D+00 WtEn= 0.00D+00
 Coeff-Com: -0.145D-07-0.439D-06-0.543D-07 0.364D-06 0.817D-05-0.377D-04
 Coeff-Com: -0.145D-03 0.611D-04 0.123D-02 0.833D-02 0.305D-01 0.540D-01
 Coeff-Com:  0.166D+00 0.261D+00 0.480D+00
 Coeff:     -0.145D-07-0.439D-06-0.543D-07 0.364D-06 0.817D-05-0.377D-04
 Coeff:     -0.145D-03 0.611D-04 0.123D-02 0.833D-02 0.305D-01 0.540D-01
 Coeff:      0.166D+00 0.261D+00 0.480D+00
 Gap=     0.068 Goal=   None    Shift=    0.000
 RMSDP=5.13D-08 MaxDP=7.42D-06 DE=-5.36D-09 OVMax= 6.21D-06

 Cycle  16  Pass 1  IDiag  1:
 RMSU=  2.02D-08    CP:  1.15D+00  4.66D-01  6.99D-01  2.29D-01  7.81D-01
                    CP:  5.64D-01  6.14D-01  5.62D-01  4.45D-01  6.20D-01
                    CP:  7.49D-01  7.11D-01  7.39D-01  7.39D-01  8.12D-01
 E= -1836.30289604543     Delta-E=       -0.000000000391 Rises=F Damp=F
 DIIS: error= 2.82D-07 at cycle  16 NSaved=  16.
 NSaved=16 IEnMin=16 EnMin= -1836.30289604543     IErMin=16 ErrMin= 2.82D-07
 ErrMax= 2.82D-07  0.00D+00 EMaxC= 1.00D-01 BMatC= 6.79D-11 BMatP= 4.05D-10
 IDIUse=1 WtCom= 1.00D+00 WtEn= 0.00D+00
 Coeff-Com: -0.215D-05 0.271D-05 0.173D-05-0.342D-06 0.689D-05-0.288D-04
 Coeff-Com: -0.923D-04-0.600D-04 0.149D-03 0.217D-02 0.816D-02 0.160D-01
 Coeff-Com:  0.552D-01 0.109D+00 0.333D+00 0.477D+00
 Coeff:     -0.215D-05 0.271D-05 0.173D-05-0.342D-06 0.689D-05-0.288D-04
 Coeff:     -0.923D-04-0.600D-04 0.149D-03 0.217D-02 0.816D-02 0.160D-01
 Coeff:      0.552D-01 0.109D+00 0.333D+00 0.477D+00
 Gap=     0.068 Goal=   None    Shift=    0.000
 RMSDP=1.18D-08 MaxDP=1.45D-06 DE=-3.91D-10 OVMax= 2.47D-06

 Cycle  17  Pass 1  IDiag  1:
 RMSU=  7.00D-09    CP:  1.15D+00  4.66D-01  6.99D-01  2.29D-01  7.81D-01
                    CP:  5.64D-01  6.14D-01  5.62D-01  4.45D-01  6.20D-01
                    CP:  7.49D-01  7.14D-01  7.42D-01  7.20D-01  8.31D-01
                    CP:  7.01D-01
 E= -1836.30289604544     Delta-E=       -0.000000000012 Rises=F Damp=F
 DIIS: error= 5.55D-08 at cycle  17 NSaved=  17.
 NSaved=17 IEnMin=17 EnMin= -1836.30289604544     IErMin=17 ErrMin= 5.55D-08
 ErrMax= 5.55D-08  0.00D+00 EMaxC= 1.00D-01 BMatC= 4.33D-12 BMatP= 6.79D-11
 IDIUse=1 WtCom= 1.00D+00 WtEn= 0.00D+00
 Coeff-Com: -0.124D-05 0.150D-05 0.878D-06-0.154D-06 0.323D-05-0.156D-04
 Coeff-Com: -0.513D-04-0.514D-04-0.128D-04 0.731D-03 0.281D-02 0.606D-02
 Coeff-Com:  0.225D-01 0.486D-01 0.173D+00 0.289D+00 0.458D+00
 Coeff:     -0.124D-05 0.150D-05 0.878D-06-0.154D-06 0.323D-05-0.156D-04
 Coeff:     -0.513D-04-0.514D-04-0.128D-04 0.731D-03 0.281D-02 0.606D-02
 Coeff:      0.225D-01 0.486D-01 0.173D+00 0.289D+00 0.458D+00
 Gap=     0.068 Goal=   None    Shift=    0.000
 RMSDP=3.88D-09 MaxDP=4.51D-07 DE=-1.18D-11 OVMax= 4.88D-07

 Error on total polarization charges =  0.07187
 SCF Done:  E(RPBE-PBE) =  -1836.30289605     A.U. after   17 cycles
            NFock= 17  Conv=0.39D-08     -V/T= 2.0046
 KE= 1.827852854491D+03 PE=-1.385159796044D+04 EE= 5.433150606015D+03
 SMD-CDS (non-electrostatic) energy       (kcal/mol) =      -8.80
 (included in total energy above)
 Leave Link  502 at Wed Feb  2 11:14:23 2022, MaxMem=  5242880000 cpu:     19983.8
 (Enter /opt/nce/packages/global/g09/l601.exe)
 Copying SCF densities to generalized density rwf, IOpCl= 0 IROHF=0.

 **********************************************************************

            Population analysis using the SCF density.

 **********************************************************************

 Alpha  occ. eigenvalues --  -18.80328 -18.68169 -18.67875 -18.67005 -18.66414
 Alpha  occ. eigenvalues --   -9.94383  -9.94332  -9.93409  -9.92431  -9.91989
 Alpha  occ. eigenvalues --   -9.91132  -9.89214  -9.88706  -9.88608  -9.88600
 Alpha  occ. eigenvalues --   -9.88247  -9.88233  -9.88229  -9.88183  -9.87984
 Alpha  occ. eigenvalues --   -9.87894  -9.87837  -9.87812  -9.87781  -9.87746
 Alpha  occ. eigenvalues --   -9.87710  -9.87661  -9.87616  -9.87610  -9.87594
 Alpha  occ. eigenvalues --   -9.87562  -9.87555  -9.87540  -9.87518  -9.87517
 Alpha  occ. eigenvalues --   -9.87418  -9.87404  -9.87385  -9.87353  -9.87347
 Alpha  occ. eigenvalues --   -9.87209  -9.87189  -9.86387  -1.00701  -0.90771
 Alpha  occ. eigenvalues --   -0.88899  -0.88138  -0.82325  -0.78741  -0.77871
 Alpha  occ. eigenvalues --   -0.77266  -0.77071  -0.76068  -0.75840  -0.71543
 Alpha  occ. eigenvalues --   -0.70708  -0.69027  -0.67571  -0.66904  -0.66352
 Alpha  occ. eigenvalues --   -0.66297  -0.66219  -0.66001  -0.65135  -0.63140
 Alpha  occ. eigenvalues --   -0.62680  -0.57855  -0.57511  -0.55931  -0.54544
 Alpha  occ. eigenvalues --   -0.54303  -0.53369  -0.53192  -0.52976  -0.52698
 Alpha  occ. eigenvalues --   -0.52016  -0.50384  -0.49690  -0.47464  -0.46918
 Alpha  occ. eigenvalues --   -0.46821  -0.45174  -0.45118  -0.44122  -0.43419
 Alpha  occ. eigenvalues --   -0.41793  -0.41351  -0.41213  -0.40680  -0.40010
 Alpha  occ. eigenvalues --   -0.39524  -0.39120  -0.38773  -0.38500  -0.38356
 Alpha  occ. eigenvalues --   -0.37927  -0.37691  -0.37682  -0.36598  -0.36345
 Alpha  occ. eigenvalues --   -0.36106  -0.35835  -0.35644  -0.35597  -0.35530
 Alpha  occ. eigenvalues --   -0.35054  -0.34442  -0.34189  -0.33859  -0.33149
 Alpha  occ. eigenvalues --   -0.32828  -0.32614  -0.32175  -0.31907  -0.31760
 Alpha  occ. eigenvalues --   -0.31376  -0.30827  -0.30713  -0.30442  -0.29984
 Alpha  occ. eigenvalues --   -0.29439  -0.29098  -0.28595  -0.28562  -0.28484
 Alpha  occ. eigenvalues --   -0.28416  -0.28265  -0.27238  -0.26391  -0.24612
 Alpha  occ. eigenvalues --   -0.23217  -0.22696  -0.22613  -0.22374  -0.22289
 Alpha  occ. eigenvalues --   -0.21879  -0.21483  -0.21088  -0.19931  -0.19055
 Alpha  occ. eigenvalues --   -0.17800  -0.17261  -0.17195  -0.16893  -0.15925
 Alpha  occ. eigenvalues --   -0.15115
 Alpha virt. eigenvalues --   -0.08342  -0.05592  -0.04866  -0.04446  -0.03802
 Alpha virt. eigenvalues --   -0.03648  -0.03480  -0.03248  -0.02401  -0.01093
 Alpha virt. eigenvalues --    0.00042   0.00647   0.02871   0.03765   0.04379
 Alpha virt. eigenvalues --    0.04732   0.04858   0.04936   0.05286   0.05606
 Alpha virt. eigenvalues --    0.06081   0.06600   0.07087   0.07561   0.07980
 Alpha virt. eigenvalues --    0.08509   0.08671   0.09184   0.09394   0.09708
 Alpha virt. eigenvalues --    0.09878   0.10120   0.10221   0.10426   0.10770
 Alpha virt. eigenvalues --    0.11014   0.11172   0.11276   0.11782   0.11951
 Alpha virt. eigenvalues --    0.12421   0.12535   0.12652   0.13189   0.13681
 Alpha virt. eigenvalues --    0.13996   0.14160   0.14648   0.15709   0.16034
 Alpha virt. eigenvalues --    0.16710   0.16890   0.17016   0.17363   0.17520
 Alpha virt. eigenvalues --    0.17820   0.18025   0.18399   0.18478   0.18884
 Alpha virt. eigenvalues --    0.19284   0.19352   0.19507   0.19810   0.20015
 Alpha virt. eigenvalues --    0.20235   0.20347   0.20513   0.20895   0.20946
 Alpha virt. eigenvalues --    0.21256   0.21540   0.21619   0.21769   0.21987
 Alpha virt. eigenvalues --    0.22218   0.22440   0.22752   0.23085   0.23137
 Alpha virt. eigenvalues --    0.23430   0.23661   0.23896   0.23914   0.24413
 Alpha virt. eigenvalues --    0.24502   0.24909   0.25129   0.25401   0.25530
 Alpha virt. eigenvalues --    0.25584   0.25755   0.26038   0.26144   0.26437
 Alpha virt. eigenvalues --    0.26619   0.26780   0.27201   0.27365   0.27919
 Alpha virt. eigenvalues --    0.28182   0.28894   0.28970   0.29176   0.29516
 Alpha virt. eigenvalues --    0.29558   0.29740   0.30156   0.30440   0.30468
 Alpha virt. eigenvalues --    0.30961   0.31013   0.31281   0.31508   0.31600
 Alpha virt. eigenvalues --    0.32020   0.32300   0.32450   0.32936   0.33014
 Alpha virt. eigenvalues --    0.33181   0.33482   0.33585   0.33903   0.34187
 Alpha virt. eigenvalues --    0.34360   0.34689   0.34965   0.35003   0.35337
 Alpha virt. eigenvalues --    0.35419   0.35596   0.35787   0.36391   0.36720
 Alpha virt. eigenvalues --    0.37031   0.37159   0.37411   0.37790   0.37994
 Alpha virt. eigenvalues --    0.38195   0.38632   0.38721   0.38820   0.39231
 Alpha virt. eigenvalues --    0.39438   0.39747   0.39998   0.40168   0.40496
 Alpha virt. eigenvalues --    0.40636   0.40796   0.40830   0.41102   0.41272
 Alpha virt. eigenvalues --    0.41455   0.41643   0.41908   0.42168   0.42426
 Alpha virt. eigenvalues --    0.42604   0.42841   0.42939   0.43634   0.43766
 Alpha virt. eigenvalues --    0.44025   0.44323   0.44562   0.44983   0.45052
 Alpha virt. eigenvalues --    0.45306   0.45536   0.45741   0.45777   0.46055
 Alpha virt. eigenvalues --    0.46188   0.46599   0.46757   0.47096   0.47168
 Alpha virt. eigenvalues --    0.47330   0.47729   0.47906   0.48072   0.48231
 Alpha virt. eigenvalues --    0.49009   0.49251   0.49347   0.49758   0.49950
 Alpha virt. eigenvalues --    0.50210   0.50705   0.51115   0.51423   0.51783
 Alpha virt. eigenvalues --    0.52320   0.52595   0.52774   0.52975   0.53336
 Alpha virt. eigenvalues --    0.53723   0.54367   0.54405   0.54822   0.55364
 Alpha virt. eigenvalues --    0.55819   0.55913   0.56366   0.56657   0.57183
 Alpha virt. eigenvalues --    0.57456   0.57984   0.58239   0.58576   0.58891
 Alpha virt. eigenvalues --    0.59548   0.59878   0.60131   0.60206   0.60614
 Alpha virt. eigenvalues --    0.60973   0.61322   0.61927   0.62005   0.62318
 Alpha virt. eigenvalues --    0.62678   0.62758   0.63165   0.63644   0.63746
 Alpha virt. eigenvalues --    0.63967   0.64173   0.64557   0.64898   0.64966
 Alpha virt. eigenvalues --    0.65032   0.65375   0.65543   0.65897   0.66244
 Alpha virt. eigenvalues --    0.66349   0.66434   0.66871   0.67118   0.67340
 Alpha virt. eigenvalues --    0.67512   0.67855   0.68314   0.68327   0.68633
 Alpha virt. eigenvalues --    0.69091   0.69204   0.69612   0.69696   0.69908
[...]
 Alpha virt. eigenvalues --    1.89084   1.90180   1.90390   1.91013   1.91493
 Alpha virt. eigenvalues --    1.91626   1.92364   1.92564   1.93302   1.94430
 Alpha virt. eigenvalues --    1.95059   1.95975   1.96545   1.96872   1.97205
 Alpha virt. eigenvalues --    1.97785   1.98283   1.98695   1.99489   2.00010
 Alpha virt. eigenvalues --    2.00454   2.00734   2.01061   2.01846   2.01964
 Alpha virt. eigenvalues --    2.02310   2.02735   2.02846   2.03131   2.03330
 Alpha virt. eigenvalues --    2.04068   2.04175   2.04898   2.05349   2.05469
 Alpha virt. eigenvalues --    2.05905   2.06281   2.06712   2.07246   2.07831
 Alpha virt. eigenvalues --    2.08402   2.08547   2.09160   2.09672   2.09917
 Alpha virt. eigenvalues --    2.10610   2.11049   2.11546   2.11975   2.12235
 Alpha virt. eigenvalues --    2.12614   2.12938   2.14058   2.14753   2.14857
 Alpha virt. eigenvalues --    2.15353   2.16066   2.16373   2.16682   2.16976
 Alpha virt. eigenvalues --    2.17006   2.17490   2.18051   2.18718   2.18936
 Alpha virt. eigenvalues --    2.19295   2.20008   2.20216   2.21213   2.21438
 Alpha virt. eigenvalues --    2.21731   2.22738   2.23266   2.23463   2.23821
 Alpha virt. eigenvalues --    2.24378   2.25345   2.25754   2.26979   2.27266
 Alpha virt. eigenvalues --    2.27727   2.28757   2.29025   2.29273   2.30340
 Alpha virt. eigenvalues --    2.30869   2.31125   2.32472   2.33358   2.33429
 Alpha virt. eigenvalues --    2.34785   2.35823   2.36287   2.37829   2.38481
 Alpha virt. eigenvalues --    2.38955   2.39885   2.40860   2.41180   2.41644
 Alpha virt. eigenvalues --    2.41864   2.42751   2.43290   2.43565   2.44145
 Alpha virt. eigenvalues --    2.44504   2.44810   2.44979   2.45452   2.45900
 Alpha virt. eigenvalues --    2.46663   2.47400   2.48087   2.48560   2.48792
 Alpha virt. eigenvalues --    2.48973   2.49690   2.50222   2.51044   2.51475
 Alpha virt. eigenvalues --    2.51602   2.52139   2.52456   2.53306   2.53632
 Alpha virt. eigenvalues --    2.53949   2.54240   2.54837   2.55341   2.55434
 Alpha virt. eigenvalues --    2.55750   2.56482   2.56598   2.56939   2.57105
 Alpha virt. eigenvalues --    2.57320   2.57599   2.57909   2.58222   2.58312
 Alpha virt. eigenvalues --    2.58688   2.59233   2.59573   2.59627   2.59789
 Alpha virt. eigenvalues --    2.60008   2.60620   2.60708   2.60894   2.61421
 Alpha virt. eigenvalues --    2.61541   2.61734   2.62877   2.63106   2.63164
 Alpha virt. eigenvalues --    2.63692   2.63801   2.64300   2.64523   2.64766
 Alpha virt. eigenvalues --    2.65284   2.66071   2.66331   2.66694   2.67019
 Alpha virt. eigenvalues --    2.67463   2.68208   2.68386   2.68509   2.68837
 Alpha virt. eigenvalues --    2.69312   2.69650   2.69975   2.70231   2.70358
 Alpha virt. eigenvalues --    2.70919   2.71381   2.71674   2.71882   2.72090
 Alpha virt. eigenvalues --    2.72451   2.72612   2.72993   2.73156   2.74139
 Alpha virt. eigenvalues --    2.74223   2.74642   2.74849   2.75189   2.75307
 Alpha virt. eigenvalues --    2.75549   2.75733   2.76203   2.76670   2.76730
 Alpha virt. eigenvalues --    2.77144   2.77239   2.77441   2.77938   2.78326
 Alpha virt. eigenvalues --    2.78574   2.79003   2.79409   2.79657   2.80020
 Alpha virt. eigenvalues --    2.80279   2.80587   2.80789   2.81121   2.81572
 Alpha virt. eigenvalues --    2.81771   2.82396   2.82736   2.83712   2.84043
 Alpha virt. eigenvalues --    2.84329   2.84653   2.85113   2.85534   2.86123
 Alpha virt. eigenvalues --    2.86424   2.86912   2.87272   2.87630   2.88169
 Alpha virt. eigenvalues --    2.88715   2.89222   2.89816   2.89988   2.90237
 Alpha virt. eigenvalues --    2.90940   2.91399   2.91543   2.92391   2.92904
 Alpha virt. eigenvalues --    2.93236   2.93858   2.94227   2.94440   2.94696
 Alpha virt. eigenvalues --    2.95291   2.95525   2.96249   2.96615   2.97138
 Alpha virt. eigenvalues --    2.97302   2.97455   2.98277   2.98539   2.98754
 Alpha virt. eigenvalues --    2.99109   2.99439   3.00083   3.00401   3.00713
 Alpha virt. eigenvalues --    3.01154   3.01483   3.02133   3.02455   3.02520
 Alpha virt. eigenvalues --    3.02763   3.03610   3.03799   3.04042   3.04405
 Alpha virt. eigenvalues --    3.05093   3.05350   3.05549   3.05784   3.06249
 Alpha virt. eigenvalues --    3.06406   3.06747   3.06816   3.06992   3.07537
 Alpha virt. eigenvalues --    3.07710   3.07985   3.08358   3.08530   3.08928
 Alpha virt. eigenvalues --    3.09198   3.09460   3.10003   3.10136   3.10247
 Alpha virt. eigenvalues --    3.10580   3.10832   3.11118   3.11353   3.11922
 Alpha virt. eigenvalues --    3.12075   3.12864   3.13390   3.13504   3.14046
 Alpha virt. eigenvalues --    3.14411   3.14596   3.14734   3.15301   3.15596
 Alpha virt. eigenvalues --    3.15783   3.16160   3.16574   3.17079   3.17152
 Alpha virt. eigenvalues --    3.17580   3.18221   3.18712   3.18887   3.19253
 Alpha virt. eigenvalues --    3.19732   3.19969   3.20121   3.20449   3.20806
 Alpha virt. eigenvalues --    3.20864   3.21556   3.22009   3.22385   3.22727
 Alpha virt. eigenvalues --    3.22787   3.23245   3.23838   3.24283   3.24726
 Alpha virt. eigenvalues --    3.25438   3.25666   3.25685   3.25960   3.25985
 Alpha virt. eigenvalues --    3.26510   3.26834   3.27260   3.27319   3.27496
 Alpha virt. eigenvalues --    3.28140   3.28346   3.28569   3.28640   3.29109
 Alpha virt. eigenvalues --    3.29498   3.29608   3.30239   3.30351   3.30653
 Alpha virt. eigenvalues --    3.30954   3.31313   3.31767   3.31933   3.32232
 Alpha virt. eigenvalues --    3.32499   3.32982   3.33072   3.33488   3.33877
 Alpha virt. eigenvalues --    3.34390   3.34855   3.35274   3.35625   3.35799
 Alpha virt. eigenvalues --    3.36317   3.36664   3.36743   3.36952   3.37213
 Alpha virt. eigenvalues --    3.37289   3.38136   3.38578   3.38648   3.38878
 Alpha virt. eigenvalues --    3.39018   3.39207   3.39744   3.39873   3.40225
 Alpha virt. eigenvalues --    3.40571   3.41016   3.41305   3.41818   3.42209
 Alpha virt. eigenvalues --    3.42291   3.42681   3.42824   3.43070   3.43776
 Alpha virt. eigenvalues --    3.43966   3.44379   3.44683   3.44805   3.45106
 Alpha virt. eigenvalues --    3.45277   3.45414   3.45557   3.46080   3.46410
 Alpha virt. eigenvalues --    3.46686   3.46840   3.47398   3.47539   3.47785
 Alpha virt. eigenvalues --    3.48172   3.48475   3.48749   3.48906   3.49671
 Alpha virt. eigenvalues --    3.50691   3.50929   3.51506   3.51867   3.52138
 Alpha virt. eigenvalues --    3.53259   3.53376   3.54100   3.54563   3.54802
 Alpha virt. eigenvalues --    3.55549   3.55919   3.56151   3.56317   3.56711
 Alpha virt. eigenvalues --    3.57801   3.58280   3.58766   3.59075   3.59582
 Alpha virt. eigenvalues --    3.60175   3.60894   3.61040   3.61956   3.62593
 Alpha virt. eigenvalues --    3.63433   3.63970   3.64138   3.64458   3.64864
 Alpha virt. eigenvalues --    3.65376   3.65955   3.66725   3.67025   3.68007
 Alpha virt. eigenvalues --    3.68418   3.69371   3.70232   3.70867   3.72101
 Alpha virt. eigenvalues --    3.72657   3.72846   3.73182   3.73857   3.74857
 Alpha virt. eigenvalues --    3.75426   3.75621   3.77027   3.78161   3.78721
 Alpha virt. eigenvalues --    3.78895   3.79887   3.80287   3.80905   3.82354
 Alpha virt. eigenvalues --    3.82769   3.83904   3.84918   3.85690   3.86077
 Alpha virt. eigenvalues --    3.86095   3.86658   3.87099   3.87836   3.88134
 Alpha virt. eigenvalues --    3.88507   3.89464   3.89935   3.90313   3.90650
 Alpha virt. eigenvalues --    3.91243   3.91671   3.92613   3.93215   3.94332
 Alpha virt. eigenvalues --    3.94592   3.95340   3.95719   3.96465   3.97170
 Alpha virt. eigenvalues --    3.97828   3.98237   3.98564   3.99418   3.99847
 Alpha virt. eigenvalues --    4.00284   4.01098   4.01308   4.02694   4.03428
 Alpha virt. eigenvalues --    4.03694   4.04473   4.04695   4.05578   4.05696
 Alpha virt. eigenvalues --    4.05977   4.06132   4.06932   4.07223   4.07541
 Alpha virt. eigenvalues --    4.07866   4.09128   4.09700   4.10092   4.10870
 Alpha virt. eigenvalues --    4.11612   4.11992   4.12591   4.12865   4.13323
 Alpha virt. eigenvalues --    4.13738   4.13896   4.14107   4.14518   4.14671
 Alpha virt. eigenvalues --    4.15604   4.15666   4.16242   4.16655   4.17000
 Alpha virt. eigenvalues --    4.17483   4.17662   4.17925   4.18406   4.18516
 Alpha virt. eigenvalues --    4.19184   4.19876   4.19991   4.20493   4.20599
 Alpha virt. eigenvalues --    4.21068   4.21200   4.22155   4.22515   4.23891
 Alpha virt. eigenvalues --    4.24370   4.24582   4.25544   4.25849   4.26227
 Alpha virt. eigenvalues --    4.26734   4.27666   4.28157   4.30442   4.30859
 Alpha virt. eigenvalues --    4.31702   4.32569   4.33536   4.34392   4.35480
 Alpha virt. eigenvalues --    4.36367   4.37362   4.38181   4.39242   4.40265
 Alpha virt. eigenvalues --    4.40577   4.41779   4.42272   4.42880   4.44505
 Alpha virt. eigenvalues --    4.45028   4.46254   4.47099   4.47335   4.49486
 Alpha virt. eigenvalues --    4.51928   4.52828   4.53951   4.55152   4.55588
 Alpha virt. eigenvalues --    4.56095   4.56448   4.57609   4.57964   4.58809
 Alpha virt. eigenvalues --    4.59511   4.60384   4.61091   4.61507   4.62147
 Alpha virt. eigenvalues --    4.63084   4.63940   4.64620   4.65389   4.66350
 Alpha virt. eigenvalues --    4.66869   4.68577   4.69397   4.69581   4.69990
 Alpha virt. eigenvalues --    4.70405   4.72346   4.73477   4.75145   4.77075
 Alpha virt. eigenvalues --    4.77513   4.77858   4.78717   4.79240   4.80990
 Alpha virt. eigenvalues --    4.82145   4.83315   4.84733   4.85326   4.86674
 Alpha virt. eigenvalues --    4.87264   4.88440   4.90698   4.92110   4.92762
 Alpha virt. eigenvalues --    4.95455   4.96984   4.98878   4.99780   5.02638
 Alpha virt. eigenvalues --    5.04495   5.04998   5.05768   5.07139   5.08289
 Alpha virt. eigenvalues --    5.09065   5.10104   5.11344   5.11667   5.11789
 Alpha virt. eigenvalues --    5.12518   5.12987   5.12997   5.13416   5.13707
 Alpha virt. eigenvalues --    5.14147   5.14321   5.14894   5.15160   5.16523
 Alpha virt. eigenvalues --    5.16907   5.17286   5.18919   5.20788   5.22822
 Alpha virt. eigenvalues --    5.26195   5.26633   5.29876   5.30856   5.32529
 Alpha virt. eigenvalues --    5.33870   5.35360   5.36596   5.37349   5.38190
 Alpha virt. eigenvalues --    5.38933   5.41491   5.43768   5.44873   5.45386
 Alpha virt. eigenvalues --    5.47540   5.47651   5.48671   5.49206   5.50541
 Alpha virt. eigenvalues --    5.51941   5.54866   5.56403   5.58398   5.58713
 Alpha virt. eigenvalues --    5.59581   5.62194   5.63179   5.67003   5.67653
 Alpha virt. eigenvalues --    5.70854   5.71679   5.75425   5.77642   5.78424
 Alpha virt. eigenvalues --    5.82350   5.85667   5.96890   5.98622   5.99101
 Alpha virt. eigenvalues --    6.06234   6.07933   6.15737   6.28099   6.31146
 Alpha virt. eigenvalues --    6.31597   6.31992   6.32513   6.33980   6.34599
 Alpha virt. eigenvalues --    6.39292   6.42849   6.46058   6.49956   6.52784
 Alpha virt. eigenvalues --    6.55668   6.58823   6.61853   6.66380   6.73261
 Alpha virt. eigenvalues --    6.73801   6.76012   6.79195   6.82450   6.83270
 Alpha virt. eigenvalues --    6.85387   6.87674   6.98476   7.00862   7.03287
 Alpha virt. eigenvalues --    7.03540   7.07712   7.08960   7.18473   7.37890
 Alpha virt. eigenvalues --    7.42361  21.82800  21.93641  21.98298  22.04246
 Alpha virt. eigenvalues --   22.22770  22.30213  22.30599  22.32354  22.33559
 Alpha virt. eigenvalues --   22.34019  22.34791  22.37455  22.41231  22.44134
 Alpha virt. eigenvalues --   22.47174  22.50941  22.52205  22.53938  22.54597
 Alpha virt. eigenvalues --   22.54616  22.55892  22.58057  22.62986  22.69666
 Alpha virt. eigenvalues --   22.77776  22.78903  22.83539  22.86501  22.89101
 Alpha virt. eigenvalues --   22.94254  22.95964  22.96974  23.04841  23.07700
 Alpha virt. eigenvalues --   23.22216  23.33518  23.48455  23.57517  43.62489
 Alpha virt. eigenvalues --   43.62726  43.65204  43.72453  44.28110
          Condensed to atoms (all electrons):
 Mulliken charges:
               1
     1  C    0.164802
     2  C   -0.062428
     3  C    0.173290
     4  C    0.065595
     5  C   -0.240926
     6  C   -0.296223
     7  C    0.326562
     8  C    0.099630
     9  C    0.137099
    10  C    0.019561
    11  C    0.062424
    12  C    0.070294
    13  C   -0.316530
    14  H    0.143074
    15  H    0.096390
    16  H    0.155313
    17  O   -0.132991
    18  O   -0.407924
    19  O   -0.424585
    20  C    0.017307
    21  C   -0.303886
    22  C   -0.076079
    23  C   -0.133626
    24  H    0.129669
    25  C   -0.214497
    26  C   -0.161454
    27  H    0.138690
    28  H    0.124317
    29  H    0.136890
    30  C    0.134472
    31  O   -0.453314
    32  O   -0.453281
    33  C    0.111293
    34  C   -0.238108
    35  C   -0.212241
    36  C   -0.151905
    37  H    0.120056
    38  C   -0.132258
    39  H    0.123958
    40  C   -0.158013
    41  H    0.135627
    42  H    0.131106
    43  H    0.136607
    44  C    0.054776
    45  C   -0.221176
    46  C   -0.242832
    47  C   -0.134537
    48  H    0.126196
    49  C   -0.154664
    50  H    0.121427
    51  C   -0.154476
    52  H    0.131894
    53  H    0.135391
    54  H    0.136616
    55  C    0.079219
    56  C   -0.240656
    57  C   -0.221194
    58  C   -0.164828
    59  H    0.142126
    60  C   -0.148039
    61  H    0.116153
    62  C   -0.153216
    63  H    0.134988
    64  H    0.135285
    65  H    0.137790
 Sum of Mulliken charges =  -2.00000
 Mulliken charges with hydrogens summed into heavy atoms:
               1
     1  C    0.164802
     2  C   -0.062428
     3  C    0.173290
     4  C    0.065595
     5  C   -0.097851
     6  C   -0.199833
     7  C    0.326562
     8  C    0.099630
     9  C    0.137099
    10  C    0.019561
    11  C    0.062424
    12  C    0.070294
    13  C   -0.161217
    17  O   -0.132991
    18  O   -0.407924
    19  O   -0.424585
    20  C    0.017307
    21  C   -0.174218
    22  C   -0.076079
    23  C    0.005065
    25  C   -0.090181
    26  C   -0.024564
    30  C    0.134472
    31  O   -0.453314
    32  O   -0.453281
    33  C    0.111293
    34  C   -0.118052
    35  C   -0.088283
    36  C   -0.016278
    38  C   -0.001151
    40  C   -0.021406
    44  C    0.054776
    45  C   -0.094980
    46  C   -0.121406
    47  C   -0.002643
    49  C   -0.019273
    51  C   -0.017860
    55  C    0.079219
    56  C   -0.098530
    57  C   -0.105041
    58  C   -0.029840
    60  C   -0.012754
    62  C   -0.015425
 Electronic spatial extent (au):  <R**2>=          22527.8074
 Charge=             -2.0000 electrons
 Dipole moment (field-independent basis, Debye):
    X=              2.8672    Y=              5.1371    Z=            -10.4803  Tot=             12.0187
 Quadrupole moment (field-independent basis, Debye-Ang):
   XX=           -341.6591   YY=           -321.0673   ZZ=           -274.9030
   XY=             43.0009   XZ=             33.3205   YZ=              9.1082
 Traceless Quadrupole moment (field-independent basis, Debye-Ang):
   XX=            -29.1160   YY=             -8.5241   ZZ=             37.6401
   XY=             43.0009   XZ=             33.3205   YZ=              9.1082
 Octapole moment (field-independent basis, Debye-Ang**2):
  XXX=           -103.3275  YYY=              0.5055  ZZZ=            -70.2344  XYY=            -85.4428
  XXY=            223.9829  XXZ=            -18.1308  XZZ=             90.8578  YZZ=             41.8232
  YYZ=            -85.8521  XYZ=            -54.3339
 Hexadecapole moment (field-independent basis, Debye-Ang**3):
 XXXX=         -19810.0905 YYYY=         -12265.5285 ZZZZ=          -1780.3963 XXXY=           1063.6353
 XXXZ=            519.7630 YYYX=            788.9731 YYYZ=           -134.8626 ZZZX=            192.4953
 ZZZY=            126.9588 XXYY=          -5476.9587 XXZZ=          -3637.3426 YYZZ=          -2201.3547
 XXYZ=            -25.2468 YYXZ=            181.4114 ZZXY=            -30.2956
 N-N= 4.764739776103D+03 E-N=-1.387335163563D+04  KE= 1.827871453835D+03
 Leave Link  601 at Thu Feb  3 19:00:54 2022, MaxMem=  5242880000 cpu:         9.1
 (Enter /opt/nce/packages/global/g09/l9999.exe)
 1\1\GINC-CN018\SP\RPBEPBE TD-FC\Gen\C38H22O5(2-)\PNG4RJV\03-Feb-2022\0
 \\#p PBEPBE chkbasis geom=allcheck Guess=Read int=ultrafine scrf=(SMD,
 solvent=Acetonitrile) td=(NStates=30) EmpiricalDispersion=GD3BJ\\Title
 \\-2,1\C,0,-5.0568141218,-2.4767032895,1.4046845261\C,0,-3.6671641357,
 -2.1348335901,1.1037265631\C,0,-3.4039741214,-1.0975286804,0.217718597
 5\C,0,-4.4155024392,-0.3513513164,-0.4638421644\C,0,-5.7682799398,-0.6
 858589571,-0.1554258815\C,0,-6.0729042684,-1.6853277155,0.7265757113\C
 ,0,-4.0396178833,0.6751627545,-1.3556524354\C,0,-2.6701269492,0.966195
 0503,-1.5409737641\C,0,-1.6918937094,0.243094501,-0.7965677992\C,0,-0.
 3311523535,0.4891199586,-0.8891389341\C,0,0.1636918984,1.5228707845,-1
 .7956141285\C,0,-0.8486398391,2.2571713424,-2.5783578919\C,0,-2.185508
 5123,1.9553249018,-2.4350939751\H,0,-6.5645042332,-0.1151775235,-0.636
 1172786\H,0,-7.113329305,-1.9267792863,0.9575973662\H,0,-2.917611537,2
 .4955490919,-3.0353276079\O,0,-2.0838971565,-0.7744607044,0.0329158338
 \O,0,1.393580446,1.7863568957,-1.8790247102\O,0,-5.3744325445,-3.40449
 95158,2.2001876137\C,0,-5.068264623,1.4069544431,-2.1402783439\C,0,-5.
 8077793717,0.6938512108,-3.0997350479\C,0,-5.2875779219,2.7936832088,-
 1.9832324205\C,0,-6.7743359211,1.3268003728,-3.8820957172\H,0,-5.61116
 66455,-0.3721207247,-3.2342505029\C,0,-6.2500454224,3.417295337,-2.792
 0481266\C,0,-7.001687948,2.6968479349,-3.7208002172\H,0,-7.3417057081,
 0.7527367768,-4.6171798523\H,0,-6.4021281304,4.4928502141,-2.678914138
 3\H,0,-7.7581503847,3.2036900361,-4.3241366229\C,0,-4.5336974179,3.630
 3756347,-0.9470236733\O,0,-4.0164851111,4.702285487,-1.3757346798\O,0,
 -4.5279514871,3.1830944248,0.232739176\C,0,-2.5686972784,-2.8905526222
 ,1.7491730738\C,0,-2.5285637193,-3.042801951,3.1467055272\C,0,-1.54536
 60446,-3.4860083424,0.9891751067\C,0,-1.4941774772,-3.751219738,3.7623
 326477\H,0,-3.316278533,-2.5931876637,3.7521055442\C,0,-0.5133164069,-
 4.1980209526,1.6022144165\H,0,-1.5605115257,-3.3883689039,-0.097701365
 3\C,0,-0.4810286349,-4.3322686107,2.9935071862\H,0,-1.4786074837,-3.84
 80060484,4.8502645076\H,0,0.2723858979,-4.6453797619,0.9896597973\H,0,
 0.3290207108,-4.8836117917,3.4752102238\C,0,0.6358499664,-0.2742618703
 ,-0.0642581908\C,0,0.5247914054,-0.3077431361,1.3368536878\C,0,1.69131
 01134,-0.9835578563,-0.6630521401\C,0,1.4303736684,-1.0327074211,2.113
 5384511\H,0,-0.2843923994,0.241325716,1.8217787553\C,0,2.5961874065,-1
 .7128986727,0.1116113246\H,0,1.7950692213,-0.9657581522,-1.7488599675\
 C,0,2.4700789684,-1.7409898915,1.5040009489\H,0,1.3192372614,-1.048403
 8173,3.1998493246\H,0,3.4037224519,-2.2639148369,-0.3756254087\H,0,3.1
 756189565,-2.3134947497,2.1095507448\C,0,-0.4541822838,3.3524053062,-3
 .4896672244\C,0,-1.270055704,4.4984992931,-3.59922292\C,0,0.7091269456
 ,3.2898508602,-4.2827353769\C,0,-0.9405000368,5.5335140257,-4.47581606
 43\H,0,-2.1654956996,4.5805434819,-2.974414775\C,0,1.0339806773,4.3262
 784476,-5.1601723982\H,0,1.3553660252,2.4169345803,-4.2055429408\C,0,0
 .2136149271,5.4544370946,-5.2618582232\H,0,-1.5857104012,6.4129982539,
 -4.5377601333\H,0,1.9360293273,4.2510413521,-5.7718861111\H,0,0.473834
 4957,6.2663393212,-5.9441345026\\Version=ES64L-G09RevE.01\State=1-A\HF
 =-1836.3086752\RMSD=1.018e-09\PG=C01 [X(C38H22O5)]\\@


 FIREWORKS ENDED
 AND SPECTATORS GONE AWAY....
 AH, HOW VAST AND DARK
                     SHIKI
 Job cpu time:       4 days  2 hours 10 minutes  4.7 seconds.
 File lengths (MBytes):  RWF=   9298 Int=      0 D2E=      0 Chk=   1912 Scr=      1
 Normal termination of Gaussian 09 at Thu Feb  3 19:00:57 2022.
