 Entering Gaussian System, Link 0=g09
 Input=/home/png4rjv/fotokatalizis/benchmark/OPCs/POZ_1_M06L_def2TZVP.gjf
 Output=/home/png4rjv/fotokatalizis/benchmark/OPCs/POZ_1_M06L_def2TZVP.log
 Initial command:
 /opt/nce/packages/global/g09/l1.exe "/home/png4rjv/fotokatalizis/benchmark/OPCs/POZ_1_M06L_def2TZVP/Gau-36895.inp" -scrdir="/home/png4rjv/fotokatalizis/benchmark/OPCs/POZ_1_M06L_def2TZVP/"
 Default is to use a total of  12 processors:
                               12 via shared-memory
                                1 via Linda
 Entering Link 1 = /opt/nce/packages/global/g09/l1.exe PID=     36896.
  
 Copyright (c) 1988,1990,1992,1993,1995,1998,2003,2009,2015,
            Gaussian, Inc.  All Rights Reserved.
  
 This is part of the Gaussian(R) 09 program.  It is based on
 the Gaussian(R) 03 system (copyright 2003, Gaussian, Inc.),
 the Gaussian(R) 98 system (copyright 1998, Gaussian, Inc.),
 the Gaussian(R) 94 system (copyright 1995, Gaussian, Inc.),
 the Gaussian 92(TM) system (copyright 1992, Gaussian, Inc.),
 the Gaussian 90(TM) system (copyright 1990, Gaussian, Inc.),
 the Gaussian 88(TM) system (copyright 1988, Gaussian, Inc.),
 the Gaussian 86(TM) system (copyright 1986, Carnegie Mellon
 University), and the Gaussian 82(TM) system (copyright 1983,
 Carnegie Mellon University). Gaussian is a federally registered
 trademark of Gaussian, Inc.
  
 This software contains proprietary and confidential information,
 including trade secrets, belonging to Gaussian, Inc.
  
 This software is provided under written license and may be
 used, copied, transmitted, or stored only in accord with that
 written license.
  
 The following legend is applicable only to US Government
 contracts under FAR:
  
                    RESTRICTED RIGHTS LEGEND
  
 Use, reproduction and disclosure by the US Government is
 subject to restrictions as set forth in subparagraphs (a)
 and (c) of the Commercial Computer Software - Restricted
 Rights clause in FAR 52.227-19.
  
 Gaussian, Inc.
 340 Quinnipiac St., Bldg. 40, Wallingford CT 06492
  
  
 ---------------------------------------------------------------
 Warning -- This program may not be used in any manner that
 competes with the business of Gaussian, Inc. or will provide
 assistance to any competitor of Gaussian, Inc.  The licensee
 of this program is prohibited from giving any competitor of
 Gaussian, Inc. access to this program.  By using this program,
 the user acknowledges that Gaussian, Inc. is engaged in the
 business of creating and licensing software in the field of
 computational chemistry and represents and warrants to the
 licensee that it is not a competitor of Gaussian, Inc. and that
 it will not use this program in any manner prohibited above.
 ---------------------------------------------------------------
  

 Cite this work as:
 Gaussian 09, Revision E.01,
 M. J. Frisch, G. W. Trucks, H. B. Schlegel, G. E. Scuseria, 
 M. A. Robb, J. R. Cheeseman, G. Scalmani, V. Barone, B. Mennucci, 
 G. A. Petersson, H. Nakatsuji, M. Caricato, X. Li, H. P. Hratchian, 
 A. F. Izmaylov, J. Bloino, G. Zheng, J. L. Sonnenberg, M. Hada, 
 M. Ehara, K. Toyota, R. Fukuda, J. Hasegawa, M. Ishida, T. Nakajima, 
 Y. Honda, O. Kitao, H. Nakai, T. Vreven, J. A. Montgomery, Jr., 
 J. E. Peralta, F. Ogliaro, M. Bearpark, J. J. Heyd, E. Brothers, 
 K. N. Kudin, V. N. Staroverov, T. Keith, R. Kobayashi, J. Normand, 
 K. Raghavachari, A. Rendell, J. C. Burant, S. S. Iyengar, J. Tomasi, 
 M. Cossi, N. Rega, J. M. Millam, M. Klene, J. E. Knox, J. B. Cross, 
 V. Bakken, C. Adamo, J. Jaramillo, R. Gomperts, R. E. Stratmann, 
 O. Yazyev, A. J. Austin, R. Cammi, C. Pomelli, J. W. Ochterski, 
 R. L. Martin, K. Morokuma, V. G. Zakrzewski, G. A. Voth, 
 P. Salvador, J. J. Dannenberg, S. Dapprich, A. D. Daniels, 
 O. Farkas, J. B. Foresman, J. V. Ortiz, J. Cioslowski, 
 and D. J. Fox, Gaussian, Inc., Wallingford CT, 2013.
 
 ******************************************
 Gaussian 09:  ES64L-G09RevE.01 30-Nov-2015
                17-Feb-2021 
 ******************************************
 %chk=cp.chk
 Default route:  MaxDisk=500GB
 ----------------------------------------------------------------------
 #p m06l/def2TZVP opt freq=noraman nosymm int=ultrafine scrf=(SMD,solve
 nt=n,n-DiMethylAcetamide)
 ----------------------------------------------------------------------
 1/14=-1,18=20,19=15,26=4,38=1/1,3;
 2/9=110,12=2,15=1,17=6,18=5,40=1/2;
 3/5=44,7=101,11=2,16=1,25=1,30=1,70=32201,71=1,72=147,74=-53,75=-5/1,2,3;
 4//1;
 5/5=2,38=5,53=147/2;
 6/7=2,8=2,9=2,10=2,28=1/1;
 7/30=1/1,2,3,16;
 1/14=-1,18=20,19=15,26=4/3(2);
 2/9=110,15=1/2;
 99//99;
 2/9=110,15=1/2;
 3/5=44,7=101,11=2,16=1,25=1,30=1,70=32205,71=1,72=147,74=-53,75=-5/1,2,3;
 4/5=5,16=3,69=1/1;
 5/5=2,38=5,53=147/2;
 7/30=1/1,2,3,16;
 1/14=-1,18=20,19=15,26=4/3(-5);
 2/9=110,15=1/2;
 6/7=2,8=2,9=2,10=2,19=2,28=1/1;
 99/9=1/99;
 Leave Link    1 at Wed Feb 17 07:43:24 2021, MaxMem=           0 cpu:         2.0
 (Enter /opt/nce/packages/global/g09/l101.exe)
 -----
 Title
 -----
 Symbolic Z-matrix:
 Charge =  0 Multiplicity = 1
 C                     3.63931   1.46833  -0.45096 
 C                     2.45979   2.20632  -0.57146 
 C                     1.21177   1.57309  -0.56485 
 C                     1.18429   0.17011  -0.42378 
 C                     2.35664  -0.55944  -0.3016 
 C                     3.61658   0.07274  -0.31506 
 C                    -1.18293   0.16955  -0.44037 
 C                    -1.20885   1.57353  -0.57132 
 C                    -2.45623   2.20801  -0.57654 
 H                    -2.50011   3.29149  -0.68517 
 C                    -3.63657   1.47087  -0.45849 
 C                    -3.61521   0.07471  -0.32893 
 C                    -2.35613  -0.55928  -0.32169 
 H                     2.50401   3.29128  -0.66405 
 H                     2.26783  -1.64343  -0.22306 
 H                    -4.59081   1.99845  -0.49598 
 N                     0.00193   2.27204  -0.68633 
 C                     0.00243   3.69555  -0.78709 
 C                     0.00076   4.48094   0.40634 
 C                     0.0044    4.2966   -2.02885 
 C                    -0.00103   3.89656   1.70152 
 C                     0.00115   5.91008   0.28412 
 C                     0.00473   5.70761  -2.14369 
 H                     0.0055    3.66584  -2.91959 
 C                    -0.00236   4.69146   2.82777 
 H                    -0.00118   2.80976   1.79069 
 C                    -0.00037   6.69836   1.46803 
 C                     0.00312   6.49461  -1.01231 
 H                     0.00619   6.16655  -3.13468 
 C                    -0.00206   6.1042    2.71154 
 H                    -0.00347   4.23118   3.81843 
 H                    -0.00003   7.78717   1.37311 
 H                     0.00336   7.58425  -1.0963 
 H                    -0.00301   6.72073   3.61337 
 H                    -2.26666  -1.63902  -0.19824 
 H                     4.59167   2.00034  -0.43413 
 C                     4.86335  -0.71432  -0.18295 
 C                     4.90746  -1.89371   0.58319 
 C                     6.05251  -0.31157  -0.81834 
 C                     6.08156  -2.63144   0.70928 
 H                     4.0093   -2.23155   1.104 
 C                     7.22669  -1.04875  -0.69114 
 H                     6.05325   0.58746  -1.43781 
 C                     7.27013  -2.22687   0.07579 
 H                     6.07245  -3.55048   1.29894 
 H                     8.13395  -0.69523  -1.18545 
 C                     8.5205   -3.01236   0.21046 
 C                     8.83777  -3.66844   1.41423 
 C                     9.42522  -3.12374  -0.86157 
 C                     10.01434  -4.40782   1.54145 
 H                     8.16468  -3.57619   2.26913 
 C                     10.60235  -3.86234  -0.73498 
 H                     9.1894   -2.64559  -1.81454 
 C                     10.90307  -4.50849   0.46738 
 H                     10.24282  -4.90161   2.48922 
 H                     11.28525  -3.94116  -1.58453 
 H                     11.82445  -5.08716   0.56672 
 C                    -4.86302  -0.71245  -0.20811 
 C                    -4.96166  -2.01397  -0.73357 
 C                    -5.99833  -0.18785   0.43679 
 C                    -6.13678  -2.75242  -0.6218 
 H                    -4.10716  -2.45058  -1.25444 
 C                    -7.17354  -0.92605   0.54752 
 H                    -5.95426   0.8113    0.87475 
 C                    -7.27169  -2.22649   0.02091 
 H                    -6.16992  -3.76558  -1.0278 
 H                    -8.03936  -0.47881   1.04025 
 C                    -8.52313  -3.01287   0.13948 
 C                    -8.93438  -3.87942  -0.89014 
 C                    -9.33487  -2.91467   1.28472 
 C                    -10.11197  -4.6198   -0.77905 
 H                    -8.33524  -3.95388  -1.80002 
 C                    -10.51295  -3.65418   1.39633 
 H                    -9.0243   -2.26888   2.10869 
 C                    -10.90766  -4.5109    0.3649 
 H                    -10.41472  -5.27987  -1.59571 
 H                    -11.12239  -3.56739   2.2993 
 H                    -11.8298  -5.09029   0.4521 
 O                     0.00072  -0.52812  -0.42269 
 
 NAtoms=     79 NQM=       79 NQMF=       0 NMMI=      0 NMMIF=      0
                NMic=       0 NMicF=      0.
                    Isotopes and Nuclear Properties:
 (Nuclear quadrupole moments (NQMom) in fm**2, nuclear magnetic moments (NMagM)
  in nuclear magnetons)

  Atom         1           2           3           4           5           6           7           8           9          10
 IAtWgt=          12          12          12          12          12          12          12          12          12           1
 AtmWgt=  12.0000000  12.0000000  12.0000000  12.0000000  12.0000000  12.0000000  12.0000000  12.0000000  12.0000000   1.0078250
 NucSpn=           0           0           0           0           0           0           0           0           0           1
 AtZEff=   0.0000000   0.0000000   0.0000000   0.0000000   0.0000000   0.0000000   0.0000000   0.0000000   0.0000000   0.0000000
 NQMom=    0.0000000   0.0000000   0.0000000   0.0000000   0.0000000   0.0000000   0.0000000   0.0000000   0.0000000   0.0000000
 NMagM=    0.0000000   0.0000000   0.0000000   0.0000000   0.0000000   0.0000000   0.0000000   0.0000000   0.0000000   2.7928460
 AtZNuc=   6.0000000   6.0000000   6.0000000   6.0000000   6.0000000   6.0000000   6.0000000   6.0000000   6.0000000   1.0000000

  Atom        11          12          13          14          15          16          17          18          19          20
 IAtWgt=          12          12          12           1           1           1          14          12          12          12
 AtmWgt=  12.0000000  12.0000000  12.0000000   1.0078250   1.0078250   1.0078250  14.0030740  12.0000000  12.0000000  12.0000000
 NucSpn=           0           0           0           1           1           1           2           0           0           0
 AtZEff=   0.0000000   0.0000000   0.0000000   0.0000000   0.0000000   0.0000000   0.0000000   0.0000000   0.0000000   0.0000000
 NQMom=    0.0000000   0.0000000   0.0000000   0.0000000   0.0000000   0.0000000   2.0440000   0.0000000   0.0000000   0.0000000
 NMagM=    0.0000000   0.0000000   0.0000000   2.7928460   2.7928460   2.7928460   0.4037610   0.0000000   0.0000000   0.0000000
 AtZNuc=   6.0000000   6.0000000   6.0000000   1.0000000   1.0000000   1.0000000   7.0000000   6.0000000   6.0000000   6.0000000

  Atom        21          22          23          24          25          26          27          28          29          30
 IAtWgt=          12          12          12           1          12           1          12          12           1          12
 AtmWgt=  12.0000000  12.0000000  12.0000000   1.0078250  12.0000000   1.0078250  12.0000000  12.0000000   1.0078250  12.0000000
 NucSpn=           0           0           0           1           0           1           0           0           1           0
 AtZEff=   0.0000000   0.0000000   0.0000000   0.0000000   0.0000000   0.0000000   0.0000000   0.0000000   0.0000000   0.0000000
 NQMom=    0.0000000   0.0000000   0.0000000   0.0000000   0.0000000   0.0000000   0.0000000   0.0000000   0.0000000   0.0000000
 NMagM=    0.0000000   0.0000000   0.0000000   2.7928460   0.0000000   2.7928460   0.0000000   0.0000000   2.7928460   0.0000000
 AtZNuc=   6.0000000   6.0000000   6.0000000   1.0000000   6.0000000   1.0000000   6.0000000   6.0000000   1.0000000   6.0000000

  Atom        31          32          33          34          35          36          37          38          39          40
 IAtWgt=           1           1           1           1           1           1          12          12          12          12
 AtmWgt=   1.0078250   1.0078250   1.0078250   1.0078250   1.0078250   1.0078250  12.0000000  12.0000000  12.0000000  12.0000000
 NucSpn=           1           1           1           1           1           1           0           0           0           0
 AtZEff=   0.0000000   0.0000000   0.0000000   0.0000000   0.0000000   0.0000000   0.0000000   0.0000000   0.0000000   0.0000000
 NQMom=    0.0000000   0.0000000   0.0000000   0.0000000   0.0000000   0.0000000   0.0000000   0.0000000   0.0000000   0.0000000
 NMagM=    2.7928460   2.7928460   2.7928460   2.7928460   2.7928460   2.7928460   0.0000000   0.0000000   0.0000000   0.0000000
 AtZNuc=   1.0000000   1.0000000   1.0000000   1.0000000   1.0000000   1.0000000   6.0000000   6.0000000   6.0000000   6.0000000

  Atom        41          42          43          44          45          46          47          48          49          50
 IAtWgt=           1          12           1          12           1           1          12          12          12          12
 AtmWgt=   1.0078250  12.0000000   1.0078250  12.0000000   1.0078250   1.0078250  12.0000000  12.0000000  12.0000000  12.0000000
 NucSpn=           1           0           1           0           1           1           0           0           0           0
 AtZEff=   0.0000000   0.0000000   0.0000000   0.0000000   0.0000000   0.0000000   0.0000000   0.0000000   0.0000000   0.0000000
 NQMom=    0.0000000   0.0000000   0.0000000   0.0000000   0.0000000   0.0000000   0.0000000   0.0000000   0.0000000   0.0000000
 NMagM=    2.7928460   0.0000000   2.7928460   0.0000000   2.7928460   2.7928460   0.0000000   0.0000000   0.0000000   0.0000000
 AtZNuc=   1.0000000   6.0000000   1.0000000   6.0000000   1.0000000   1.0000000   6.0000000   6.0000000   6.0000000   6.0000000

  Atom        51          52          53          54          55          56          57          58          59          60
 IAtWgt=           1          12           1          12           1           1           1          12          12          12
 AtmWgt=   1.0078250  12.0000000   1.0078250  12.0000000   1.0078250   1.0078250   1.0078250  12.0000000  12.0000000  12.0000000
 NucSpn=           1           0           1           0           1           1           1           0           0           0
 AtZEff=   0.0000000   0.0000000   0.0000000   0.0000000   0.0000000   0.0000000   0.0000000   0.0000000   0.0000000   0.0000000
 NQMom=    0.0000000   0.0000000   0.0000000   0.0000000   0.0000000   0.0000000   0.0000000   0.0000000   0.0000000   0.0000000
 NMagM=    2.7928460   0.0000000   2.7928460   0.0000000   2.7928460   2.7928460   2.7928460   0.0000000   0.0000000   0.0000000
 AtZNuc=   1.0000000   6.0000000   1.0000000   6.0000000   1.0000000   1.0000000   1.0000000   6.0000000   6.0000000   6.0000000

  Atom        61          62          63          64          65          66          67          68          69          70
 IAtWgt=          12           1          12           1          12           1           1          12          12          12
 AtmWgt=  12.0000000   1.0078250  12.0000000   1.0078250  12.0000000   1.0078250   1.0078250  12.0000000  12.0000000  12.0000000
 NucSpn=           0           1           0           1           0           1           1           0           0           0
 AtZEff=   0.0000000   0.0000000   0.0000000   0.0000000   0.0000000   0.0000000   0.0000000   0.0000000   0.0000000   0.0000000
 NQMom=    0.0000000   0.0000000   0.0000000   0.0000000   0.0000000   0.0000000   0.0000000   0.0000000   0.0000000   0.0000000
 NMagM=    0.0000000   2.7928460   0.0000000   2.7928460   0.0000000   2.7928460   2.7928460   0.0000000   0.0000000   0.0000000
 AtZNuc=   6.0000000   1.0000000   6.0000000   1.0000000   6.0000000   1.0000000   1.0000000   6.0000000   6.0000000   6.0000000

  Atom        71          72          73          74          75          76          77          78          79
 IAtWgt=          12           1          12           1          12           1           1           1          16
 AtmWgt=  12.0000000   1.0078250  12.0000000   1.0078250  12.0000000   1.0078250   1.0078250   1.0078250  15.9949146
 NucSpn=           0           1           0           1           0           1           1           1           0
 AtZEff=   0.0000000   0.0000000   0.0000000   0.0000000   0.0000000   0.0000000   0.0000000   0.0000000   0.0000000
 NQMom=    0.0000000   0.0000000   0.0000000   0.0000000   0.0000000   0.0000000   0.0000000   0.0000000   0.0000000
 NMagM=    0.0000000   2.7928460   0.0000000   2.7928460   0.0000000   2.7928460   2.7928460   2.7928460   0.0000000
 AtZNuc=   6.0000000   1.0000000   6.0000000   1.0000000   6.0000000   1.0000000   1.0000000   1.0000000   8.0000000
 Leave Link  101 at Wed Feb 17 07:43:25 2021, MaxMem=  5242880000 cpu:         4.7
 (Enter /opt/nce/packages/global/g09/l103.exe)

 GradGradGradGradGradGradGradGradGradGradGradGradGradGradGradGradGradGrad
 Berny optimization.
 Initialization pass.
                           ----------------------------
                           !    Initial Parameters    !
                           ! (Angstroms and Degrees)  !
 --------------------------                            --------------------------
 ! Name  Definition              Value          Derivative Info.                !
 --------------------------------------------------------------------------------
 ! R1    R(1,2)                  1.3966         estimate D2E/DX2                !
 ! R2    R(1,6)                  1.4024         estimate D2E/DX2                !
 ! R3    R(1,36)                 1.091          estimate D2E/DX2                !
 ! R4    R(2,3)                  1.3995         estimate D2E/DX2                !
 ! R5    R(2,14)                 1.0898         estimate D2E/DX2                !
 ! R6    R(3,4)                  1.4103         estimate D2E/DX2                !
 ! R7    R(3,17)                 1.4025         estimate D2E/DX2                !
 ! R8    R(4,5)                  1.3862         estimate D2E/DX2                !
 ! R9    R(4,79)                 1.3742         estimate D2E/DX2                !
 ! R10   R(5,6)                  1.4097         estimate D2E/DX2                !
 ! R11   R(5,15)                 1.0904         estimate D2E/DX2                !
 ! R12   R(6,37)                 1.4803         estimate D2E/DX2                !
 ! R13   R(7,8)                  1.4103         estimate D2E/DX2                !
 ! R14   R(7,13)                 1.3862         estimate D2E/DX2                !
 ! R15   R(7,79)                 1.3741         estimate D2E/DX2                !
 ! R16   R(8,9)                  1.3995         estimate D2E/DX2                !
 ! R17   R(8,17)                 1.4025         estimate D2E/DX2                !
 ! R18   R(9,10)                 1.0898         estimate D2E/DX2                !
 ! R19   R(9,11)                 1.3966         estimate D2E/DX2                !
 ! R20   R(11,12)                1.4023         estimate D2E/DX2                !
 ! R21   R(11,16)                1.091          estimate D2E/DX2                !
 ! R22   R(12,13)                1.4097         estimate D2E/DX2                !
 ! R23   R(12,58)                1.4803         estimate D2E/DX2                !
 ! R24   R(13,35)                1.0905         estimate D2E/DX2                !
 ! R25   R(17,18)                1.4271         estimate D2E/DX2                !
 ! R26   R(18,19)                1.4287         estimate D2E/DX2                !
 ! R27   R(18,20)                1.3796         estimate D2E/DX2                !
 ! R28   R(19,21)                1.4209         estimate D2E/DX2                !
 ! R29   R(19,22)                1.4343         estimate D2E/DX2                !
 ! R30   R(20,23)                1.4157         estimate D2E/DX2                !
 ! R31   R(20,24)                1.0915         estimate D2E/DX2                !
 ! R32   R(21,25)                1.3785         estimate D2E/DX2                !
 ! R33   R(21,26)                1.0905         estimate D2E/DX2                !
 ! R34   R(22,27)                1.4223         estimate D2E/DX2                !
 ! R35   R(22,28)                1.4221         estimate D2E/DX2                !
 ! R36   R(23,28)                1.3782         estimate D2E/DX2                !
 ! R37   R(23,29)                1.0921         estimate D2E/DX2                !
 ! R38   R(25,30)                1.4175         estimate D2E/DX2                !
 ! R39   R(25,31)                1.0924         estimate D2E/DX2                !
 ! R40   R(27,30)                1.3782         estimate D2E/DX2                !
 ! R41   R(27,32)                1.0929         estimate D2E/DX2                !
 ! R42   R(28,33)                1.0929         estimate D2E/DX2                !
 ! R43   R(30,34)                1.0924         estimate D2E/DX2                !
 ! R44   R(37,38)                1.4071         estimate D2E/DX2                !
 ! R45   R(37,39)                1.4071         estimate D2E/DX2                !
 ! R46   R(38,40)                1.3924         estimate D2E/DX2                !
 ! R47   R(38,41)                1.0918         estimate D2E/DX2                !
 ! R48   R(39,42)                1.3922         estimate D2E/DX2                !
 ! R49   R(39,43)                1.0918         estimate D2E/DX2                !
 ! R50   R(40,44)                1.4063         estimate D2E/DX2                !
 ! R51   R(40,45)                1.092          estimate D2E/DX2                !
 ! R52   R(42,44)                1.4064         estimate D2E/DX2                !
 ! R53   R(42,46)                1.092          estimate D2E/DX2                !
 ! R54   R(44,47)                1.4827         estimate D2E/DX2                !
 ! R55   R(47,48)                1.4072         estimate D2E/DX2                !
 ! R56   R(47,49)                1.4072         estimate D2E/DX2                !
 ! R57   R(48,50)                1.3954         estimate D2E/DX2                !
 ! R58   R(48,51)                1.092          estimate D2E/DX2                !
 ! R59   R(49,52)                1.3954         estimate D2E/DX2                !
 ! R60   R(49,53)                1.092          estimate D2E/DX2                !
 ! R61   R(50,54)                1.3977         estimate D2E/DX2                !
 ! R62   R(50,55)                1.0928         estimate D2E/DX2                !
 ! R63   R(52,54)                1.3977         estimate D2E/DX2                !
 ! R64   R(52,56)                1.0928         estimate D2E/DX2                !
 ! R65   R(54,57)                1.0925         estimate D2E/DX2                !
 ! R66   R(58,59)                1.407          estimate D2E/DX2                !
 ! R67   R(58,60)                1.4071         estimate D2E/DX2                !
 ! R68   R(59,61)                1.3924         estimate D2E/DX2                !
 ! R69   R(59,62)                1.0918         estimate D2E/DX2                !
 ! R70   R(60,63)                1.3922         estimate D2E/DX2                !
 ! R71   R(60,64)                1.0918         estimate D2E/DX2                !
 ! R72   R(61,65)                1.4063         estimate D2E/DX2                !
 ! R73   R(61,66)                1.092          estimate D2E/DX2                !
 ! R74   R(63,65)                1.4065         estimate D2E/DX2                !
 ! R75   R(63,67)                1.092          estimate D2E/DX2                !
 ! R76   R(65,68)                1.4828         estimate D2E/DX2                !
 ! R77   R(68,69)                1.4072         estimate D2E/DX2                !
 ! R78   R(68,70)                1.4072         estimate D2E/DX2                !
 ! R79   R(69,71)                1.3954         estimate D2E/DX2                !
 ! R80   R(69,72)                1.092          estimate D2E/DX2                !
 ! R81   R(70,73)                1.3954         estimate D2E/DX2                !
 ! R82   R(70,74)                1.092          estimate D2E/DX2                !
 ! R83   R(71,75)                1.3977         estimate D2E/DX2                !
 ! R84   R(71,76)                1.0928         estimate D2E/DX2                !
 ! R85   R(73,75)                1.3977         estimate D2E/DX2                !
 ! R86   R(73,77)                1.0928         estimate D2E/DX2                !
 ! R87   R(75,78)                1.0925         estimate D2E/DX2                !
 ! A1    A(2,1,6)              121.3684         estimate D2E/DX2                !
 ! A2    A(2,1,36)             118.7445         estimate D2E/DX2                !
 ! A3    A(6,1,36)             119.8629         estimate D2E/DX2                !
 ! A4    A(1,2,3)              120.9084         estimate D2E/DX2                !
 ! A5    A(1,2,14)             119.943          estimate D2E/DX2                !
 ! A6    A(3,2,14)             119.1468         estimate D2E/DX2                !
 ! A7    A(2,3,4)              117.9021         estimate D2E/DX2                !
 ! A8    A(2,3,17)             122.9127         estimate D2E/DX2                !
 ! A9    A(4,3,17)             119.1846         estimate D2E/DX2                !
 ! A10   A(3,4,5)              121.0571         estimate D2E/DX2                !
 ! A11   A(3,4,79)             121.4884         estimate D2E/DX2                !
 ! A12   A(5,4,79)             117.447          estimate D2E/DX2                !
 ! A13   A(4,5,6)              121.2661         estimate D2E/DX2                !
 ! A14   A(4,5,15)             117.4283         estimate D2E/DX2                !
 ! A15   A(6,5,15)             121.2836         estimate D2E/DX2                !
 ! A16   A(1,6,5)              117.4964         estimate D2E/DX2                !
 ! A17   A(1,6,37)             121.6079         estimate D2E/DX2                !
 ! A18   A(5,6,37)             120.8949         estimate D2E/DX2                !
 ! A19   A(8,7,13)             121.0505         estimate D2E/DX2                !
 ! A20   A(8,7,79)             121.4991         estimate D2E/DX2                !
 ! A21   A(13,7,79)            117.4503         estimate D2E/DX2                !
 ! A22   A(7,8,9)              117.9082         estimate D2E/DX2                !
 ! A23   A(7,8,17)             119.179          estimate D2E/DX2                !
 ! A24   A(9,8,17)             122.9126         estimate D2E/DX2                !
 ! A25   A(8,9,10)             119.1433         estimate D2E/DX2                !
 ! A26   A(8,9,11)             120.91           estimate D2E/DX2                !
 ! A27   A(10,9,11)            119.9435         estimate D2E/DX2                !
 ! A28   A(9,11,12)            121.3608         estimate D2E/DX2                !
 ! A29   A(9,11,16)            118.7545         estimate D2E/DX2                !
 ! A30   A(12,11,16)           119.8638         estimate D2E/DX2                !
 ! A31   A(11,12,13)           117.5052         estimate D2E/DX2                !
 ! A32   A(11,12,58)           121.6095         estimate D2E/DX2                !
 ! A33   A(13,12,58)           120.885          estimate D2E/DX2                !
 ! A34   A(7,13,12)            121.2652         estimate D2E/DX2                !
 ! A35   A(7,13,35)            117.4419         estimate D2E/DX2                !
 ! A36   A(12,13,35)           121.2767         estimate D2E/DX2                !
 ! A37   A(3,17,8)             119.3003         estimate D2E/DX2                !
 ! A38   A(3,17,18)            120.1941         estimate D2E/DX2                !
 ! A39   A(8,17,18)            120.1906         estimate D2E/DX2                !
 ! A40   A(17,18,19)           119.3003         estimate D2E/DX2                !
 ! A41   A(17,18,20)           119.8768         estimate D2E/DX2                !
 ! A42   A(19,18,20)           120.8229         estimate D2E/DX2                !
 ! A43   A(18,19,21)           122.3664         estimate D2E/DX2                !
 ! A44   A(18,19,22)           118.4609         estimate D2E/DX2                !
 ! A45   A(21,19,22)           119.1726         estimate D2E/DX2                !
 ! A46   A(18,20,23)           120.4813         estimate D2E/DX2                !
 ! A47   A(18,20,24)           118.8683         estimate D2E/DX2                !
 ! A48   A(23,20,24)           120.6504         estimate D2E/DX2                !
 ! A49   A(19,21,25)           120.5013         estimate D2E/DX2                !
 ! A50   A(19,21,26)           118.9752         estimate D2E/DX2                !
 ! A51   A(25,21,26)           120.5236         estimate D2E/DX2                !
 ! A52   A(19,22,27)           118.7689         estimate D2E/DX2                !
 ! A53   A(19,22,28)           119.1577         estimate D2E/DX2                !
 ! A54   A(27,22,28)           122.0734         estimate D2E/DX2                !
 ! A55   A(20,23,28)           120.1697         estimate D2E/DX2                !
 ! A56   A(20,23,29)           119.5024         estimate D2E/DX2                !
 ! A57   A(28,23,29)           120.328          estimate D2E/DX2                !
 ! A58   A(21,25,30)           120.5105         estimate D2E/DX2                !
 ! A59   A(21,25,31)           119.8654         estimate D2E/DX2                !
 ! A60   A(30,25,31)           119.624          estimate D2E/DX2                !
 ! A61   A(22,27,30)           120.8042         estimate D2E/DX2                !
 ! A62   A(22,27,32)           118.6745         estimate D2E/DX2                !
 ! A63   A(30,27,32)           120.5213         estimate D2E/DX2                !
 ! A64   A(22,28,23)           120.9075         estimate D2E/DX2                !
 ! A65   A(22,28,33)           118.6773         estimate D2E/DX2                !
 ! A66   A(23,28,33)           120.4153         estimate D2E/DX2                !
 ! A67   A(25,30,27)           120.2424         estimate D2E/DX2                !
 ! A68   A(25,30,34)           119.6549         estimate D2E/DX2                !
 ! A69   A(27,30,34)           120.1027         estimate D2E/DX2                !
 ! A70   A(6,37,38)            121.3756         estimate D2E/DX2                !
 ! A71   A(6,37,39)            121.2842         estimate D2E/DX2                !
 ! A72   A(38,37,39)           117.3402         estimate D2E/DX2                !
 ! A73   A(37,38,40)           121.3225         estimate D2E/DX2                !
 ! A74   A(37,38,41)           119.5571         estimate D2E/DX2                !
 ! A75   A(40,38,41)           119.1128         estimate D2E/DX2                !
 ! A76   A(37,39,42)           121.3273         estimate D2E/DX2                !
 ! A77   A(37,39,43)           119.5029         estimate D2E/DX2                !
 ! A78   A(42,39,43)           119.1617         estimate D2E/DX2                !
 ! A79   A(38,40,44)           121.2966         estimate D2E/DX2                !
 ! A80   A(38,40,45)           119.1961         estimate D2E/DX2                !
 ! A81   A(44,40,45)           119.4998         estimate D2E/DX2                !
 ! A82   A(39,42,44)           121.293          estimate D2E/DX2                !
 ! A83   A(39,42,46)           119.2051         estimate D2E/DX2                !
 ! A84   A(44,42,46)           119.4957         estimate D2E/DX2                !
 ! A85   A(40,44,42)           117.4203         estimate D2E/DX2                !
 ! A86   A(40,44,47)           121.2921         estimate D2E/DX2                !
 ! A87   A(42,44,47)           121.2876         estimate D2E/DX2                !
 ! A88   A(44,47,48)           120.9846         estimate D2E/DX2                !
 ! A89   A(44,47,49)           120.9913         estimate D2E/DX2                !
 ! A90   A(48,47,49)           118.0241         estimate D2E/DX2                !
 ! A91   A(47,48,50)           121.0064         estimate D2E/DX2                !
 ! A92   A(47,48,51)           119.4302         estimate D2E/DX2                !
 ! A93   A(50,48,51)           119.5453         estimate D2E/DX2                !
 ! A94   A(47,49,52)           121.0066         estimate D2E/DX2                !
 ! A95   A(47,49,53)           119.4293         estimate D2E/DX2                !
 ! A96   A(52,49,53)           119.5457         estimate D2E/DX2                !
 ! A97   A(48,50,54)           120.2803         estimate D2E/DX2                !
 ! A98   A(48,50,55)           119.6542         estimate D2E/DX2                !
 ! A99   A(54,50,55)           120.0633         estimate D2E/DX2                !
 ! A100  A(49,52,54)           120.2802         estimate D2E/DX2                !
 ! A101  A(49,52,56)           119.6553         estimate D2E/DX2                !
 ! A102  A(54,52,56)           120.0621         estimate D2E/DX2                !
 ! A103  A(50,54,52)           119.4024         estimate D2E/DX2                !
 ! A104  A(50,54,57)           120.2985         estimate D2E/DX2                !
 ! A105  A(52,54,57)           120.2991         estimate D2E/DX2                !
 ! A106  A(12,58,59)           121.3657         estimate D2E/DX2                !
 ! A107  A(12,58,60)           121.2833         estimate D2E/DX2                !
 ! A108  A(59,58,60)           117.351          estimate D2E/DX2                !
 ! A109  A(58,59,61)           121.3168         estimate D2E/DX2                !
 ! A110  A(58,59,62)           119.5502         estimate D2E/DX2                !
 ! A111  A(61,59,62)           119.1252         estimate D2E/DX2                !
 ! A112  A(58,60,63)           121.3207         estimate D2E/DX2                !
 ! A113  A(58,60,64)           119.5015         estimate D2E/DX2                !
 ! A114  A(63,60,64)           119.1697         estimate D2E/DX2                !
 ! A115  A(59,61,65)           121.2945         estimate D2E/DX2                !
 ! A116  A(59,61,66)           119.1985         estimate D2E/DX2                !
 ! A117  A(65,61,66)           119.4995         estimate D2E/DX2                !
 ! A118  A(60,63,65)           121.2915         estimate D2E/DX2                !
 ! A119  A(60,63,67)           119.2096         estimate D2E/DX2                !
 ! A120  A(65,63,67)           119.4926         estimate D2E/DX2                !
 ! A121  A(61,65,63)           117.4254         estimate D2E/DX2                !
 ! A122  A(61,65,68)           121.2873         estimate D2E/DX2                !
 ! A123  A(63,65,68)           121.2873         estimate D2E/DX2                !
 ! A124  A(65,68,69)           120.9801         estimate D2E/DX2                !
 ! A125  A(65,68,70)           120.9933         estimate D2E/DX2                !
 ! A126  A(69,68,70)           118.0266         estimate D2E/DX2                !
 ! A127  A(68,69,71)           121.0052         estimate D2E/DX2                !
 ! A128  A(68,69,72)           119.4275         estimate D2E/DX2                !
 ! A129  A(71,69,72)           119.5493         estimate D2E/DX2                !
 ! A130  A(68,70,73)           121.0052         estimate D2E/DX2                !
 ! A131  A(68,70,74)           119.4273         estimate D2E/DX2                !
 ! A132  A(73,70,74)           119.5492         estimate D2E/DX2                !
 ! A133  A(69,71,75)           120.2799         estimate D2E/DX2                !
 ! A134  A(69,71,76)           119.6547         estimate D2E/DX2                !
 ! A135  A(75,71,76)           120.0632         estimate D2E/DX2                !
 ! A136  A(70,73,75)           120.2795         estimate D2E/DX2                !
 ! A137  A(70,73,77)           119.6563         estimate D2E/DX2                !
 ! A138  A(75,73,77)           120.0619         estimate D2E/DX2                !
 ! A139  A(71,75,73)           119.4036         estimate D2E/DX2                !
 ! A140  A(71,75,78)           120.2981         estimate D2E/DX2                !
 ! A141  A(73,75,78)           120.2982         estimate D2E/DX2                !
 ! A142  A(4,79,7)             118.9425         estimate D2E/DX2                !
 ! D1    D(6,1,2,3)             -0.2153         estimate D2E/DX2                !
 ! D2    D(6,1,2,14)           179.2773         estimate D2E/DX2                !
 ! D3    D(36,1,2,3)          -178.4209         estimate D2E/DX2                !
 ! D4    D(36,1,2,14)            1.0718         estimate D2E/DX2                !
 ! D5    D(2,1,6,5)             -0.1326         estimate D2E/DX2                !
 ! D6    D(2,1,6,37)          -179.8164         estimate D2E/DX2                !
 ! D7    D(36,1,6,5)           178.0531         estimate D2E/DX2                !
 ! D8    D(36,1,6,37)           -1.6306         estimate D2E/DX2                !
 ! D9    D(1,2,3,4)              0.4207         estimate D2E/DX2                !
 ! D10   D(1,2,3,17)          -179.8361         estimate D2E/DX2                !
 ! D11   D(14,2,3,4)          -179.0759         estimate D2E/DX2                !
 ! D12   D(14,2,3,17)            0.6673         estimate D2E/DX2                !
 ! D13   D(2,3,4,5)             -0.2867         estimate D2E/DX2                !
 ! D14   D(2,3,4,79)          -179.2667         estimate D2E/DX2                !
 ! D15   D(17,3,4,5)           179.9602         estimate D2E/DX2                !
 ! D16   D(17,3,4,79)            0.9803         estimate D2E/DX2                !
 ! D17   D(2,3,17,8)          -175.3184         estimate D2E/DX2                !
 ! D18   D(2,3,17,18)           -1.7504         estimate D2E/DX2                !
 ! D19   D(4,3,17,8)             4.4217         estimate D2E/DX2                !
 ! D20   D(4,3,17,18)          177.9897         estimate D2E/DX2                !
 ! D21   D(3,4,5,6)             -0.0582         estimate D2E/DX2                !
 ! D22   D(3,4,5,15)          -178.3711         estimate D2E/DX2                !
 ! D23   D(79,4,5,6)           178.9617         estimate D2E/DX2                !
 ! D24   D(79,4,5,15)            0.6487         estimate D2E/DX2                !
 ! D25   D(3,4,79,7)            -5.8408         estimate D2E/DX2                !
 ! D26   D(5,4,79,7)           175.1438         estimate D2E/DX2                !
 ! D27   D(4,5,6,1)              0.2676         estimate D2E/DX2                !
 ! D28   D(4,5,6,37)           179.9537         estimate D2E/DX2                !
 ! D29   D(15,5,6,1)           178.5154         estimate D2E/DX2                !
 ! D30   D(15,5,6,37)           -1.7985         estimate D2E/DX2                !
 ! D31   D(1,6,37,38)          147.5391         estimate D2E/DX2                !
 ! D32   D(1,6,37,39)          -32.4107         estimate D2E/DX2                !
 ! D33   D(5,6,37,38)          -32.134          estimate D2E/DX2                !
 ! D34   D(5,6,37,39)          147.9162         estimate D2E/DX2                !
 ! D35   D(13,7,8,9)             0.0534         estimate D2E/DX2                !
 ! D36   D(13,7,8,17)          179.8867         estimate D2E/DX2                !
 ! D37   D(79,7,8,9)          -179.8181         estimate D2E/DX2                !
 ! D38   D(79,7,8,17)            0.0152         estimate D2E/DX2                !
 ! D39   D(8,7,13,12)            0.0669         estimate D2E/DX2                !
 ! D40   D(8,7,13,35)         -178.4856         estimate D2E/DX2                !
 ! D41   D(79,7,13,12)         179.9435         estimate D2E/DX2                !
 ! D42   D(79,7,13,35)           1.391          estimate D2E/DX2                !
 ! D43   D(8,7,79,4)             5.3384         estimate D2E/DX2                !
 ! D44   D(13,7,79,4)         -174.5376         estimate D2E/DX2                !
 ! D45   D(7,8,9,10)          -179.4841         estimate D2E/DX2                !
 ! D46   D(7,8,9,11)            -0.1353         estimate D2E/DX2                !
 ! D47   D(17,8,9,10)            0.6893         estimate D2E/DX2                !
 ! D48   D(17,8,9,11)         -179.9619         estimate D2E/DX2                !
 ! D49   D(7,8,17,3)            -4.9018         estimate D2E/DX2                !
 ! D50   D(7,8,17,18)         -178.47           estimate D2E/DX2                !
 ! D51   D(9,8,17,3)           174.9227         estimate D2E/DX2                !
 ! D52   D(9,8,17,18)            1.3545         estimate D2E/DX2                !
 ! D53   D(8,9,11,12)            0.0996         estimate D2E/DX2                !
 ! D54   D(8,9,11,16)         -178.2345         estimate D2E/DX2                !
 ! D55   D(10,9,11,12)         179.4433         estimate D2E/DX2                !
 ! D56   D(10,9,11,16)           1.1091         estimate D2E/DX2                !
 ! D57   D(9,11,12,13)           0.0211         estimate D2E/DX2                !
 ! D58   D(9,11,12,58)        -179.7865         estimate D2E/DX2                !
 ! D59   D(16,11,12,13)        178.337          estimate D2E/DX2                !
 ! D60   D(16,11,12,58)         -1.4706         estimate D2E/DX2                !
 ! D61   D(11,12,13,7)          -0.1034         estimate D2E/DX2                !
 ! D62   D(11,12,13,35)        178.3935         estimate D2E/DX2                !
 ! D63   D(58,12,13,7)         179.7056         estimate D2E/DX2                !
 ! D64   D(58,12,13,35)         -1.7974         estimate D2E/DX2                !
 ! D65   D(11,12,58,59)        147.3913         estimate D2E/DX2                !
 ! D66   D(11,12,58,60)        -32.5807         estimate D2E/DX2                !
 ! D67   D(13,12,58,59)        -32.4098         estimate D2E/DX2                !
 ! D68   D(13,12,58,60)        147.6182         estimate D2E/DX2                !
 ! D69   D(3,17,18,19)         -86.6915         estimate D2E/DX2                !
 ! D70   D(3,17,18,20)          93.3142         estimate D2E/DX2                !
 ! D71   D(8,17,18,19)          86.8189         estimate D2E/DX2                !
 ! D72   D(8,17,18,20)         -93.1755         estimate D2E/DX2                !
 ! D73   D(17,18,19,21)          0.0183         estimate D2E/DX2                !
 ! D74   D(17,18,19,22)       -179.9933         estimate D2E/DX2                !
 ! D75   D(20,18,19,21)       -179.9874         estimate D2E/DX2                !
 ! D76   D(20,18,19,22)          0.001          estimate D2E/DX2                !
 ! D77   D(17,18,20,23)        179.9908         estimate D2E/DX2                !
 ! D78   D(17,18,20,24)          0.0032         estimate D2E/DX2                !
 ! D79   D(19,18,20,23)         -0.0034         estimate D2E/DX2                !
 ! D80   D(19,18,20,24)       -179.991          estimate D2E/DX2                !
 ! D81   D(18,19,21,25)        179.9878         estimate D2E/DX2                !
 ! D82   D(18,19,21,26)         -0.0028         estimate D2E/DX2                !
 ! D83   D(22,19,21,25)         -0.0005         estimate D2E/DX2                !
 ! D84   D(22,19,21,26)       -179.9911         estimate D2E/DX2                !
 ! D85   D(18,19,22,27)       -179.9933         estimate D2E/DX2                !
 ! D86   D(18,19,22,28)          0.0025         estimate D2E/DX2                !
 ! D87   D(21,19,22,27)         -0.0045         estimate D2E/DX2                !
 ! D88   D(21,19,22,28)        179.9913         estimate D2E/DX2                !
 ! D89   D(18,20,23,28)          0.0024         estimate D2E/DX2                !
 ! D90   D(18,20,23,29)       -179.9931         estimate D2E/DX2                !
 ! D91   D(24,20,23,28)        179.9897         estimate D2E/DX2                !
 ! D92   D(24,20,23,29)         -0.0058         estimate D2E/DX2                !
 ! D93   D(19,21,25,30)          0.004          estimate D2E/DX2                !
 ! D94   D(19,21,25,31)       -179.9843         estimate D2E/DX2                !
 ! D95   D(26,21,25,30)        179.9946         estimate D2E/DX2                !
 ! D96   D(26,21,25,31)          0.0062         estimate D2E/DX2                !
 ! D97   D(19,22,27,30)          0.0061         estimate D2E/DX2                !
 ! D98   D(19,22,27,32)        179.9976         estimate D2E/DX2                !
 ! D99   D(28,22,27,30)       -179.9896         estimate D2E/DX2                !
 ! D100  D(28,22,27,32)          0.002          estimate D2E/DX2                !
 ! D101  D(19,22,28,23)         -0.0036         estimate D2E/DX2                !
 ! D102  D(19,22,28,33)        179.9971         estimate D2E/DX2                !
 ! D103  D(27,22,28,23)        179.992          estimate D2E/DX2                !
 ! D104  D(27,22,28,33)         -0.0073         estimate D2E/DX2                !
 ! D105  D(20,23,28,22)          0.0012         estimate D2E/DX2                !
 ! D106  D(20,23,28,33)       -179.9995         estimate D2E/DX2                !
 ! D107  D(29,23,28,22)        179.9967         estimate D2E/DX2                !
 ! D108  D(29,23,28,33)         -0.004          estimate D2E/DX2                !
 ! D109  D(21,25,30,27)         -0.0025         estimate D2E/DX2                !
 ! D110  D(21,25,30,34)       -179.9932         estimate D2E/DX2                !
 ! D111  D(31,25,30,27)        179.9859         estimate D2E/DX2                !
 ! D112  D(31,25,30,34)         -0.0048         estimate D2E/DX2                !
 ! D113  D(22,27,30,25)         -0.0026         estimate D2E/DX2                !
 ! D114  D(22,27,30,34)        179.988          estimate D2E/DX2                !
 ! D115  D(32,27,30,25)       -179.994          estimate D2E/DX2                !
 ! D116  D(32,27,30,34)         -0.0034         estimate D2E/DX2                !
 ! D117  D(6,37,38,40)        -179.8459         estimate D2E/DX2                !
 ! D118  D(6,37,38,41)          -0.8606         estimate D2E/DX2                !
 ! D119  D(39,37,38,40)          0.1058         estimate D2E/DX2                !
 ! D120  D(39,37,38,41)        179.0911         estimate D2E/DX2                !
 ! D121  D(6,37,39,42)         179.7878         estimate D2E/DX2                !
 ! D122  D(6,37,39,43)          -1.2552         estimate D2E/DX2                !
 ! D123  D(38,37,39,42)         -0.164          estimate D2E/DX2                !
 ! D124  D(38,37,39,43)        178.793          estimate D2E/DX2                !
 ! D125  D(37,38,40,44)          0.0029         estimate D2E/DX2                !
 ! D126  D(37,38,40,45)       -178.9925         estimate D2E/DX2                !
 ! D127  D(41,38,40,44)       -178.9868         estimate D2E/DX2                !
 ! D128  D(41,38,40,45)          2.0178         estimate D2E/DX2                !
 ! D129  D(37,39,42,44)          0.1152         estimate D2E/DX2                !
 ! D130  D(37,39,42,46)       -178.9715         estimate D2E/DX2                !
 ! D131  D(43,39,42,44)       -178.8454         estimate D2E/DX2                !
 ! D132  D(43,39,42,46)          2.068          estimate D2E/DX2                !
 ! D133  D(38,40,44,42)         -0.0561         estimate D2E/DX2                !
 ! D134  D(38,40,44,47)        179.9824         estimate D2E/DX2                !
 ! D135  D(45,40,44,42)        178.9363         estimate D2E/DX2                !
 ! D136  D(45,40,44,47)         -1.0252         estimate D2E/DX2                !
 ! D137  D(39,42,44,40)         -0.0021         estimate D2E/DX2                !
 ! D138  D(39,42,44,47)        179.9594         estimate D2E/DX2                !
 ! D139  D(46,42,44,40)        179.082          estimate D2E/DX2                !
 ! D140  D(46,42,44,47)         -0.9566         estimate D2E/DX2                !
 ! D141  D(40,44,47,48)        -35.5139         estimate D2E/DX2                !
 ! D142  D(40,44,47,49)        144.4964         estimate D2E/DX2                !
 ! D143  D(42,44,47,48)        144.5261         estimate D2E/DX2                !
 ! D144  D(42,44,47,49)        -35.4636         estimate D2E/DX2                !
 ! D145  D(44,47,48,50)        179.998          estimate D2E/DX2                !
 ! D146  D(44,47,48,51)         -1.5559         estimate D2E/DX2                !
 ! D147  D(49,47,48,50)         -0.0119         estimate D2E/DX2                !
 ! D148  D(49,47,48,51)        178.4341         estimate D2E/DX2                !
 ! D149  D(44,47,49,52)        179.968          estimate D2E/DX2                !
 ! D150  D(44,47,49,53)         -1.5984         estimate D2E/DX2                !
 ! D151  D(48,47,49,52)         -0.0221         estimate D2E/DX2                !
 ! D152  D(48,47,49,53)        178.4116         estimate D2E/DX2                !
 ! D153  D(47,48,50,54)          0.0331         estimate D2E/DX2                !
 ! D154  D(47,48,50,55)        179.4932         estimate D2E/DX2                !
 ! D155  D(51,48,50,54)       -178.4111         estimate D2E/DX2                !
 ! D156  D(51,48,50,55)          1.049          estimate D2E/DX2                !
 ! D157  D(47,49,52,54)          0.0351         estimate D2E/DX2                !
 ! D158  D(47,49,52,56)        179.4819         estimate D2E/DX2                !
 ! D159  D(53,49,52,54)       -178.3968         estimate D2E/DX2                !
 ! D160  D(53,49,52,56)          1.0501         estimate D2E/DX2                !
 ! D161  D(48,50,54,52)         -0.0201         estimate D2E/DX2                !
 ! D162  D(48,50,54,57)        179.9883         estimate D2E/DX2                !
 ! D163  D(55,50,54,52)       -179.478          estimate D2E/DX2                !
 ! D164  D(55,50,54,57)          0.5304         estimate D2E/DX2                !
 ! D165  D(49,52,54,50)         -0.0136         estimate D2E/DX2                !
 ! D166  D(49,52,54,57)        179.978          estimate D2E/DX2                !
 ! D167  D(56,52,54,50)       -179.4582         estimate D2E/DX2                !
 ! D168  D(56,52,54,57)          0.5334         estimate D2E/DX2                !
 ! D169  D(12,58,59,61)       -179.8641         estimate D2E/DX2                !
 ! D170  D(12,58,59,62)         -0.8886         estimate D2E/DX2                !
 ! D171  D(60,58,59,61)          0.1089         estimate D2E/DX2                !
 ! D172  D(60,58,59,62)        179.0844         estimate D2E/DX2                !
 ! D173  D(12,58,60,63)        179.8149         estimate D2E/DX2                !
 ! D174  D(12,58,60,64)         -1.2286         estimate D2E/DX2                !
 ! D175  D(59,58,60,63)         -0.1582         estimate D2E/DX2                !
 ! D176  D(59,58,60,64)        178.7983         estimate D2E/DX2                !
 ! D177  D(58,59,61,65)         -0.0048         estimate D2E/DX2                !
 ! D178  D(58,59,61,66)       -179.0044         estimate D2E/DX2                !
 ! D179  D(62,59,61,65)       -178.9846         estimate D2E/DX2                !
 ! D180  D(62,59,61,66)          2.0158         estimate D2E/DX2                !
 ! D181  D(58,60,63,65)          0.1048         estimate D2E/DX2                !
 ! D182  D(58,60,63,67)       -178.977          estimate D2E/DX2                !
 ! D183  D(64,60,63,65)       -178.8551         estimate D2E/DX2                !
 ! D184  D(64,60,63,67)          2.0631         estimate D2E/DX2                !
 ! D185  D(59,61,65,63)         -0.0528         estimate D2E/DX2                !
 ! D186  D(59,61,65,68)        179.9816         estimate D2E/DX2                !
 ! D187  D(66,61,65,63)        178.9438         estimate D2E/DX2                !
 ! D188  D(66,61,65,68)         -1.0219         estimate D2E/DX2                !
 ! D189  D(60,63,65,61)          0.0035         estimate D2E/DX2                !
 ! D190  D(60,63,65,68)        179.9692         estimate D2E/DX2                !
 ! D191  D(67,63,65,61)        179.0828         estimate D2E/DX2                !
 ! D192  D(67,63,65,68)         -0.9515         estimate D2E/DX2                !
 ! D193  D(61,65,68,69)        -35.5415         estimate D2E/DX2                !
 ! D194  D(61,65,68,70)        144.4685         estimate D2E/DX2                !
 ! D195  D(63,65,68,69)        144.4941         estimate D2E/DX2                !
 ! D196  D(63,65,68,70)        -35.4959         estimate D2E/DX2                !
 ! D197  D(65,68,69,71)        179.9951         estimate D2E/DX2                !
 ! D198  D(65,68,69,72)         -1.5571         estimate D2E/DX2                !
 ! D199  D(70,68,69,71)         -0.0146         estimate D2E/DX2                !
 ! D200  D(70,68,69,72)        178.4332         estimate D2E/DX2                !
 ! D201  D(65,68,70,73)        179.9726         estimate D2E/DX2                !
 ! D202  D(65,68,70,74)         -1.5884         estimate D2E/DX2                !
 ! D203  D(69,68,70,73)         -0.0177         estimate D2E/DX2                !
 ! D204  D(69,68,70,74)        178.4213         estimate D2E/DX2                !
 ! D205  D(68,69,71,75)          0.0322         estimate D2E/DX2                !
 ! D206  D(68,69,71,76)        179.4925         estimate D2E/DX2                !
 ! D207  D(72,69,71,75)       -178.4138         estimate D2E/DX2                !
 ! D208  D(72,69,71,76)          1.0465         estimate D2E/DX2                !
 ! D209  D(68,70,73,75)          0.0326         estimate D2E/DX2                !
 ! D210  D(68,70,73,77)        179.482          estimate D2E/DX2                !
 ! D211  D(74,70,73,75)       -178.4045         estimate D2E/DX2                !
 ! D212  D(74,70,73,77)          1.0449         estimate D2E/DX2                !
 ! D213  D(69,71,75,73)         -0.0171         estimate D2E/DX2                !
 ! D214  D(69,71,75,78)        179.9883         estimate D2E/DX2                !
 ! D215  D(76,71,75,73)       -179.4752         estimate D2E/DX2                !
 ! D216  D(76,71,75,78)          0.5302         estimate D2E/DX2                !
 ! D217  D(70,73,75,71)         -0.0149         estimate D2E/DX2                !
 ! D218  D(70,73,75,78)        179.9796         estimate D2E/DX2                !
 ! D219  D(77,73,75,71)       -179.4621         estimate D2E/DX2                !
 ! D220  D(77,73,75,78)          0.5325         estimate D2E/DX2                !
 --------------------------------------------------------------------------------
 Trust Radius=3.00D-01 FncErr=1.00D-07 GrdErr=1.00D-06
 Number of steps in this run=    459 maximum allowed number of steps=    474.
 GradGradGradGradGradGradGradGradGradGradGradGradGradGradGradGradGradGrad

 Leave Link  103 at Wed Feb 17 07:43:25 2021, MaxMem=  5242880000 cpu:         0.3
 (Enter /opt/nce/packages/global/g09/l202.exe)
 Symmetry turned off by external request.
 Stoichiometry    C46H31NO
 Framework group  C1[X(C46H31NO)]
 Deg. of freedom   231
 Full point group                 C1      NOp   1
                          Input orientation:                          
 ---------------------------------------------------------------------
 Center     Atomic      Atomic             Coordinates (Angstroms)
 Number     Number       Type             X           Y           Z
 ---------------------------------------------------------------------
      1          6           0        3.639314    1.468332   -0.450962
      2          6           0        2.459789    2.206319   -0.571459
      3          6           0        1.211765    1.573087   -0.564852
      4          6           0        1.184287    0.170112   -0.423779
      5          6           0        2.356641   -0.559444   -0.301595
      6          6           0        3.616580    0.072739   -0.315062
      7          6           0       -1.182934    0.169550   -0.440373
      8          6           0       -1.208853    1.573532   -0.571323
      9          6           0       -2.456233    2.208006   -0.576537
     10          1           0       -2.500112    3.291494   -0.685168
     11          6           0       -3.636571    1.470867   -0.458487
     12          6           0       -3.615212    0.074706   -0.328927
     13          6           0       -2.356130   -0.559277   -0.321685
     14          1           0        2.504011    3.291278   -0.664048
     15          1           0        2.267825   -1.643429   -0.223055
     16          1           0       -4.590813    1.998451   -0.495976
     17          7           0        0.001930    2.272039   -0.686331
     18          6           0        0.002433    3.695554   -0.787086
     19          6           0        0.000756    4.480944    0.406335
     20          6           0        0.004404    4.296600   -2.028847
     21          6           0       -0.001030    3.896562    1.701519
     22          6           0        0.001147    5.910075    0.284119
     23          6           0        0.004729    5.707614   -2.143691
     24          1           0        0.005499    3.665836   -2.919590
     25          6           0       -0.002362    4.691461    2.827774
     26          1           0       -0.001175    2.809762    1.790688
     27          6           0       -0.000369    6.698358    1.468029
     28          6           0        0.003123    6.494612   -1.012311
     29          1           0        0.006186    6.166550   -3.134681
     30          6           0       -0.002057    6.104197    2.711539
     31          1           0       -0.003471    4.231182    3.818430
     32          1           0       -0.000029    7.787166    1.373108
     33          1           0        0.003359    7.584254   -1.096298
     34          1           0       -0.003013    6.720733    3.613370
     35          1           0       -2.266662   -1.639020   -0.198236
     36          1           0        4.591672    2.000341   -0.434128
     37          6           0        4.863350   -0.714319   -0.182946
     38          6           0        4.907464   -1.893710    0.583186
     39          6           0        6.052509   -0.311570   -0.818342
     40          6           0        6.081562   -2.631441    0.709281
     41          1           0        4.009304   -2.231547    1.103996
     42          6           0        7.226686   -1.048745   -0.691143
     43          1           0        6.053252    0.587463   -1.437808
     44          6           0        7.270135   -2.226869    0.075794
     45          1           0        6.072452   -3.550479    1.298936
     46          1           0        8.133951   -0.695227   -1.185447
     47          6           0        8.520499   -3.012362    0.210457
     48          6           0        8.837765   -3.668438    1.414229
     49          6           0        9.425218   -3.123741   -0.861569
     50          6           0       10.014339   -4.407822    1.541449
     51          1           0        8.164678   -3.576185    2.269128
     52          6           0       10.602350   -3.862340   -0.734975
     53          1           0        9.189400   -2.645590   -1.814544
     54          6           0       10.903071   -4.508494    0.467379
     55          1           0       10.242824   -4.901607    2.489219
     56          1           0       11.285247   -3.941158   -1.584528
     57          1           0       11.824446   -5.087158    0.566720
     58          6           0       -4.863016   -0.712451   -0.208114
     59          6           0       -4.961659   -2.013966   -0.733566
     60          6           0       -5.998334   -0.187849    0.436787
     61          6           0       -6.136782   -2.752420   -0.621802
     62          1           0       -4.107160   -2.450582   -1.254435
     63          6           0       -7.173538   -0.926049    0.547515
     64          1           0       -5.954263    0.811300    0.874749
     65          6           0       -7.271687   -2.226494    0.020906
     66          1           0       -6.169915   -3.765579   -1.027795
     67          1           0       -8.039357   -0.478809    1.040252
     68          6           0       -8.523135   -3.012868    0.139479
     69          6           0       -8.934382   -3.879419   -0.890135
     70          6           0       -9.334873   -2.914665    1.284723
     71          6           0      -10.111967   -4.619797   -0.779053
     72          1           0       -8.335242   -3.953882   -1.800024
     73          6           0      -10.512954   -3.654181    1.396330
     74          1           0       -9.024303   -2.268882    2.108695
     75          6           0      -10.907658   -4.510898    0.364895
     76          1           0      -10.414723   -5.279874   -1.595710
     77          1           0      -11.122389   -3.567386    2.299304
     78          1           0      -11.829803   -5.090294    0.452098
     79          8           0        0.000719   -0.528123   -0.422691
 ---------------------------------------------------------------------
 Rotational constants (GHZ):      0.0684676      0.0227259      0.0178895
 Leave Link  202 at Wed Feb 17 07:43:25 2021, MaxMem=  5242880000 cpu:         0.1
 (Enter /opt/nce/packages/global/g09/l301.exe)
 Standard basis: def2TZVP (5D, 7F)
 Ernie: Thresh=  0.10000D-02 Tol=  0.10000D-05 Strict=F.
  1674 basis functions,  2696 primitive gaussians,  1914 cartesian basis functions
   161 alpha electrons      161 beta electrons
       nuclear repulsion energy      4867.1085519489 Hartrees.
 IExCor= 4134 DFT=T Ex+Corr=M06L ExCW=0 ScaHFX=  0.000000
 ScaDFX=  1.000000  1.000000  1.000000  1.000000 ScalE2=  1.000000  1.000000
 IRadAn=      5 IRanWt=     -1 IRanGd=            0 ICorTp=0 IEmpDi=  4
 NAtoms=   79 NActive=   79 NUniq=   79 SFac= 1.00D+00 NAtFMM=   60 NAOKFM=T Big=T
 Integral buffers will be    131072 words long.
 Raffenetti 2 integral format.
 Two-electron integral symmetry is turned off.
 ------------------------------------------------------------------------------
 Polarizable Continuum Model (PCM)
 =================================
 Model                : PCM (using non-symmetric T matrix).
 Atomic radii         : SMD-Coulomb.
 Polarization charges : Total charges.
 Charge compensation  : None.
 Solution method      : On-the-fly selection.
 Cavity type          : VdW (van der Waals Surface) (Alpha=1.000).
 Cavity algorithm     : GePol (No added spheres)
                        Default sphere list used, NSphG=   79.
                        Lebedev-Laikov grids with approx.  5.0 points / Ang**2.
                        Smoothing algorithm: York/Karplus (Gamma=1.0000).
                        Polarization charges: spherical gaussians, with
                                              point-specific exponents (IZeta= 3).
                        Self-potential: point-specific (ISelfS= 7).
                        Self-field    : sphere-specific E.n sum rule (ISelfD= 2).
 1st derivatives      : Analytical E(r).r(x)/FMM algorithm (CHGder, D1EAlg=3).
                        Cavity 1st derivative terms included.
 Solvent              : n,n-DiMethylAcetamide, Eps=  37.781000 Eps(inf)=   2.067844
 ------------------------------------------------------------------------------
 GePol: Number of generator spheres                  =      79
 GePol: Total number of spheres                      =      79
 GePol: Number of exposed spheres                    =      79 (100.00%)
 GePol: Number of points                             =    5996
 GePol: Average weight of points                     =       0.11
 GePol: Minimum weight of points                     =   0.27D-11
 GePol: Maximum weight of points                     =    0.17992
 GePol: Number of points with low weight             =     347
 GePol: Fraction of low-weight points (<1% of avg)   =       5.79%
 GePol: Cavity surface area                          =    644.542 Ang**2
 GePol: Cavity volume                                =    643.305 Ang**3
 ------------------------------------------------------------------------------
 Atomic radii for non-electrostatic terms: SMD-CDS.
 ------------------------------------------------------------------------------
 PCM non-electrostatic energy =        -0.0120054272 Hartrees.
 Nuclear repulsion after PCM non-electrostatic terms =     4867.0965465217 Hartrees.
 Leave Link  301 at Wed Feb 17 07:43:25 2021, MaxMem=  5242880000 cpu:         2.5
 (Enter /opt/nce/packages/global/g09/l302.exe)
 NPDir=0 NMtPBC=     1 NCelOv=     1 NCel=       1 NClECP=     1 NCelD=      1
         NCelK=      1 NCelE2=     1 NClLst=     1 CellRange=     0.0.
 One-electron integrals computed using PRISM.
   1 Symmetry operations used in ECPInt.
 ECPInt:  NShTT=  212878 NPrTT=  658380 LenC2=  123096 LenP2D=  249713.
 LDataN:  DoStor=T MaxTD1= 6 Len=  172
 NBasis=  1674 RedAO= T EigKep=  4.36D-06  NBF=  1674
 NBsUse=  1674 1.00D-06 EigRej= -1.00D+00 NBFU=  1674
 Precomputing XC quadrature grid using
 IXCGrd= 4 IRadAn=           5 IRanWt=          -1 IRanGd=           0 AccXCQ= 0.00D+00.
 Generated NRdTot=       0 NPtTot=           0 NUsed=           0 NTot=          32
 NSgBfM=  1538  1545  1545  1549  1552 MxSgAt=    79 MxSgA2=    79.
 Leave Link  302 at Wed Feb 17 07:43:31 2021, MaxMem=  5242880000 cpu:        75.4
 (Enter /opt/nce/packages/global/g09/l303.exe)
 DipDrv:  MaxL=1.
 Leave Link  303 at Wed Feb 17 07:43:32 2021, MaxMem=  5242880000 cpu:         6.1
 (Enter /opt/nce/packages/global/g09/l401.exe)
 ExpMin= 9.52D-02 ExpMax= 2.70D+04 ExpMxC= 9.22D+02 IAcc=3 IRadAn=         5 AccDes= 0.00D+00
 Harris functional with IExCor= 1009 and IRadAn=       5 diagonalized for initial guess.
 HarFok:  IExCor= 1009 AccDes= 0.00D+00 IRadAn=         5 IDoV= 1 UseB2=F ITyADJ=14
 ICtDFT=  3500011 ScaDFX=  1.000000  1.000000  1.000000  1.000000
 FoFCou: FMM=F IPFlag=           0 FMFlag=      100000 FMFlg1=        2001
         NFxFlg=           0 DoJE=T BraDBF=F KetDBF=T FulRan=T
         wScrn=  0.000000 ICntrl=     500 IOpCl=  0 I1Cent=   200000004 NGrid=           0
         NMat0=    1 NMatS0=      1 NMatT0=    0 NMatD0=    1 NMtDS0=    0 NMtDT0=    0
 Symmetry not used in FoFCou.
 Harris En= -1900.59589125239    
 JPrj=0 DoOrth=F DoCkMO=F.
 Leave Link  401 at Wed Feb 17 07:43:50 2021, MaxMem=  5242880000 cpu:       217.2
 (Enter /opt/nce/packages/global/g09/l502.exe)
 Closed shell SCF:
 Using DIIS extrapolation, IDIIS=  1040.
 Two-electron integral symmetry not used.
 IVT=    11043348 IEndB=    11043348 NGot=  5242880000 MDV=  5235518603
 LenX=  5235518603 LenY=  5231853293
 Requested convergence on RMS density matrix=1.00D-08 within 128 cycles.
 Requested convergence on MAX density matrix=1.00D-06.
 Requested convergence on             energy=1.00D-06.
 No special actions if energy rises.
 Fock matrices will be formed incrementally for  20 cycles.

 Cycle   1  Pass 1  IDiag  1:
 FoFJK:  IHMeth= 1 ICntrl=     500 DoSepK=F KAlg= 0 I1Cent=   0 FoldK=F
 IRaf= 510000000 NMat=   1 IRICut=       1 DoRegI=T DoRafI=F ISym2E= 0.
 FoFCou: FMM=T IPFlag=           0 FMFlag=      100000 FMFlg1=        2001
         NFxFlg=           0 DoJE=T BraDBF=F KetDBF=F FulRan=T
         wScrn=  0.000000 ICntrl=     500 IOpCl=  0 I1Cent=           0 NGrid=           0
         NMat0=    1 NMatS0=      1 NMatT0=    0 NMatD0=    1 NMtDS0=    0 NMtDT0=    0
 Symmetry not used in FoFCou.
 FMM levels:  10  Number of levels for PrismC:   9
 Inv3:  Mode=1 IEnd=   107856048.
 Iteration    1 A*A^-1 deviation from unit magnitude is 9.10D-15 for   5993.
 Iteration    1 A*A^-1 deviation from orthogonality  is 3.57D-15 for   4493   3288.
 Iteration    1 A^-1*A deviation from unit magnitude is 9.33D-15 for   5993.
 Iteration    1 A^-1*A deviation from orthogonality  is 3.20D-08 for   5490   5472.
 Iteration    2 A*A^-1 deviation from unit magnitude is 2.66D-15 for     71.
 Iteration    2 A*A^-1 deviation from orthogonality  is 3.11D-15 for   4894    266.
 Iteration    2 A^-1*A deviation from unit magnitude is 9.99D-16 for   3029.
 Iteration    2 A^-1*A deviation from orthogonality  is 6.14D-16 for   3263   1403.
 E= -1901.09605450584    
 DIIS: error= 1.73D-02 at cycle   1 NSaved=   1.
 NSaved= 1 IEnMin= 1 EnMin= -1901.09605450584     IErMin= 1 ErrMin= 1.73D-02
 ErrMax= 1.73D-02  0.00D+00 EMaxC= 1.00D-01 BMatC= 1.06D+00 BMatP= 1.06D+00
 IDIUse=3 WtCom= 8.27D-01 WtEn= 1.73D-01
 Coeff-Com:  0.100D+01
 Coeff-En:   0.100D+01
 Coeff:      0.100D+01
 Gap=     0.136 Goal=   None    Shift=    0.000
 GapD=    0.136 DampG=1.000 DampE=0.500 DampFc=0.5000 IDamp=-1.
 Damping current iteration by 5.00D-01
 RMSDP=2.22D-03 MaxDP=3.49D-01              OVMax= 2.77D-01

 Cycle   2  Pass 1  IDiag  1:
 RMSU=  1.10D-03    CP:  9.73D-01
 E= -1901.44600250270     Delta-E=       -0.349947996856 Rises=F Damp=T
 DIIS: error= 5.93D-03 at cycle   2 NSaved=   2.
 NSaved= 2 IEnMin= 2 EnMin= -1901.44600250270     IErMin= 2 ErrMin= 5.93D-03
 ErrMax= 5.93D-03  0.00D+00 EMaxC= 1.00D-01 BMatC= 1.42D-01 BMatP= 1.06D+00
 IDIUse=3 WtCom= 9.41D-01 WtEn= 5.93D-02
 Coeff-Com:  0.556D-01 0.944D+00
 Coeff-En:   0.202D+00 0.798D+00
 Coeff:      0.643D-01 0.936D+00
 Gap=     0.116 Goal=   None    Shift=    0.000
 RMSDP=1.28D-03 MaxDP=8.54D-02 DE=-3.50D-01 OVMax= 5.38D-01

 Cycle   3  Pass 1  IDiag  1:
 RMSU=  1.28D-03    CP:  9.68D-01  1.09D+00
 E= -1901.71001943318     Delta-E=       -0.264016930480 Rises=F Damp=F
 DIIS: error= 1.09D-02 at cycle   3 NSaved=   3.
 NSaved= 3 IEnMin= 3 EnMin= -1901.71001943318     IErMin= 2 ErrMin= 5.93D-03
 ErrMax= 1.09D-02  0.00D+00 EMaxC= 1.00D-01 BMatC= 2.69D-01 BMatP= 1.42D-01
 IDIUse=2 WtCom= 0.00D+00 WtEn= 1.00D+00
 Coeff-En:   0.000D+00 0.217D+00 0.783D+00
 Coeff:      0.000D+00 0.217D+00 0.783D+00
 Gap=     0.135 Goal=   None    Shift=    0.000
 RMSDP=1.14D-03 MaxDP=1.18D-01 DE=-2.64D-01 OVMax= 3.45D-01

 Cycle   4  Pass 1  IDiag  1:
 RMSU=  9.27D-04    CP:  9.44D-01  1.26D+00  5.10D-01
 E= -1901.04973565683     Delta-E=        0.660283776343 Rises=F Damp=F
 DIIS: error= 2.22D-02 at cycle   4 NSaved=   4.
 NSaved= 4 IEnMin= 3 EnMin= -1901.71001943318     IErMin= 2 ErrMin= 5.93D-03
 ErrMax= 2.22D-02  0.00D+00 EMaxC= 1.00D-01 BMatC= 8.77D-01 BMatP= 1.42D-01
 IDIUse=2 WtCom= 0.00D+00 WtEn= 1.00D+00
 Coeff-En:   0.000D+00 0.000D+00 0.692D+00 0.308D+00
 Coeff:      0.000D+00 0.000D+00 0.692D+00 0.308D+00
 Gap=     0.111 Goal=   None    Shift=    0.000
 RMSDP=5.16D-04 MaxDP=5.64D-02 DE= 6.60D-01 OVMax= 2.48D-01

 Cycle   5  Pass 1  IDiag  1:
 RMSU=  2.40D-04    CP:  9.52D-01  1.16D+00  6.90D-01  5.96D-01
 E= -1901.97222360016     Delta-E=       -0.922487943325 Rises=F Damp=F
 DIIS: error= 4.66D-03 at cycle   5 NSaved=   5.
 NSaved= 5 IEnMin= 5 EnMin= -1901.97222360016     IErMin= 5 ErrMin= 4.66D-03
 ErrMax= 4.66D-03  0.00D+00 EMaxC= 1.00D-01 BMatC= 4.49D-02 BMatP= 1.42D-01
 IDIUse=3 WtCom= 9.53D-01 WtEn= 4.66D-02
 Coeff-Com:  0.774D-02-0.923D-02 0.266D+00-0.152D-01 0.751D+00
 Coeff-En:   0.000D+00 0.000D+00 0.198D+00 0.000D+00 0.802D+00
 Coeff:      0.738D-02-0.880D-02 0.263D+00-0.145D-01 0.753D+00
 Gap=     0.084 Goal=   None    Shift=    0.000
 RMSDP=2.18D-04 MaxDP=2.47D-02 DE=-9.22D-01 OVMax= 1.04D-01

 Cycle   6  Pass 1  IDiag  1:
 RMSU=  9.84D-05    CP:  9.57D-01  1.14D+00  7.68D-01  4.20D-01  9.04D-01
 E= -1902.01533981079     Delta-E=       -0.043116210637 Rises=F Damp=F
 DIIS: error= 1.32D-03 at cycle   6 NSaved=   6.
 NSaved= 6 IEnMin= 6 EnMin= -1902.01533981079     IErMin= 6 ErrMin= 1.32D-03
 ErrMax= 1.32D-03  0.00D+00 EMaxC= 1.00D-01 BMatC= 4.77D-03 BMatP= 4.49D-02
 IDIUse=3 WtCom= 9.87D-01 WtEn= 1.32D-02
 Coeff-Com:  0.334D-02-0.100D-01 0.111D+00-0.563D-01 0.520D+00 0.432D+00
 Coeff-En:   0.000D+00 0.000D+00 0.000D+00 0.000D+00 0.000D+00 0.100D+01
 Coeff:      0.330D-02-0.987D-02 0.109D+00-0.555D-01 0.513D+00 0.440D+00
 Gap=     0.083 Goal=   None    Shift=    0.000
 RMSDP=6.10D-05 MaxDP=7.92D-03 DE=-4.31D-02 OVMax= 2.08D-02

 Cycle   7  Pass 1  IDiag  1:
 RMSU=  3.62D-05    CP:  9.56D-01  1.14D+00  7.64D-01  4.33D-01  9.80D-01
                    CP:  5.63D-01
 E= -1902.02019685304     Delta-E=       -0.004857042242 Rises=F Damp=F
 DIIS: error= 2.77D-04 at cycle   7 NSaved=   7.
 NSaved= 7 IEnMin= 7 EnMin= -1902.02019685304     IErMin= 7 ErrMin= 2.77D-04
 ErrMax= 2.77D-04  0.00D+00 EMaxC= 1.00D-01 BMatC= 1.83D-04 BMatP= 4.77D-03
 IDIUse=3 WtCom= 9.97D-01 WtEn= 2.77D-03
 Coeff-Com:  0.685D-03-0.202D-02 0.464D-01-0.271D-01 0.216D+00 0.237D+00
 Coeff-Com:  0.529D+00
 Coeff-En:   0.000D+00 0.000D+00 0.000D+00 0.000D+00 0.000D+00 0.000D+00
 Coeff-En:   0.100D+01
 Coeff:      0.683D-03-0.202D-02 0.463D-01-0.271D-01 0.215D+00 0.236D+00
 Coeff:      0.531D+00
 Gap=     0.083 Goal=   None    Shift=    0.000
 RMSDP=1.60D-05 MaxDP=2.04D-03 DE=-4.86D-03 OVMax= 6.13D-03

 Cycle   8  Pass 1  IDiag  1:
 RMSU=  1.14D-05    CP:  9.56D-01  1.13D+00  7.67D-01  4.29D-01  9.75D-01
                    CP:  6.38D-01  8.40D-01
 E= -1902.02034714134     Delta-E=       -0.000150288307 Rises=F Damp=F
 DIIS: error= 1.03D-04 at cycle   8 NSaved=   8.
 NSaved= 8 IEnMin= 8 EnMin= -1902.02034714134     IErMin= 8 ErrMin= 1.03D-04
 ErrMax= 1.03D-04  0.00D+00 EMaxC= 1.00D-01 BMatC= 3.46D-05 BMatP= 1.83D-04
 IDIUse=3 WtCom= 9.99D-01 WtEn= 1.03D-03
 Coeff-Com: -0.355D-03 0.107D-02 0.808D-02-0.564D-02 0.275D-01 0.627D-01
 Coeff-Com:  0.337D+00 0.569D+00
 Coeff-En:   0.000D+00 0.000D+00 0.000D+00 0.000D+00 0.000D+00 0.000D+00
 Coeff-En:   0.131D+00 0.869D+00
 Coeff:     -0.355D-03 0.107D-02 0.807D-02-0.564D-02 0.275D-01 0.626D-01
 Coeff:      0.337D+00 0.570D+00
 Gap=     0.083 Goal=   None    Shift=    0.000
 RMSDP=5.84D-06 MaxDP=6.48D-04 DE=-1.50D-04 OVMax= 2.32D-03

 Cycle   9  Pass 1  IDiag  1:
 RMSU=  4.64D-06    CP:  9.56D-01  1.13D+00  7.67D-01  4.28D-01  9.81D-01
                    CP:  6.36D-01  9.21D-01  9.50D-01
 E= -1902.02037661224     Delta-E=       -0.000029470898 Rises=F Damp=F
 DIIS: error= 4.65D-05 at cycle   9 NSaved=   9.
 NSaved= 9 IEnMin= 9 EnMin= -1902.02037661224     IErMin= 9 ErrMin= 4.65D-05
 ErrMax= 4.65D-05  0.00D+00 EMaxC= 1.00D-01 BMatC= 4.30D-06 BMatP= 3.46D-05
 IDIUse=1 WtCom= 1.00D+00 WtEn= 0.00D+00
 Coeff-Com: -0.268D-03 0.632D-03 0.628D-03-0.387D-03-0.592D-02 0.137D-01
 Coeff-Com:  0.151D+00 0.350D+00 0.491D+00
 Coeff:     -0.268D-03 0.632D-03 0.628D-03-0.387D-03-0.592D-02 0.137D-01
 Coeff:      0.151D+00 0.350D+00 0.491D+00
 Gap=     0.083 Goal=   None    Shift=    0.000
 RMSDP=2.96D-06 MaxDP=3.83D-04 DE=-2.95D-05 OVMax= 7.70D-04

 Cycle  10  Pass 1  IDiag  1:
 RMSU=  1.99D-06    CP:  9.56D-01  1.13D+00  7.67D-01  4.27D-01  9.78D-01
                    CP:  6.46D-01  9.18D-01  1.02D+00  9.74D-01
 E= -1902.02038086804     Delta-E=       -0.000004255801 Rises=F Damp=F
 DIIS: error= 1.22D-05 at cycle  10 NSaved=  10.
 NSaved=10 IEnMin=10 EnMin= -1902.02038086804     IErMin=10 ErrMin= 1.22D-05
 ErrMax= 1.22D-05  0.00D+00 EMaxC= 1.00D-01 BMatC= 3.49D-07 BMatP= 4.30D-06
 IDIUse=1 WtCom= 1.00D+00 WtEn= 0.00D+00
 Coeff-Com: -0.973D-04 0.137D-03-0.378D-03 0.375D-03-0.555D-02 0.119D-02
 Coeff-Com:  0.441D-01 0.122D+00 0.273D+00 0.565D+00
 Coeff:     -0.973D-04 0.137D-03-0.378D-03 0.375D-03-0.555D-02 0.119D-02
 Coeff:      0.441D-01 0.122D+00 0.273D+00 0.565D+00
 Gap=     0.083 Goal=   None    Shift=    0.000
 RMSDP=7.67D-07 MaxDP=1.00D-04 DE=-4.26D-06 OVMax= 1.83D-04

 Cycle  11  Pass 1  IDiag  1:
 RMSU=  5.06D-07    CP:  9.56D-01  1.13D+00  7.67D-01  4.27D-01  9.78D-01
                    CP:  6.47D-01  9.24D-01  1.04D+00  1.05D+00  9.86D-01
 E= -1902.02038118106     Delta-E=       -0.000000313015 Rises=F Damp=F
 DIIS: error= 3.10D-06 at cycle  11 NSaved=  11.
 NSaved=11 IEnMin=11 EnMin= -1902.02038118106     IErMin=11 ErrMin= 3.10D-06
 ErrMax= 3.10D-06  0.00D+00 EMaxC= 1.00D-01 BMatC= 4.99D-08 BMatP= 3.49D-07
 IDIUse=1 WtCom= 1.00D+00 WtEn= 0.00D+00
 Coeff-Com: -0.428D-04 0.495D-04-0.291D-03 0.242D-03-0.269D-02-0.381D-03
 Coeff-Com:  0.121D-01 0.391D-01 0.115D+00 0.340D+00 0.497D+00
 Coeff:     -0.428D-04 0.495D-04-0.291D-03 0.242D-03-0.269D-02-0.381D-03
 Coeff:      0.121D-01 0.391D-01 0.115D+00 0.340D+00 0.497D+00
 Gap=     0.083 Goal=   None    Shift=    0.000
 RMSDP=3.04D-07 MaxDP=2.70D-05 DE=-3.13D-07 OVMax= 7.66D-05

 Cycle  12  Pass 1  IDiag  1:
 RMSU=  1.98D-07    CP:  9.56D-01  1.13D+00  7.67D-01  4.27D-01  9.78D-01
                    CP:  6.47D-01  9.24D-01  1.06D+00  1.08D+00  1.02D+00
                    CP:  1.01D+00
 E= -1902.02038122938     Delta-E=       -0.000000048326 Rises=F Damp=F
 DIIS: error= 1.58D-06 at cycle  12 NSaved=  12.
 NSaved=12 IEnMin=12 EnMin= -1902.02038122938     IErMin=12 ErrMin= 1.58D-06
 ErrMax= 1.58D-06  0.00D+00 EMaxC= 1.00D-01 BMatC= 6.07D-09 BMatP= 4.99D-08
 IDIUse=1 WtCom= 1.00D+00 WtEn= 0.00D+00
 Coeff-Com: -0.793D-05 0.103D-04-0.873D-04 0.453D-04-0.236D-03-0.413D-03
 Coeff-Com: -0.345D-02-0.602D-02 0.191D-02 0.655D-01 0.279D+00 0.664D+00
 Coeff:     -0.793D-05 0.103D-04-0.873D-04 0.453D-04-0.236D-03-0.413D-03
 Coeff:     -0.345D-02-0.602D-02 0.191D-02 0.655D-01 0.279D+00 0.664D+00
 Gap=     0.083 Goal=   None    Shift=    0.000
 RMSDP=2.22D-07 MaxDP=2.97D-05 DE=-4.83D-08 OVMax= 2.48D-05

 Cycle  13  Pass 1  IDiag  1:
 RMSU=  8.83D-08    CP:  9.56D-01  1.13D+00  7.67D-01  4.27D-01  9.78D-01
                    CP:  6.48D-01  9.25D-01  1.06D+00  1.10D+00  1.07D+00
                    CP:  1.16D+00  1.05D+00
 E= -1902.02038123457     Delta-E=       -0.000000005188 Rises=F Damp=F
 DIIS: error= 9.27D-07 at cycle  13 NSaved=  13.
 NSaved=13 IEnMin=13 EnMin= -1902.02038123457     IErMin=13 ErrMin= 9.27D-07
 ErrMax= 9.27D-07  0.00D+00 EMaxC= 1.00D-01 BMatC= 1.55D-09 BMatP= 6.07D-09
 IDIUse=1 WtCom= 1.00D+00 WtEn= 0.00D+00
 Coeff-Com: -0.196D-05 0.256D-05-0.195D-04 0.356D-06 0.159D-03-0.174D-03
 Coeff-Com: -0.326D-02-0.751D-02-0.103D-01 0.690D-02 0.128D+00 0.428D+00
 Coeff-Com:  0.458D+00
 Coeff:     -0.196D-05 0.256D-05-0.195D-04 0.356D-06 0.159D-03-0.174D-03
 Coeff:     -0.326D-02-0.751D-02-0.103D-01 0.690D-02 0.128D+00 0.428D+00
 Coeff:      0.458D+00
 Gap=     0.083 Goal=   None    Shift=    0.000
 RMSDP=5.90D-08 MaxDP=4.98D-06 DE=-5.19D-09 OVMax= 1.01D-05

 Cycle  14  Pass 1  IDiag  1:
 RMSU=  2.78D-08    CP:  9.56D-01  1.13D+00  7.67D-01  4.27D-01  9.78D-01
                    CP:  6.48D-01  9.25D-01  1.07D+00  1.11D+00  1.08D+00
                    CP:  1.19D+00  1.14D+00  1.09D+00
 E= -1902.02038123616     Delta-E=       -0.000000001586 Rises=F Damp=F
 DIIS: error= 2.79D-07 at cycle  14 NSaved=  14.
 NSaved=14 IEnMin=14 EnMin= -1902.02038123616     IErMin=14 ErrMin= 2.79D-07
 ErrMax= 2.79D-07  0.00D+00 EMaxC= 1.00D-01 BMatC= 9.13D-11 BMatP= 1.55D-09
 IDIUse=1 WtCom= 1.00D+00 WtEn= 0.00D+00
 Coeff-Com: -0.913D-06 0.165D-05-0.184D-05-0.428D-05 0.961D-04-0.447D-04
 Coeff-Com: -0.117D-02-0.278D-02-0.512D-02-0.517D-02 0.261D-01 0.122D+00
 Coeff-Com:  0.223D+00 0.643D+00
 Coeff:     -0.913D-06 0.165D-05-0.184D-05-0.428D-05 0.961D-04-0.447D-04
 Coeff:     -0.117D-02-0.278D-02-0.512D-02-0.517D-02 0.261D-01 0.122D+00
 Coeff:      0.223D+00 0.643D+00
 Gap=     0.083 Goal=   None    Shift=    0.000
 RMSDP=2.65D-08 MaxDP=2.42D-06 DE=-1.59D-09 OVMax= 2.72D-06

 Cycle  15  Pass 1  IDiag  1:
 RMSU=  9.34D-09    CP:  9.56D-01  1.13D+00  7.67D-01  4.27D-01  9.78D-01
                    CP:  6.48D-01  9.25D-01  1.07D+00  1.11D+00  1.08D+00
                    CP:  1.21D+00  1.17D+00  1.19D+00  1.06D+00
[...]
 Alpha virt. eigenvalues --    2.69246   2.69414   2.70233   2.70303   2.70596
 Alpha virt. eigenvalues --    2.70983   2.71335   2.71467   2.71835   2.72153
 Alpha virt. eigenvalues --    2.72668   2.72672   2.72906   2.73028   2.73189
 Alpha virt. eigenvalues --    2.73306   2.73428   2.73646   2.73822   2.73967
 Alpha virt. eigenvalues --    2.74302   2.74573   2.74870   2.75248   2.75299
 Alpha virt. eigenvalues --    2.76265   2.76488   2.76581   2.76813   2.77240
 Alpha virt. eigenvalues --    2.77645   2.77944   2.78160   2.78403   2.78593
 Alpha virt. eigenvalues --    2.78798   2.78937   2.79164   2.79575   2.79700
 Alpha virt. eigenvalues --    2.80055   2.80177   2.80540   2.81041   2.81260
 Alpha virt. eigenvalues --    2.81368   2.81430   2.81800   2.82046   2.82202
 Alpha virt. eigenvalues --    2.82858   2.83104   2.83215   2.83783   2.84149
 Alpha virt. eigenvalues --    2.84280   2.84796   2.84885   2.85010   2.85262
 Alpha virt. eigenvalues --    2.85539   2.86040   2.86156   2.86231   2.87264
 Alpha virt. eigenvalues --    2.87502   2.87688   2.87971   2.88025   2.88235
 Alpha virt. eigenvalues --    2.88432   2.88716   2.89084   2.89581   2.89796
 Alpha virt. eigenvalues --    2.89910   2.90104   2.90297   2.90697   2.90783
 Alpha virt. eigenvalues --    2.91264   2.91600   2.91783   2.92013   2.92193
 Alpha virt. eigenvalues --    2.92365   2.92787   2.92861   2.93557   2.93709
 Alpha virt. eigenvalues --    2.93759   2.93966   2.94251   2.94467   2.94685
 Alpha virt. eigenvalues --    2.94944   2.95375   2.95510   2.95827   2.96272
 Alpha virt. eigenvalues --    2.96495   2.96743   2.96849   2.97347   2.97450
 Alpha virt. eigenvalues --    2.97777   2.98496   2.98722   2.98875   2.99217
 Alpha virt. eigenvalues --    2.99683   3.00164   3.00464   3.00792   3.01103
 Alpha virt. eigenvalues --    3.01794   3.02150   3.02631   3.02677   3.03080
 Alpha virt. eigenvalues --    3.03350   3.03881   3.04338   3.05099   3.05310
 Alpha virt. eigenvalues --    3.05746   3.05870   3.06143   3.06515   3.06707
 Alpha virt. eigenvalues --    3.06828   3.07296   3.07754   3.07871   3.08204
 Alpha virt. eigenvalues --    3.08717   3.08917   3.09110   3.09361   3.10066
 Alpha virt. eigenvalues --    3.10409   3.10694   3.10835   3.11536   3.11980
 Alpha virt. eigenvalues --    3.11996   3.12191   3.12703   3.12767   3.13079
 Alpha virt. eigenvalues --    3.14144   3.14392   3.14910   3.15158   3.15331
 Alpha virt. eigenvalues --    3.15640   3.16053   3.16236   3.16719   3.16759
 Alpha virt. eigenvalues --    3.16986   3.17641   3.17782   3.18389   3.18446
 Alpha virt. eigenvalues --    3.18848   3.19269   3.19960   3.20002   3.20113
 Alpha virt. eigenvalues --    3.20196   3.20481   3.20633   3.21067   3.21436
 Alpha virt. eigenvalues --    3.21734   3.21812   3.21972   3.22081   3.22378
 Alpha virt. eigenvalues --    3.22843   3.22969   3.23227   3.23685   3.23827
 Alpha virt. eigenvalues --    3.24027   3.24487   3.24765   3.24791   3.25139
 Alpha virt. eigenvalues --    3.25532   3.25792   3.25905   3.26290   3.26370
 Alpha virt. eigenvalues --    3.26592   3.26888   3.27349   3.27524   3.27777
 Alpha virt. eigenvalues --    3.27895   3.28010   3.28449   3.29373   3.30075
 Alpha virt. eigenvalues --    3.30209   3.31067   3.31227   3.31627   3.31871
 Alpha virt. eigenvalues --    3.32517   3.32743   3.32940   3.33149   3.33342
 Alpha virt. eigenvalues --    3.33581   3.33962   3.34182   3.34440   3.34841
 Alpha virt. eigenvalues --    3.34889   3.35141   3.35514   3.35849   3.36144
 Alpha virt. eigenvalues --    3.36733   3.37177   3.37387   3.37949   3.38055
 Alpha virt. eigenvalues --    3.38288   3.38471   3.38706   3.38880   3.38953
 Alpha virt. eigenvalues --    3.39063   3.39585   3.39747   3.40091   3.40170
 Alpha virt. eigenvalues --    3.40485   3.41003   3.41214   3.41437   3.41640
 Alpha virt. eigenvalues --    3.41944   3.42645   3.42726   3.43117   3.43271
 Alpha virt. eigenvalues --    3.43489   3.43753   3.44088   3.44114   3.44713
 Alpha virt. eigenvalues --    3.44892   3.45223   3.45397   3.45540   3.45894
 Alpha virt. eigenvalues --    3.45983   3.46246   3.46713   3.46902   3.47084
 Alpha virt. eigenvalues --    3.47573   3.48198   3.48304   3.48359   3.48704
 Alpha virt. eigenvalues --    3.49072   3.49086   3.49382   3.49539   3.50097
 Alpha virt. eigenvalues --    3.50244   3.50603   3.50831   3.50972   3.51332
 Alpha virt. eigenvalues --    3.51551   3.51815   3.52010   3.52271   3.52611
 Alpha virt. eigenvalues --    3.52983   3.53230   3.53546   3.53944   3.54184
 Alpha virt. eigenvalues --    3.54403   3.54685   3.54893   3.55009   3.55405
 Alpha virt. eigenvalues --    3.55952   3.56200   3.56319   3.56521   3.56902
 Alpha virt. eigenvalues --    3.57519   3.57751   3.58144   3.58793   3.58854
 Alpha virt. eigenvalues --    3.59093   3.59564   3.59868   3.60348   3.60684
 Alpha virt. eigenvalues --    3.61166   3.61448   3.61872   3.62023   3.62373
 Alpha virt. eigenvalues --    3.62759   3.62955   3.63261   3.63705   3.63789
 Alpha virt. eigenvalues --    3.64058   3.64554   3.64631   3.64739   3.65294
 Alpha virt. eigenvalues --    3.65530   3.65980   3.66435   3.66494   3.66985
 Alpha virt. eigenvalues --    3.67260   3.67552   3.67877   3.68451   3.68958
 Alpha virt. eigenvalues --    3.69940   3.70394   3.70675   3.70840   3.71429
 Alpha virt. eigenvalues --    3.72502   3.72660   3.73006   3.73277   3.73763
 Alpha virt. eigenvalues --    3.74492   3.75598   3.75763   3.76089   3.76477
 Alpha virt. eigenvalues --    3.77081   3.77259   3.77819   3.78385   3.78713
 Alpha virt. eigenvalues --    3.79345   3.80687   3.80986   3.81058   3.83207
 Alpha virt. eigenvalues --    3.83269   3.83496   3.83872   3.85428   3.86300
 Alpha virt. eigenvalues --    3.86999   3.87394   3.87673   3.87975   3.89311
 Alpha virt. eigenvalues --    3.89634   3.90064   3.90326   3.91564   3.91941
 Alpha virt. eigenvalues --    3.92862   3.93297   3.93476   3.94203   3.95009
 Alpha virt. eigenvalues --    3.95269   3.95469   3.95769   3.96455   3.97053
 Alpha virt. eigenvalues --    3.97239   3.98769   3.98945   3.99520   3.99591
 Alpha virt. eigenvalues --    3.99972   4.00620   4.00675   4.01493   4.01798
 Alpha virt. eigenvalues --    4.02101   4.02372   4.02642   4.02983   4.03605
 Alpha virt. eigenvalues --    4.04003   4.05251   4.05813   4.05973   4.06176
 Alpha virt. eigenvalues --    4.06322   4.07575   4.08327   4.08567   4.10097
 Alpha virt. eigenvalues --    4.10145   4.10299   4.10809   4.11058   4.11728
 Alpha virt. eigenvalues --    4.12173   4.12982   4.15283   4.15998   4.16264
 Alpha virt. eigenvalues --    4.17025   4.17549   4.18103   4.19114   4.20214
 Alpha virt. eigenvalues --    4.20893   4.21164   4.22007   4.22460   4.23202
 Alpha virt. eigenvalues --    4.24480   4.24552   4.25007   4.25647   4.25755
 Alpha virt. eigenvalues --    4.26147   4.26941   4.27163   4.27303   4.27432
 Alpha virt. eigenvalues --    4.27869   4.28071   4.28534   4.28823   4.29163
 Alpha virt. eigenvalues --    4.29288   4.29985   4.30283   4.30655   4.31264
 Alpha virt. eigenvalues --    4.31631   4.31932   4.32250   4.32385   4.32947
 Alpha virt. eigenvalues --    4.32988   4.33252   4.33326   4.33713   4.34092
 Alpha virt. eigenvalues --    4.34577   4.34762   4.35328   4.35760   4.35796
 Alpha virt. eigenvalues --    4.36156   4.36367   4.37039   4.37059   4.37450
 Alpha virt. eigenvalues --    4.37560   4.38025   4.38302   4.39110   4.39317
 Alpha virt. eigenvalues --    4.39878   4.40212   4.41063   4.41393   4.41486
 Alpha virt. eigenvalues --    4.41950   4.42173   4.42369   4.42797   4.43859
 Alpha virt. eigenvalues --    4.44127   4.44830   4.45985   4.46422   4.47083
 Alpha virt. eigenvalues --    4.47817   4.48532   4.49188   4.50318   4.50950
 Alpha virt. eigenvalues --    4.51592   4.52362   4.53216   4.54080   4.54533
 Alpha virt. eigenvalues --    4.55185   4.55869   4.57207   4.57773   4.58295
 Alpha virt. eigenvalues --    4.59621   4.60380   4.60523   4.60951   4.61609
 Alpha virt. eigenvalues --    4.64347   4.64953   4.65952   4.67237   4.67621
 Alpha virt. eigenvalues --    4.68558   4.69655   4.70877   4.71464   4.71948
 Alpha virt. eigenvalues --    4.72632   4.73530   4.73663   4.74832   4.76474
 Alpha virt. eigenvalues --    4.76849   4.78262   4.78472   4.79171   4.79832
 Alpha virt. eigenvalues --    4.81482   4.81759   4.82112   4.83154   4.83673
 Alpha virt. eigenvalues --    4.85570   4.85835   4.86190   4.87265   4.88062
 Alpha virt. eigenvalues --    4.88377   4.88773   4.89117   4.89606   4.89634
 Alpha virt. eigenvalues --    4.89882   4.90270   4.90868   4.92156   4.93747
 Alpha virt. eigenvalues --    4.95285   4.95403   4.95528   4.96447   4.97606
 Alpha virt. eigenvalues --    4.99574   5.00285   5.01254   5.03230   5.04054
 Alpha virt. eigenvalues --    5.05911   5.06218   5.08224   5.08261   5.09056
 Alpha virt. eigenvalues --    5.09141   5.09892   5.10551   5.12922   5.13453
 Alpha virt. eigenvalues --    5.13808   5.14109   5.14728   5.15207   5.15858
 Alpha virt. eigenvalues --    5.18218   5.18893   5.19359   5.20788   5.21189
 Alpha virt. eigenvalues --    5.21674   5.21913   5.22048   5.24386   5.24816
 Alpha virt. eigenvalues --    5.27389   5.30426   5.30950   5.31679   5.32097
 Alpha virt. eigenvalues --    5.34675   5.36014   5.36164   5.37415   5.38480
 Alpha virt. eigenvalues --    5.38807   5.40522   5.42950   5.43511   5.43755
 Alpha virt. eigenvalues --    5.47372   5.50230   5.50604   5.51844   5.52495
 Alpha virt. eigenvalues --    5.52742   5.53536   5.56939   5.61373   5.63687
 Alpha virt. eigenvalues --    5.63748   5.64242   5.64476   5.66871   5.67623
 Alpha virt. eigenvalues --    5.71099   5.71303   5.71747   5.72025   5.73201
 Alpha virt. eigenvalues --    5.74045   5.74738   5.77105   5.80085   5.81545
 Alpha virt. eigenvalues --    5.83380   5.84157   5.85241   5.86009   5.87093
 Alpha virt. eigenvalues --    5.89891   5.90948   5.95819   6.05519   6.06873
 Alpha virt. eigenvalues --    6.08636   6.09575   6.19851   6.21932   6.29120
 Alpha virt. eigenvalues --    6.38108   6.39650   6.42517   6.71576   6.79263
 Alpha virt. eigenvalues --    7.02421   7.05154   7.06696   7.62620   7.71975
 Alpha virt. eigenvalues --   22.10213  22.14737  22.37022  22.46999  22.50173
 Alpha virt. eigenvalues --   22.61301  22.63081  22.70442  22.70458  22.71262
 Alpha virt. eigenvalues --   22.73146  22.73154  22.77191  22.81170  22.84315
 Alpha virt. eigenvalues --   22.85072  22.86001  22.86162  22.87145  22.87809
 Alpha virt. eigenvalues --   22.88597  22.90504  22.90754  22.92538  22.93510
 Alpha virt. eigenvalues --   22.95472  22.96199  22.96901  22.99588  23.01097
 Alpha virt. eigenvalues --   23.02873  23.05991  23.07145  23.09524  23.15009
 Alpha virt. eigenvalues --   23.21288  23.21579  23.25174  23.36796  23.37800
 Alpha virt. eigenvalues --   23.38235  23.55035  23.59648  23.67143  23.75509
 Alpha virt. eigenvalues --   23.79792  33.53480  44.74930
          Condensed to atoms (all electrons):
 Mulliken charges:
               1
     1  C   -0.256093
     2  C   -0.166049
     3  C    0.143596
     4  C    0.377033
     5  C   -0.367350
     6  C    0.296283
     7  C    0.373386
     8  C    0.146725
     9  C   -0.156422
    10  H    0.135301
    11  C   -0.273723
    12  C    0.302135
    13  C   -0.365301
    14  H    0.136139
    15  H    0.111443
    16  H    0.099637
    17  N   -0.093334
    18  C    0.155180
    19  C   -0.165818
    20  C   -0.223338
    21  C   -0.273810
    22  C    0.066979
    23  C    0.069117
    24  H    0.084021
    25  C   -0.033855
    26  H    0.131629
    27  C   -0.014306
    28  C   -0.127099
    29  H    0.088752
    30  C   -0.097747
    31  H    0.092015
    32  H    0.082555
    33  H    0.078599
    34  H    0.091439
    35  H    0.112024
    36  H    0.099238
    37  C    0.180067
    38  C   -0.197897
    39  C   -0.204546
    40  C   -0.220158
    41  H    0.097996
    42  C   -0.215297
    43  H    0.098615
    44  C    0.316473
    45  H    0.099328
    46  H    0.099335
    47  C    0.175484
    48  C   -0.246497
    49  C   -0.249475
    50  C   -0.088055
    51  H    0.101609
    52  C   -0.087524
    53  H    0.101680
    54  C   -0.094774
    55  H    0.090211
    56  H    0.090224
    57  H    0.094399
    58  C    0.185404
    59  C   -0.205392
    60  C   -0.205972
    61  C   -0.216283
    62  H    0.098088
    63  C   -0.214306
    64  H    0.098626
    65  C    0.314467
    66  H    0.099468
    67  H    0.099318
    68  C    0.175687
    69  C   -0.247262
    70  C   -0.248859
    71  C   -0.087611
    72  H    0.101683
    73  C   -0.088071
    74  H    0.101889
    75  C   -0.094718
    76  H    0.090277
    77  H    0.090197
    78  H    0.094423
    79  O   -0.541230
 Sum of Mulliken charges =  -0.00000
 Mulliken charges with hydrogens summed into heavy atoms:
               1
     1  C   -0.156855
     2  C   -0.029911
     3  C    0.143596
     4  C    0.377033
     5  C   -0.255907
     6  C    0.296283
     7  C    0.373386
     8  C    0.146725
     9  C   -0.021121
    11  C   -0.174085
    12  C    0.302135
    13  C   -0.253277
    17  N   -0.093334
    18  C    0.155180
    19  C   -0.165818
    20  C   -0.139317
    21  C   -0.142181
    22  C    0.066979
    23  C    0.157869
    25  C    0.058161
    27  C    0.068249
    28  C   -0.048501
    30  C   -0.006307
    37  C    0.180067
    38  C   -0.099901
    39  C   -0.105931
    40  C   -0.120830
    42  C   -0.115962
    44  C    0.316473
    47  C    0.175484
    48  C   -0.144888
    49  C   -0.147795
    50  C    0.002156
    52  C    0.002701
    54  C   -0.000375
    58  C    0.185404
    59  C   -0.107304
    60  C   -0.107346
    61  C   -0.116814
    63  C   -0.114988
    65  C    0.314467
    68  C    0.175687
    69  C   -0.145579
    70  C   -0.146970
    71  C    0.002666
    73  C    0.002126
    75  C   -0.000296
    79  O   -0.541230
 Electronic spatial extent (au):  <R**2>=          55334.7932
 Charge=             -0.0000 electrons
 Dipole moment (field-independent basis, Debye):
    X=             -0.0146    Y=              4.1641    Z=             -0.2267  Tot=              4.1703
 Quadrupole moment (field-independent basis, Debye-Ang):
   XX=           -266.6479   YY=           -231.9435   ZZ=           -264.5747
   XY=             -0.4570   XZ=             -7.0791   YZ=             -3.5837
 Traceless Quadrupole moment (field-independent basis, Debye-Ang):
   XX=            -12.2592   YY=             22.4452   ZZ=            -10.1860
   XY=             -0.4570   XZ=             -7.0791   YZ=             -3.5837
 Octapole moment (field-independent basis, Debye-Ang**2):
  XXX=              7.6893  YYY=            189.6391  ZZZ=             13.4245  XYY=            -16.3317
  XXY=           -118.0761  XXZ=              9.7070  XZZ=             13.9853  YZZ=             41.0755
  YYZ=             -5.5030  XYZ=            -68.9506
 Hexadecapole moment (field-independent basis, Debye-Ang**3):
 XXXX=         -53423.1643 YYYY=         -16329.4235 ZZZZ=          -1814.2005 XXXY=           -121.8489
 XXXZ=          -1479.4249 YYYX=            154.7622 YYYZ=              4.5810 ZZZX=            -14.9259
 ZZZY=             28.0657 XXYY=         -11690.7791 XXZZ=          -9829.8671 YYZZ=          -3047.6810
 XXYZ=           -126.8653 YYXZ=            467.4725 ZZXY=            -72.8580
 N-N= 4.892584324827D+03 E-N=-1.420360442620D+04  KE= 1.894056870664D+03
 Leave Link  601 at Thu Feb 18 07:38:03 2021, MaxMem=  5242880000 cpu:        12.7
 (Enter /opt/nce/packages/global/g09/l9999.exe)
 1\1\GINC-CN007\SP\RM06L TD-FC\Gen\C46H31N1O1\PNG4RJV\18-Feb-2021\0\\#p
  m06l chkbasis geom=allcheck Guess=Read int=ultrafine scrf=(SMD,solven
 t=n,n-DiMethylAcetamide) td=(NStates=30)\\Title\\0,1\C,0,3.6186593144,
 1.4477021115,-0.4105785011\C,0,2.4469782188,2.1804455318,-0.5098045427
 \C,0,1.2042930701,1.5560005396,-0.4700559996\C,0,1.1815901526,0.164944
 4719,-0.3156996488\C,0,2.3452721424,-0.5618297723,-0.2141062886\C,0,3.
 6006015044,0.0614338313,-0.2616469286\C,0,-1.1765495572,0.1637176672,-
 0.3340603222\C,0,-1.1982659598,1.5556352112,-0.4808657368\C,0,-2.44039
 63553,2.1808834555,-0.5252824651\H,0,-2.4860143127,3.2547315892,-0.650
 1575625\C,0,-3.6127185453,1.4491618119,-0.4258044953\C,0,-3.5952192471
 ,0.0624813504,-0.2813806779\C,0,-2.3410161732,-0.5629751663,-0.2394409
 404\H,0,2.4934714606,3.2562320256,-0.6162919864\H,0,2.2590989135,-1.63
 66643096,-0.1207523013\H,0,-4.5564198285,1.975085911,-0.4871042063\N,0
 ,0.0034296607,2.2528975961,-0.5723745885\C,0,0.0039614717,3.6737954907
 ,-0.7224329697\C,0,-0.0039698522,4.4940661417,0.4336011588\C,0,0.01229
 26382,4.219350518,-1.9793692883\C,0,-0.0120842685,3.9705902517,1.74446
 05884\C,0,-0.0034001528,5.9100127417,0.2530556437\C,0,0.0128306563,5.6
 138563083,-2.1474627487\H,0,0.0182772581,3.5622916663,-2.8401990595\C,
 0,-0.0194318225,4.807462159,2.8289003108\H,0,-0.0123852964,2.896670247
 8,1.8844202827\C,0,-0.0111952644,6.7400245168,1.3953303492\C,0,0.00504
 97359,6.4390485239,-1.0555268576\H,0,0.0193522617,6.0287620278,-3.1470
 108545\C,0,-0.0190333561,6.2030275636,2.6544386294\H,0,-0.0255443427,4
 .3936169602,3.829369814\H,0,-0.0107490253,7.8142321226,1.252680521\H,0
 ,0.0053130153,7.5155891887,-1.1785441058\H,0,-0.024876206,6.8511135756
 ,3.5216751856\H,0,-2.2562332895,-1.6337986835,-0.1068567553\H,0,4.5612
 906037,1.9784743258,-0.42757695\C,0,4.8392741933,-0.7202037156,-0.1542
 83589\C,0,4.8679308188,-1.9670674225,0.4809996748\C,0,6.0466676,-0.250
 193653,-0.6843218228\C,0,6.0347488475,-2.7001447697,0.5805097475\H,0,3
 .961858111,-2.3676393582,0.9186365367\C,0,7.2122417153,-0.9845891006,-
 0.5866150351\H,0,6.0715639345,0.7037416509,-1.1962979\C,0,7.2393445882
 ,-2.2308365733,0.0477827891\H,0,6.0064299484,-3.6657846038,1.070437150
 5\H,0,8.1250166647,-0.5753602521,-1.0021692149\C,0,8.4809626409,-3.014
 5143886,0.1472432063\C,0,8.6939171531,-3.902138982,1.207747042\C,0,9.4
 880131225,-2.8971758529,-0.8171534039\C,0,9.863095947,-4.6389450605,1.
 3001265444\H,0,7.9424464386,-4.0002548877,1.9815906981\C,0,10.65678086
 48,-3.6344803802,-0.7248543897\H,0,9.344242618,-2.2349536108,-1.662027
 9285\C,0,10.8516764529,-4.5097904573,0.3344521272\H,0,10.0057671561,-5
 .3129597849,2.1358612887\H,0,11.4166865844,-3.5302210951,-1.4895812103
 \H,0,11.7653759304,-5.0861222905,0.406586979\C,0,-4.8347239018,-0.7182
 773696,-0.1803305366\C,0,-4.8883355236,-2.0638757346,-0.5614237825\C,0
 ,-6.0176189375,-0.1467149343,0.30269651\C,0,-6.0576443448,-2.794011908
 2,-0.4675782485\H,0,-4.0012581636,-2.5467538016,-0.9525481501\C,0,-7.1
 85096009,-0.8780429636,0.3996197422\H,0,-6.0199951179,0.8878765293,0.6
 227282853\C,0,-7.238095386,-2.2224289279,0.0170828566\H,0,-6.050437441
 6,-3.8358847831,-0.7637776665\H,0,-8.0791247294,-0.3912283154,0.769804
 9451\C,0,-8.481695743,-3.001895087,0.1245590252\C,0,-8.7411793264,-4.0
 750909057,-0.7349214011\C,0,-9.4439684907,-2.6940271938,1.0926324133\C
 ,0,-9.9121866421,-4.80756713,-0.6308110724\H,0,-8.0253167252,-4.325361
 8519,-1.5082948148\C,0,-10.6141357227,-3.4272911513,1.1973246958\H,0,-
 9.2628854611,-1.8822148906,1.7863193103\C,0,-10.8555948879,-4.48850248
 78,0.3360421991\H,0,-10.0920131639,-5.6282844814,-1.3143226918\H,0,-11
 .3383917686,-3.1729475839,1.9614096139\H,0,-11.7705345138,-5.061659595
 2,0.4171651953\O,0,0.0024364472,-0.5376143463,-0.2742874193\\Version=E
 S64L-G09RevE.01\State=1-A\HF=-1902.0273223\RMSD=9.329e-09\PG=C01 [X(C4
 6H31N1O1)]\\@


 IT IS A QUALITY OF REVOLUTIONS NOT TO GO BY OLD LINES OR OLD LAWS,
 BUT TO BREAK UP BOTH, AND MAKE NEW ONES.
                                              -- A. LINCOLN (1848)
 Job cpu time:       3 days 15 hours 28 minutes 54.0 seconds.
 File lengths (MBytes):  RWF=  11254 Int=      0 D2E=      0 Chk=   2473 Scr=      1
 Normal termination of Gaussian 09 at Thu Feb 18 07:38:07 2021.
