 Entering Gaussian System, Link 0=g09
 Input=/home/png4rjv/fotokatalizis/benchmark/OPCs/RESTART/POZ_1_wB97XD_def2TZVP.gjf
 Output=/home/png4rjv/fotokatalizis/benchmark/OPCs/RESTART/POZ_1_wB97XD_def2TZVP.log
 Initial command:
 /opt/nce/packages/global/g09/l1.exe "/home/png4rjv/fotokatalizis/benchmark/OPCs/RESTART/POZ_1_wB97XD_def2TZVP/Gau-43994.inp" -scrdir="/home/png4rjv/fotokatalizis/benchmark/OPCs/RESTART/POZ_1_wB97XD_def2TZVP/"
 Default is to use a total of  12 processors:
                               12 via shared-memory
                                1 via Linda
 Entering Link 1 = /opt/nce/packages/global/g09/l1.exe PID=     43995.
  
 Copyright (c) 1988,1990,1992,1993,1995,1998,2003,2009,2015,
            Gaussian, Inc.  All Rights Reserved.
  
 This is part of the Gaussian(R) 09 program.  It is based on
 the Gaussian(R) 03 system (copyright 2003, Gaussian, Inc.),
 the Gaussian(R) 98 system (copyright 1998, Gaussian, Inc.),
 the Gaussian(R) 94 system (copyright 1995, Gaussian, Inc.),
 the Gaussian 92(TM) system (copyright 1992, Gaussian, Inc.),
 the Gaussian 90(TM) system (copyright 1990, Gaussian, Inc.),
 the Gaussian 88(TM) system (copyright 1988, Gaussian, Inc.),
 the Gaussian 86(TM) system (copyright 1986, Carnegie Mellon
 University), and the Gaussian 82(TM) system (copyright 1983,
 Carnegie Mellon University). Gaussian is a federally registered
 trademark of Gaussian, Inc.
  
 This software contains proprietary and confidential information,
 including trade secrets, belonging to Gaussian, Inc.
  
 This software is provided under written license and may be
 used, copied, transmitted, or stored only in accord with that
 written license.
  
 The following legend is applicable only to US Government
 contracts under FAR:
  
                    RESTRICTED RIGHTS LEGEND
  
 Use, reproduction and disclosure by the US Government is
 subject to restrictions as set forth in subparagraphs (a)
 and (c) of the Commercial Computer Software - Restricted
 Rights clause in FAR 52.227-19.
  
 Gaussian, Inc.
 340 Quinnipiac St., Bldg. 40, Wallingford CT 06492
  
  
 ---------------------------------------------------------------
 Warning -- This program may not be used in any manner that
 competes with the business of Gaussian, Inc. or will provide
 assistance to any competitor of Gaussian, Inc.  The licensee
 of this program is prohibited from giving any competitor of
 Gaussian, Inc. access to this program.  By using this program,
 the user acknowledges that Gaussian, Inc. is engaged in the
 business of creating and licensing software in the field of
 computational chemistry and represents and warrants to the
 licensee that it is not a competitor of Gaussian, Inc. and that
 it will not use this program in any manner prohibited above.
 ---------------------------------------------------------------
  

 Cite this work as:
 Gaussian 09, Revision E.01,
 M. J. Frisch, G. W. Trucks, H. B. Schlegel, G. E. Scuseria, 
 M. A. Robb, J. R. Cheeseman, G. Scalmani, V. Barone, B. Mennucci, 
 G. A. Petersson, H. Nakatsuji, M. Caricato, X. Li, H. P. Hratchian, 
 A. F. Izmaylov, J. Bloino, G. Zheng, J. L. Sonnenberg, M. Hada, 
 M. Ehara, K. Toyota, R. Fukuda, J. Hasegawa, M. Ishida, T. Nakajima, 
 Y. Honda, O. Kitao, H. Nakai, T. Vreven, J. A. Montgomery, Jr., 
 J. E. Peralta, F. Ogliaro, M. Bearpark, J. J. Heyd, E. Brothers, 
 K. N. Kudin, V. N. Staroverov, T. Keith, R. Kobayashi, J. Normand, 
 K. Raghavachari, A. Rendell, J. C. Burant, S. S. Iyengar, J. Tomasi, 
 M. Cossi, N. Rega, J. M. Millam, M. Klene, J. E. Knox, J. B. Cross, 
 V. Bakken, C. Adamo, J. Jaramillo, R. Gomperts, R. E. Stratmann, 
 O. Yazyev, A. J. Austin, R. Cammi, C. Pomelli, J. W. Ochterski, 
 R. L. Martin, K. Morokuma, V. G. Zakrzewski, G. A. Voth, 
 P. Salvador, J. J. Dannenberg, S. Dapprich, A. D. Daniels, 
 O. Farkas, J. B. Foresman, J. V. Ortiz, J. Cioslowski, 
 and D. J. Fox, Gaussian, Inc., Wallingford CT, 2013.
 
 ******************************************
 Gaussian 09:  ES64L-G09RevE.01 30-Nov-2015
                28-Oct-2021 
 ******************************************
 %chk=cp.chk
 Default route:  MaxDisk=500GB
 ----------------------------------------------------------------------
 #p wB97XD/def2TZVP freq=noraman nosymm int=(Acc2E=11,ultrafine) scrf=(
 SMD,solvent=n,n-DiMethylAcetamide)
 ----------------------------------------------------------------------
 1/10=4,30=1,38=1/1,3;
 2/12=2,15=1,17=6,18=5,40=1/2;
 3/5=44,7=101,11=2,16=1,25=1,30=1,70=32201,71=2,72=147,74=-58,75=-5,140=1/1,2,3;
 4//1;
 5/5=2,38=5,53=147,87=11,98=1/2;
 8/6=4,10=90,11=11,87=11/1;
 11/6=1,8=1,9=11,15=111,16=1,31=1,87=11/1,2,10;
 10/6=1,31=1,87=11/2;
 6/7=2,8=2,9=2,10=2,18=1,28=1/1;
 7/8=1,10=1,25=1,30=1,87=11/1,2,3,16;
 1/10=4,30=1/3;
 99//99;
 Leave Link    1 at Thu Oct 28 22:39:25 2021, MaxMem=           0 cpu:         2.1
 (Enter /opt/nce/packages/global/g09/l101.exe)
 -----
 Title
 -----
 Symbolic Z-matrix:
 Charge =  0 Multiplicity = 1
 C                     3.61341   1.45991  -0.4647 
 C                     2.44237   2.19255  -0.59598 
 C                     1.20428   1.56411  -0.60816 
 C                     1.1783    0.17317  -0.4751 
 C                     2.33866  -0.55326  -0.33548 
 C                     3.5855    0.07746  -0.33166 
 C                    -1.17378   0.17198  -0.49079 
 C                    -1.1989    1.56377  -0.61443 
 C                    -2.43688   2.19236  -0.60056 
 H                    -2.48994   3.2677   -0.70461 
 C                    -3.60812   1.4597   -0.47174 
 C                    -3.58146   0.07615  -0.3489 
 C                    -2.33468  -0.5549   -0.3589 
 H                     2.49495   3.26892  -0.68899 
 H                     2.25901  -1.63019  -0.25351 
 H                    -4.55393   1.98618  -0.48794 
 N                     0.00292   2.26024  -0.74645 
 C                     0.00291   3.68418  -0.8078 
 C                     0.00008   4.43687   0.39848 
 C                     0.0057    4.30565  -2.02279 
 C                    -0.0027    3.82795   1.67599 
 C                     0.00016   5.85183   0.30814 
 C                     0.00581   5.71243  -2.10512 
 H                     0.00774   3.70524  -2.92406 
 C                    -0.00531   4.59318   2.80762 
 H                    -0.00269   2.74784   1.75004 
 C                    -0.00262   6.61452   1.5011 
 C                     0.0031    6.46625  -0.96759 
 H                     0.00805   6.18761  -3.07781 
 C                    -0.00528   6.00113   2.72102 
 H                    -0.00737   4.11798   3.78081 
 H                    -0.00254   7.69581   1.42655 
 H                     0.00315   7.54858  -1.0238 
 H                    -0.00732   6.59292   3.62801 
 H                    -2.25302  -1.62918  -0.24952 
 H                     4.55783   1.98893  -0.44674 
 C                     4.83104  -0.70979  -0.18743 
 C                     4.88745  -1.8256    0.64771 
 C                     5.98818  -0.35726  -0.88202 
 C                     6.05455  -2.55682   0.78535 
 H                     4.00979  -2.12273   1.20911 
 C                     7.1544   -1.09006  -0.74633 
 H                     5.97612   0.49689  -1.54836 
 C                     7.21095  -2.20398   0.09064 
 H                     6.06091  -3.42264   1.43662 
 H                     8.03738  -0.78323  -1.29415 
 C                     8.46082  -2.98775   0.23665 
 C                     8.84524  -3.49534   1.4784 
 C                     9.28185  -3.23509  -0.86425 
 C                     10.01543  -4.22611   1.61547 
 H                     8.23182  -3.30157   2.35025 
 C                     10.45127  -3.96723  -0.72782 
 H                     8.9947   -2.86565  -1.84149 
 C                     10.82343  -4.46552   0.51284 
 H                     10.29995  -4.60462   2.58984 
 H                     11.07085  -4.15444  -1.59654 
 H                     11.73745  -5.03668   0.61969 
 C                    -4.82771  -0.71253  -0.21865 
 C                    -4.94772  -1.97417  -0.80164 
 C                    -5.92338  -0.21647   0.48818 
 C                    -6.11569  -2.70761  -0.68552 
 H                    -4.12085  -2.38804  -1.36619 
 C                    -7.09137  -0.94981   0.60365 
 H                    -5.86171   0.75401   0.96558 
 C                    -7.21172  -2.2099    0.01846 
 H                    -6.16951  -3.68801  -1.14331 
 H                    -7.92617  -0.52823   1.15052 
 C                    -8.46423  -2.99368   0.14084 
 C                    -8.9327   -3.76459  -0.92407 
 C                    -9.20487  -2.97792   1.32358 
 C                    -10.10439  -4.49685  -0.80991 
 H                    -8.3845   -3.77885  -1.85841 
 C                    -10.37663  -3.71007   1.43813 
 H                    -8.85277  -2.4004    2.1699 
 C                    -10.83158  -4.47299   0.37185 
 H                    -10.45367  -5.08338  -1.65109 
 H                    -10.933   -3.68912   2.36742 
 H                    -11.74705  -5.04485   0.46101 
 O                     0.00274  -0.5303   -0.50784 
 
 NAtoms=     79 NQM=       79 NQMF=       0 NMMI=      0 NMMIF=      0
                NMic=       0 NMicF=      0.
                    Isotopes and Nuclear Properties:
 (Nuclear quadrupole moments (NQMom) in fm**2, nuclear magnetic moments (NMagM)
  in nuclear magnetons)

  Atom         1           2           3           4           5           6           7           8           9          10
 IAtWgt=          12          12          12          12          12          12          12          12          12           1
 AtmWgt=  12.0000000  12.0000000  12.0000000  12.0000000  12.0000000  12.0000000  12.0000000  12.0000000  12.0000000   1.0078250
 NucSpn=           0           0           0           0           0           0           0           0           0           1
 AtZEff=   0.0000000   0.0000000   0.0000000   0.0000000   0.0000000   0.0000000   0.0000000   0.0000000   0.0000000   0.0000000
 NQMom=    0.0000000   0.0000000   0.0000000   0.0000000   0.0000000   0.0000000   0.0000000   0.0000000   0.0000000   0.0000000
 NMagM=    0.0000000   0.0000000   0.0000000   0.0000000   0.0000000   0.0000000   0.0000000   0.0000000   0.0000000   2.7928460
 AtZNuc=   6.0000000   6.0000000   6.0000000   6.0000000   6.0000000   6.0000000   6.0000000   6.0000000   6.0000000   1.0000000

  Atom        11          12          13          14          15          16          17          18          19          20
 IAtWgt=          12          12          12           1           1           1          14          12          12          12
 AtmWgt=  12.0000000  12.0000000  12.0000000   1.0078250   1.0078250   1.0078250  14.0030740  12.0000000  12.0000000  12.0000000
 NucSpn=           0           0           0           1           1           1           2           0           0           0
 AtZEff=   0.0000000   0.0000000   0.0000000   0.0000000   0.0000000   0.0000000   0.0000000   0.0000000   0.0000000   0.0000000
 NQMom=    0.0000000   0.0000000   0.0000000   0.0000000   0.0000000   0.0000000   2.0440000   0.0000000   0.0000000   0.0000000
 NMagM=    0.0000000   0.0000000   0.0000000   2.7928460   2.7928460   2.7928460   0.4037610   0.0000000   0.0000000   0.0000000
 AtZNuc=   6.0000000   6.0000000   6.0000000   1.0000000   1.0000000   1.0000000   7.0000000   6.0000000   6.0000000   6.0000000

  Atom        21          22          23          24          25          26          27          28          29          30
 IAtWgt=          12          12          12           1          12           1          12          12           1          12
 AtmWgt=  12.0000000  12.0000000  12.0000000   1.0078250  12.0000000   1.0078250  12.0000000  12.0000000   1.0078250  12.0000000
 NucSpn=           0           0           0           1           0           1           0           0           1           0
 AtZEff=   0.0000000   0.0000000   0.0000000   0.0000000   0.0000000   0.0000000   0.0000000   0.0000000   0.0000000   0.0000000
 NQMom=    0.0000000   0.0000000   0.0000000   0.0000000   0.0000000   0.0000000   0.0000000   0.0000000   0.0000000   0.0000000
 NMagM=    0.0000000   0.0000000   0.0000000   2.7928460   0.0000000   2.7928460   0.0000000   0.0000000   2.7928460   0.0000000
 AtZNuc=   6.0000000   6.0000000   6.0000000   1.0000000   6.0000000   1.0000000   6.0000000   6.0000000   1.0000000   6.0000000

  Atom        31          32          33          34          35          36          37          38          39          40
 IAtWgt=           1           1           1           1           1           1          12          12          12          12
 AtmWgt=   1.0078250   1.0078250   1.0078250   1.0078250   1.0078250   1.0078250  12.0000000  12.0000000  12.0000000  12.0000000
 NucSpn=           1           1           1           1           1           1           0           0           0           0
 AtZEff=   0.0000000   0.0000000   0.0000000   0.0000000   0.0000000   0.0000000   0.0000000   0.0000000   0.0000000   0.0000000
 NQMom=    0.0000000   0.0000000   0.0000000   0.0000000   0.0000000   0.0000000   0.0000000   0.0000000   0.0000000   0.0000000
 NMagM=    2.7928460   2.7928460   2.7928460   2.7928460   2.7928460   2.7928460   0.0000000   0.0000000   0.0000000   0.0000000
 AtZNuc=   1.0000000   1.0000000   1.0000000   1.0000000   1.0000000   1.0000000   6.0000000   6.0000000   6.0000000   6.0000000

  Atom        41          42          43          44          45          46          47          48          49          50
 IAtWgt=           1          12           1          12           1           1          12          12          12          12
 AtmWgt=   1.0078250  12.0000000   1.0078250  12.0000000   1.0078250   1.0078250  12.0000000  12.0000000  12.0000000  12.0000000
 NucSpn=           1           0           1           0           1           1           0           0           0           0
 AtZEff=   0.0000000   0.0000000   0.0000000   0.0000000   0.0000000   0.0000000   0.0000000   0.0000000   0.0000000   0.0000000
 NQMom=    0.0000000   0.0000000   0.0000000   0.0000000   0.0000000   0.0000000   0.0000000   0.0000000   0.0000000   0.0000000
 NMagM=    2.7928460   0.0000000   2.7928460   0.0000000   2.7928460   2.7928460   0.0000000   0.0000000   0.0000000   0.0000000
 AtZNuc=   1.0000000   6.0000000   1.0000000   6.0000000   1.0000000   1.0000000   6.0000000   6.0000000   6.0000000   6.0000000

  Atom        51          52          53          54          55          56          57          58          59          60
 IAtWgt=           1          12           1          12           1           1           1          12          12          12
 AtmWgt=   1.0078250  12.0000000   1.0078250  12.0000000   1.0078250   1.0078250   1.0078250  12.0000000  12.0000000  12.0000000
 NucSpn=           1           0           1           0           1           1           1           0           0           0
 AtZEff=   0.0000000   0.0000000   0.0000000   0.0000000   0.0000000   0.0000000   0.0000000   0.0000000   0.0000000   0.0000000
 NQMom=    0.0000000   0.0000000   0.0000000   0.0000000   0.0000000   0.0000000   0.0000000   0.0000000   0.0000000   0.0000000
 NMagM=    2.7928460   0.0000000   2.7928460   0.0000000   2.7928460   2.7928460   2.7928460   0.0000000   0.0000000   0.0000000
 AtZNuc=   1.0000000   6.0000000   1.0000000   6.0000000   1.0000000   1.0000000   1.0000000   6.0000000   6.0000000   6.0000000

  Atom        61          62          63          64          65          66          67          68          69          70
 IAtWgt=          12           1          12           1          12           1           1          12          12          12
 AtmWgt=  12.0000000   1.0078250  12.0000000   1.0078250  12.0000000   1.0078250   1.0078250  12.0000000  12.0000000  12.0000000
 NucSpn=           0           1           0           1           0           1           1           0           0           0
 AtZEff=   0.0000000   0.0000000   0.0000000   0.0000000   0.0000000   0.0000000   0.0000000   0.0000000   0.0000000   0.0000000
 NQMom=    0.0000000   0.0000000   0.0000000   0.0000000   0.0000000   0.0000000   0.0000000   0.0000000   0.0000000   0.0000000
 NMagM=    0.0000000   2.7928460   0.0000000   2.7928460   0.0000000   2.7928460   2.7928460   0.0000000   0.0000000   0.0000000
 AtZNuc=   6.0000000   1.0000000   6.0000000   1.0000000   6.0000000   1.0000000   1.0000000   6.0000000   6.0000000   6.0000000

  Atom        71          72          73          74          75          76          77          78          79
 IAtWgt=          12           1          12           1          12           1           1           1          16
 AtmWgt=  12.0000000   1.0078250  12.0000000   1.0078250  12.0000000   1.0078250   1.0078250   1.0078250  15.9949146
 NucSpn=           0           1           0           1           0           1           1           1           0
 AtZEff=   0.0000000   0.0000000   0.0000000   0.0000000   0.0000000   0.0000000   0.0000000   0.0000000   0.0000000
 NQMom=    0.0000000   0.0000000   0.0000000   0.0000000   0.0000000   0.0000000   0.0000000   0.0000000   0.0000000
 NMagM=    0.0000000   2.7928460   0.0000000   2.7928460   0.0000000   2.7928460   2.7928460   2.7928460   0.0000000
 AtZNuc=   6.0000000   1.0000000   6.0000000   1.0000000   6.0000000   1.0000000   1.0000000   1.0000000   8.0000000
 Leave Link  101 at Thu Oct 28 22:39:25 2021, MaxMem=  5242880000 cpu:         1.2
 (Enter /opt/nce/packages/global/g09/l103.exe)

 GradGradGradGradGradGradGradGradGradGradGradGradGradGradGradGradGradGrad
 Berny optimization.
 Initialization pass.
 Trust Radius=3.00D-01 FncErr=1.00D-07 GrdErr=1.00D-07
 Number of steps in this run=      2 maximum allowed number of steps=      2.
 GradGradGradGradGradGradGradGradGradGradGradGradGradGradGradGradGradGrad

 Leave Link  103 at Thu Oct 28 22:39:25 2021, MaxMem=  5242880000 cpu:         0.4
 (Enter /opt/nce/packages/global/g09/l202.exe)
 Symmetry turned off by external request.
 Stoichiometry    C46H31NO
 Framework group  C1[X(C46H31NO)]
 Deg. of freedom   231
 Full point group                 C1      NOp   1
                          Input orientation:                          
 ---------------------------------------------------------------------
 Center     Atomic      Atomic             Coordinates (Angstroms)
 Number     Number       Type             X           Y           Z
 ---------------------------------------------------------------------
      1          6           0        3.613408    1.459911   -0.464703
      2          6           0        2.442373    2.192553   -0.595975
      3          6           0        1.204279    1.564112   -0.608158
      4          6           0        1.178300    0.173174   -0.475097
      5          6           0        2.338663   -0.553262   -0.335480
      6          6           0        3.585503    0.077463   -0.331664
      7          6           0       -1.173780    0.171983   -0.490791
      8          6           0       -1.198896    1.563772   -0.614428
      9          6           0       -2.436876    2.192364   -0.600563
     10          1           0       -2.489937    3.267701   -0.704611
     11          6           0       -3.608121    1.459695   -0.471738
     12          6           0       -3.581455    0.076154   -0.348899
     13          6           0       -2.334681   -0.554903   -0.358900
     14          1           0        2.494946    3.268920   -0.688990
     15          1           0        2.259010   -1.630192   -0.253507
     16          1           0       -4.553925    1.986183   -0.487938
     17          7           0        0.002918    2.260243   -0.746449
     18          6           0        0.002909    3.684178   -0.807797
     19          6           0        0.000083    4.436866    0.398477
     20          6           0        0.005695    4.305647   -2.022789
     21          6           0       -0.002704    3.827951    1.675988
     22          6           0        0.000163    5.851833    0.308137
     23          6           0        0.005806    5.712427   -2.105116
     24          1           0        0.007743    3.705239   -2.924059
     25          6           0       -0.005305    4.593176    2.807618
     26          1           0       -0.002692    2.747841    1.750036
     27          6           0       -0.002621    6.614520    1.501095
     28          6           0        0.003099    6.466249   -0.967590
     29          1           0        0.008046    6.187613   -3.077814
     30          6           0       -0.005276    6.001132    2.721020
     31          1           0       -0.007367    4.117983    3.780814
     32          1           0       -0.002541    7.695805    1.426548
     33          1           0        0.003153    7.548579   -1.023799
     34          1           0       -0.007320    6.592919    3.628010
     35          1           0       -2.253019   -1.629178   -0.249518
     36          1           0        4.557831    1.988934   -0.446735
     37          6           0        4.831042   -0.709788   -0.187431
     38          6           0        4.887448   -1.825600    0.647708
     39          6           0        5.988182   -0.357257   -0.882019
     40          6           0        6.054549   -2.556816    0.785353
     41          1           0        4.009792   -2.122730    1.209106
     42          6           0        7.154405   -1.090058   -0.746327
     43          1           0        5.976117    0.496892   -1.548357
     44          6           0        7.210950   -2.203981    0.090642
     45          1           0        6.060908   -3.422639    1.436617
     46          1           0        8.037383   -0.783230   -1.294145
     47          6           0        8.460815   -2.987749    0.236652
     48          6           0        8.845241   -3.495337    1.478404
     49          6           0        9.281854   -3.235094   -0.864250
     50          6           0       10.015426   -4.226112    1.615470
     51          1           0        8.231822   -3.301572    2.350253
     52          6           0       10.451270   -3.967226   -0.727821
     53          1           0        8.994698   -2.865651   -1.841494
     54          6           0       10.823425   -4.465522    0.512835
     55          1           0       10.299948   -4.604615    2.589844
     56          1           0       11.070845   -4.154439   -1.596538
     57          1           0       11.737448   -5.036684    0.619685
     58          6           0       -4.827710   -0.712526   -0.218647
     59          6           0       -4.947723   -1.974172   -0.801644
     60          6           0       -5.923378   -0.216469    0.488175
     61          6           0       -6.115686   -2.707605   -0.685524
     62          1           0       -4.120853   -2.388043   -1.366190
     63          6           0       -7.091374   -0.949812    0.603646
     64          1           0       -5.861713    0.754005    0.965584
     65          6           0       -7.211721   -2.209899    0.018458
     66          1           0       -6.169509   -3.688011   -1.143306
     67          1           0       -7.926165   -0.528229    1.150517
     68          6           0       -8.464234   -2.993676    0.140840
     69          6           0       -8.932703   -3.764590   -0.924071
     70          6           0       -9.204874   -2.977921    1.323580
     71          6           0      -10.104386   -4.496846   -0.809908
     72          1           0       -8.384500   -3.778847   -1.858412
     73          6           0      -10.376629   -3.710074    1.438128
     74          1           0       -8.852766   -2.400396    2.169900
     75          6           0      -10.831576   -4.472992    0.371851
     76          1           0      -10.453667   -5.083378   -1.651086
     77          1           0      -10.932995   -3.689118    2.367422
     78          1           0      -11.747047   -5.044849    0.461010
     79          8           0        0.002738   -0.530295   -0.507839
 ---------------------------------------------------------------------
 Rotational constants (GHZ):      0.0694816      0.0230343      0.0181823
 Leave Link  202 at Thu Oct 28 22:39:25 2021, MaxMem=  5242880000 cpu:         0.1
 (Enter /opt/nce/packages/global/g09/l301.exe)
 Standard basis: def2TZVP (5D, 7F)
 Ernie: Thresh=  0.10000D-02 Tol=  0.10000D-05 Strict=F.
  1674 basis functions,  2696 primitive gaussians,  1914 cartesian basis functions
   161 alpha electrons      161 beta electrons
       nuclear repulsion energy      4900.8924132604 Hartrees.
 IExCor= 4639 DFT=T Ex+Corr=wB97XD ExCW=0 ScaHFX=  1.000000
 ScaDFX=  1.000000  1.000000  1.000000  1.000000 ScalE2=  1.000000  1.000000
 IRadAn=      5 IRanWt=     -1 IRanGd=            0 ICorTp=0 IEmpDi=121
  HFx wShort=  0.000000 wLong=  0.200000 cFull=  0.222036 cShort=  0.000000 cLong=  0.777964
  DFx wShort=  0.000000 wLong=  0.200000 cFull=  0.000000 cShort=  0.000000 cLong=  1.000000
 NAtoms=   79 NActive=   79 NUniq=   79 SFac= 1.00D+00 NAtFMM=   60 NAOKFM=T Big=T
 Integral buffers will be    131072 words long.
 Raffenetti 2 integral format.
 Two-electron integral symmetry is turned off.
 R6Disp:  Grimme-D2 Dispersion energy=       -0.0636001867 Hartrees.
 Nuclear repulsion after empirical dispersion term =     4900.8288130738 Hartrees.
 Force inversion solution in PCM.
 ------------------------------------------------------------------------------
 Polarizable Continuum Model (PCM)
 =================================
 Model                : PCM (using non-symmetric T matrix).
 Atomic radii         : SMD-Coulomb.
 Polarization charges : Total charges.
 Charge compensation  : None.
 Solution method      : Matrix inversion.
 Cavity type          : VdW (van der Waals Surface) (Alpha=1.000).
 Cavity algorithm     : GePol (No added spheres)
                        Default sphere list used, NSphG=   79.
                        Lebedev-Laikov grids with approx.  5.0 points / Ang**2.
                        Smoothing algorithm: York/Karplus (Gamma=1.0000).
                        Polarization charges: spherical gaussians, with
                                              point-specific exponents (IZeta= 3).
                        Self-potential: point-specific (ISelfS= 7).
                        Self-field    : sphere-specific E.n sum rule (ISelfD= 2).
 1st derivatives      : Analytical E(r).r(x)/FMM algorithm (CHGder, D1EAlg=3).
                        Cavity 1st derivative terms included.
 2nd derivatives      : Analytical E(r).r(xy)/FMM algorithm (CHGder, D2EAlg=3).
                        Cavity 2nd derivative terms included.
 Solvent              : n,n-DiMethylAcetamide, Eps=  37.781000 Eps(inf)=   2.067844
 ------------------------------------------------------------------------------
 GePol: Number of generator spheres                  =      79
 GePol: Total number of spheres                      =      79
 GePol: Number of exposed spheres                    =      79 (100.00%)
 GePol: Number of points                             =    5970
 GePol: Average weight of points                     =       0.11
 GePol: Minimum weight of points                     =   0.17D-11
 GePol: Maximum weight of points                     =    0.17992
 GePol: Number of points with low weight             =     338
 GePol: Fraction of low-weight points (<1% of avg)   =       5.66%
 GePol: Cavity surface area                          =    638.700 Ang**2
 GePol: Cavity volume                                =    637.651 Ang**3
 ------------------------------------------------------------------------------
 Atomic radii for non-electrostatic terms: SMD-CDS.
 ------------------------------------------------------------------------------
 PCM non-electrostatic energy =        -0.0123618790 Hartrees.
 Nuclear repulsion after PCM non-electrostatic terms =     4900.8164511948 Hartrees.
 Leave Link  301 at Thu Oct 28 22:39:26 2021, MaxMem=  5242880000 cpu:         5.4
 (Enter /opt/nce/packages/global/g09/l302.exe)
 NPDir=0 NMtPBC=     1 NCelOv=     1 NCel=       1 NClECP=     1 NCelD=      1
         NCelK=      1 NCelE2=     1 NClLst=     1 CellRange=     0.0.
 One-electron integrals computed using PRISM.
   1 Symmetry operations used in ECPInt.
 ECPInt:  NShTT=  212878 NPrTT=  658380 LenC2=  123951 LenP2D=  251578.
 LDataN:  DoStor=T MaxTD1= 6 Len=  172
 NBasis=  1674 RedAO= T EigKep=  3.98D-06  NBF=  1674
 NBsUse=  1674 1.00D-06 EigRej= -1.00D+00 NBFU=  1674
 Precomputing XC quadrature grid using
 IXCGrd= 4 IRadAn=           5 IRanWt=          -1 IRanGd=           0 AccXCQ= 0.00D+00.
 Generated NRdTot=       0 NPtTot=           0 NUsed=           0 NTot=          32
 NSgBfM=  1539  1545  1551  1553  1560 MxSgAt=    79 MxSgA2=    79.
 Leave Link  302 at Thu Oct 28 22:39:32 2021, MaxMem=  5242880000 cpu:        75.6
 (Enter /opt/nce/packages/global/g09/l303.exe)
 DipDrv:  MaxL=1.
 Leave Link  303 at Thu Oct 28 22:39:33 2021, MaxMem=  5242880000 cpu:         5.9
 (Enter /opt/nce/packages/global/g09/l401.exe)
 ExpMin= 9.52D-02 ExpMax= 2.70D+04 ExpMxC= 9.22D+02 IAcc=3 IRadAn=         5 AccDes= 0.00D+00
 Harris functional with IExCor= 4639 and IRadAn=       5 diagonalized for initial guess.
 HarFok:  IExCor= 4639 AccDes= 0.00D+00 IRadAn=         5 IDoV= 1 UseB2=F ITyADJ=14
 ICtDFT=  3500011 ScaDFX=  1.000000  1.000000  1.000000  1.000000
 FoFCou: FMM=F IPFlag=           0 FMFlag=      100000 FMFlg1=        2001
         NFxFlg=           0 DoJE=T BraDBF=F KetDBF=T FulRan=T
         wScrn=  0.000000 ICntrl=     500 IOpCl=  0 I1Cent=   200000004 NGrid=           0
         NMat0=    1 NMatS0=      1 NMatT0=    0 NMatD0=    1 NMtDS0=    0 NMtDT0=    0
 Symmetry not used in FoFCou.
 Harris En= -1816.49113786461    
 JPrj=0 DoOrth=F DoCkMO=F.
 Leave Link  401 at Thu Oct 28 22:39:51 2021, MaxMem=  5242880000 cpu:       220.2
 (Enter /opt/nce/packages/global/g09/l502.exe)
 Closed shell SCF:
 Using DIIS extrapolation, IDIIS=  1040.
 Two-electron integral symmetry not used.
 IVT=    11043348 IEndB=    11043348 NGot=  5242880000 MDV=  5235518603
 LenX=  5235518603 LenY=  5231853293
 Requested convergence on RMS density matrix=1.00D-08 within 128 cycles.
 Requested convergence on MAX density matrix=1.00D-06.
 Requested convergence on             energy=1.00D-06.
 No special actions if energy rises.
 Fock matrices will be formed incrementally for  20 cycles.

 Cycle   1  Pass 1  IDiag  1:
 FoFJK:  IHMeth= 1 ICntrl=       0 DoSepK=T KAlg= 0 I1Cent=   0 FoldK=F
 IRaf=         1 NMat=   1 IRICut=       1 DoRegI=T DoRafI=F ISym2E= 0.
 FoFCou: FMM=T IPFlag=           0 FMFlag=      100000 FMFlg1=        2001
         NFxFlg=           0 DoJE=T BraDBF=F KetDBF=F FulRan=T
         wScrn=  0.000000 ICntrl=     500 IOpCl=  0 I1Cent=           0 NGrid=           0
         NMat0=    1 NMatS0=      1 NMatT0=    0 NMatD0=    1 NMtDS0=    0 NMtDT0=    0
 Symmetry not used in FoFCou.
 FMM levels:  10  Number of levels for PrismC:   9
 Inv3:  Mode=1 IEnd=   106922700.
 Iteration    1 A*A^-1 deviation from unit magnitude is 1.01D-14 for   5966.
 Iteration    1 A*A^-1 deviation from orthogonality  is 3.63D-15 for   4472    231.
 Iteration    1 A^-1*A deviation from unit magnitude is 1.08D-14 for   5966.
 Iteration    1 A^-1*A deviation from orthogonality  is 1.95D-11 for   2973   2131.
 E= -1901.01208350788    
 DIIS: error= 3.56D-02 at cycle   1 NSaved=   1.
 NSaved= 1 IEnMin= 1 EnMin= -1901.01208350788     IErMin= 1 ErrMin= 3.56D-02
 ErrMax= 3.56D-02  0.00D+00 EMaxC= 1.00D-01 BMatC= 4.24D+00 BMatP= 4.24D+00
 IDIUse=3 WtCom= 6.44D-01 WtEn= 3.56D-01
 Coeff-Com:  0.100D+01
 Coeff-En:   0.100D+01
 Coeff:      0.100D+01
 Gap=     0.314 Goal=   None    Shift=    0.000
 GapD=    0.314 DampG=1.000 DampE=0.500 DampFc=0.5000 IDamp=-1.
 Damping current iteration by 5.00D-01
 RMSDP=2.23D-03 MaxDP=4.83D-01              OVMax= 1.83D-01

 Cycle   2  Pass 1  IDiag  1:
 RMSU=  8.97D-04    CP:  8.63D-01
 E= -1901.30188144882     Delta-E=       -0.289797940947 Rises=F Damp=T
 DIIS: error= 1.67D-02 at cycle   2 NSaved=   2.
 NSaved= 2 IEnMin= 2 EnMin= -1901.30188144882     IErMin= 2 ErrMin= 1.67D-02
 ErrMax= 1.67D-02  0.00D+00 EMaxC= 1.00D-01 BMatC= 9.10D-01 BMatP= 4.24D+00
 IDIUse=3 WtCom= 8.33D-01 WtEn= 1.67D-01
 Coeff-Com: -0.654D+00 0.165D+01
 Coeff-En:   0.000D+00 0.100D+01
 Coeff:     -0.545D+00 0.155D+01
 Gap=     0.308 Goal=   None    Shift=    0.000
 RMSDP=8.21D-04 MaxDP=9.24D-02 DE=-2.90D-01 OVMax= 2.93D-01

 Cycle   3  Pass 1  IDiag  1:
 RMSU=  8.14D-04    CP:  8.64D-01  8.74D-01
 E= -1901.38589875314     Delta-E=       -0.084017304312 Rises=F Damp=F
 DIIS: error= 1.14D-02 at cycle   3 NSaved=   3.
 NSaved= 3 IEnMin= 3 EnMin= -1901.38589875314     IErMin= 3 ErrMin= 1.14D-02
 ErrMax= 1.14D-02  0.00D+00 EMaxC= 1.00D-01 BMatC= 2.86D-01 BMatP= 9.10D-01
 IDIUse=3 WtCom= 8.86D-01 WtEn= 1.14D-01
 Coeff-Com: -0.412D+00 0.882D+00 0.530D+00
 Coeff-En:   0.000D+00 0.270D+00 0.730D+00
 Coeff:     -0.365D+00 0.813D+00 0.553D+00
 Gap=     0.272 Goal=   None    Shift=    0.000
 RMSDP=1.06D-03 MaxDP=2.28D-01 DE=-8.40D-02 OVMax= 1.65D-01

 Cycle   4  Pass 1  IDiag  1:
 RMSU=  1.93D-04    CP:  7.59D-01  1.72D+00  3.98D-01
 E= -1901.62638190976     Delta-E=       -0.240483156626 Rises=F Damp=F
 DIIS: error= 1.64D-03 at cycle   4 NSaved=   4.
 NSaved= 4 IEnMin= 4 EnMin= -1901.62638190976     IErMin= 4 ErrMin= 1.64D-03
 ErrMax= 1.64D-03  0.00D+00 EMaxC= 1.00D-01 BMatC= 7.20D-03 BMatP= 2.86D-01
 IDIUse=3 WtCom= 9.84D-01 WtEn= 1.64D-02
 Coeff-Com: -0.987D-01 0.213D+00 0.222D+00 0.664D+00
 Coeff-En:   0.000D+00 0.000D+00 0.000D+00 0.100D+01
 Coeff:     -0.971D-01 0.209D+00 0.218D+00 0.670D+00
 Gap=     0.256 Goal=   None    Shift=    0.000
 RMSDP=5.60D-05 MaxDP=6.26D-03 DE=-2.40D-01 OVMax= 1.33D-02

 Cycle   5  Pass 1  IDiag  1:
 RMSU=  3.74D-05    CP:  7.60D-01  1.71D+00  4.41D-01  1.07D+00
 E= -1901.63227663769     Delta-E=       -0.005894727926 Rises=F Damp=F
 DIIS: error= 3.78D-04 at cycle   5 NSaved=   5.
 NSaved= 5 IEnMin= 5 EnMin= -1901.63227663769     IErMin= 5 ErrMin= 3.78D-04
 ErrMax= 3.78D-04  0.00D+00 EMaxC= 1.00D-01 BMatC= 2.03D-04 BMatP= 7.20D-03
 IDIUse=3 WtCom= 9.96D-01 WtEn= 3.78D-03
 Coeff-Com:  0.508D-01-0.108D+00-0.312D-01 0.177D+00 0.912D+00
 Coeff-En:   0.000D+00 0.000D+00 0.000D+00 0.000D+00 0.100D+01
 Coeff:      0.506D-01-0.108D+00-0.310D-01 0.176D+00 0.912D+00
 Gap=     0.257 Goal=   None    Shift=    0.000
 RMSDP=3.41D-05 MaxDP=4.79D-03 DE=-5.89D-03 OVMax= 1.13D-02

 Cycle   6  Pass 1  IDiag  1:
 RMSU=  1.98D-05    CP:  7.58D-01  1.72D+00  4.45D-01  1.15D+00  1.27D+00
 E= -1901.63264320344     Delta-E=       -0.000366565748 Rises=F Damp=F
 DIIS: error= 8.90D-05 at cycle   6 NSaved=   6.
 NSaved= 6 IEnMin= 6 EnMin= -1901.63264320344     IErMin= 6 ErrMin= 8.90D-05
 ErrMax= 8.90D-05  0.00D+00 EMaxC= 1.00D-01 BMatC= 2.26D-05 BMatP= 2.03D-04
 IDIUse=1 WtCom= 1.00D+00 WtEn= 0.00D+00
 Coeff-Com:  0.195D-01-0.419D-01-0.201D-01 0.953D-02 0.282D+00 0.751D+00
 Coeff:      0.195D-01-0.419D-01-0.201D-01 0.953D-02 0.282D+00 0.751D+00
 Gap=     0.257 Goal=   None    Shift=    0.000
 RMSDP=9.13D-06 MaxDP=9.69D-04 DE=-3.67D-04 OVMax= 4.45D-03

 Cycle   7  Pass 1  IDiag  1:
 RMSU=  6.67D-06    CP:  7.57D-01  1.73D+00  4.46D-01  1.17D+00  1.36D+00
                    CP:  1.17D+00
 E= -1901.63269245467     Delta-E=       -0.000049251237 Rises=F Damp=F
 DIIS: error= 7.53D-05 at cycle   7 NSaved=   7.
 NSaved= 7 IEnMin= 7 EnMin= -1901.63269245467     IErMin= 7 ErrMin= 7.53D-05
 ErrMax= 7.53D-05  0.00D+00 EMaxC= 1.00D-01 BMatC= 4.28D-06 BMatP= 2.26D-05
 IDIUse=1 WtCom= 1.00D+00 WtEn= 0.00D+00
 Coeff-Com: -0.448D-02 0.960D-02 0.124D-02-0.320D-01-0.107D+00 0.206D+00
 Coeff-Com:  0.926D+00
 Coeff:     -0.448D-02 0.960D-02 0.124D-02-0.320D-01-0.107D+00 0.206D+00
 Coeff:      0.926D+00
 Gap=     0.257 Goal=   None    Shift=    0.000
 RMSDP=7.43D-06 MaxDP=6.84D-04 DE=-4.93D-05 OVMax= 3.60D-03

 Cycle   8  Pass 1  IDiag  1:
 RMSU=  3.76D-06    CP:  7.58D-01  1.72D+00  4.48D-01  1.17D+00  1.40D+00
                    CP:  1.36D+00  1.58D+00
 E= -1901.63270829236     Delta-E=       -0.000015837686 Rises=F Damp=F
 DIIS: error= 3.51D-05 at cycle   8 NSaved=   8.
 NSaved= 8 IEnMin= 8 EnMin= -1901.63270829236     IErMin= 8 ErrMin= 3.51D-05
 ErrMax= 3.51D-05  0.00D+00 EMaxC= 1.00D-01 BMatC= 1.01D-06 BMatP= 4.28D-06
 IDIUse=1 WtCom= 1.00D+00 WtEn= 0.00D+00
 Coeff-Com: -0.432D-02 0.927D-02 0.350D-02-0.147D-01-0.843D-01-0.233D-01
 Coeff-Com:  0.331D+00 0.782D+00
 Coeff:     -0.432D-02 0.927D-02 0.350D-02-0.147D-01-0.843D-01-0.233D-01
 Coeff:      0.331D+00 0.782D+00
 Gap=     0.257 Goal=   None    Shift=    0.000
 RMSDP=3.63D-06 MaxDP=8.27D-04 DE=-1.58D-05 OVMax= 1.35D-03

 Cycle   9  Pass 1  IDiag  1:
 RMSU=  1.27D-06    CP:  7.58D-01  1.72D+00  4.49D-01  1.16D+00  1.42D+00
                    CP:  1.41D+00  1.93D+00  1.32D+00
 E= -1901.63271131387     Delta-E=       -0.000003021515 Rises=F Damp=F
 DIIS: error= 1.71D-05 at cycle   9 NSaved=   9.
 NSaved= 9 IEnMin= 9 EnMin= -1901.63271131387     IErMin= 9 ErrMin= 1.71D-05
 ErrMax= 1.71D-05  0.00D+00 EMaxC= 1.00D-01 BMatC= 2.04D-07 BMatP= 1.01D-06
 IDIUse=1 WtCom= 1.00D+00 WtEn= 0.00D+00
 Coeff-Com:  0.160D-03-0.345D-03 0.619D-03 0.356D-02 0.193D-02-0.649D-01
 Coeff-Com: -0.160D+00 0.285D+00 0.934D+00
 Coeff:      0.160D-03-0.345D-03 0.619D-03 0.356D-02 0.193D-02-0.649D-01
 Coeff:     -0.160D+00 0.285D+00 0.934D+00
 Gap=     0.257 Goal=   None    Shift=    0.000
 RMSDP=3.03D-06 MaxDP=6.33D-04 DE=-3.02D-06 OVMax= 8.59D-04

 Cycle  10  Pass 1  IDiag  1:
 RMSU=  5.53D-07    CP:  7.58D-01  1.72D+00  4.50D-01  1.16D+00  1.42D+00
                    CP:  1.44D+00  2.13D+00  1.63D+00  1.37D+00
 E= -1901.63271204045     Delta-E=       -0.000000726575 Rises=F Damp=F
 DIIS: error= 5.18D-06 at cycle  10 NSaved=  10.
 NSaved=10 IEnMin=10 EnMin= -1901.63271204045     IErMin=10 ErrMin= 5.18D-06
 ErrMax= 5.18D-06  0.00D+00 EMaxC= 1.00D-01 BMatC= 1.70D-08 BMatP= 2.04D-07
 IDIUse=1 WtCom= 1.00D+00 WtEn= 0.00D+00
 Coeff-Com:  0.395D-03-0.849D-03-0.939D-04 0.268D-02 0.890D-02-0.127D-01
 Coeff-Com: -0.723D-01-0.112D-01 0.233D+00 0.852D+00
 Coeff:      0.395D-03-0.849D-03-0.939D-04 0.268D-02 0.890D-02-0.127D-01
 Coeff:     -0.723D-01-0.112D-01 0.233D+00 0.852D+00
 Gap=     0.257 Goal=   None    Shift=    0.000
 RMSDP=5.84D-07 MaxDP=1.70D-04 DE=-7.27D-07 OVMax= 1.28D-04

 Cycle  11  Pass 1  IDiag  1:
 RMSU=  1.75D-07    CP:  7.58D-01  1.72D+00  4.50D-01  1.16D+00  1.41D+00
                    CP:  1.45D+00  2.17D+00  1.68D+00  1.53D+00  1.26D+00
 E= -1901.63271209225     Delta-E=       -0.000000051801 Rises=F Damp=F
 DIIS: error= 1.61D-06 at cycle  11 NSaved=  11.
 NSaved=11 IEnMin=11 EnMin= -1901.63271209225     IErMin=11 ErrMin= 1.61D-06
 ErrMax= 1.61D-06  0.00D+00 EMaxC= 1.00D-01 BMatC= 3.38D-09 BMatP= 1.70D-08
 IDIUse=1 WtCom= 1.00D+00 WtEn= 0.00D+00
 Coeff-Com:  0.114D-03-0.242D-03-0.171D-03 0.364D-03 0.296D-02 0.827D-02
 Coeff-Com:  0.578D-02-0.564D-01-0.954D-01 0.244D+00 0.891D+00
 Coeff:      0.114D-03-0.242D-03-0.171D-03 0.364D-03 0.296D-02 0.827D-02
 Coeff:      0.578D-02-0.564D-01-0.954D-01 0.244D+00 0.891D+00
 Gap=     0.257 Goal=   None    Shift=    0.000
 RMSDP=1.97D-07 MaxDP=5.70D-05 DE=-5.18D-08 OVMax= 4.18D-05

 Cycle  12  Pass 1  IDiag  1:
 RMSU=  6.37D-08    CP:  7.58D-01  1.72D+00  4.50D-01  1.16D+00  1.41D+00
                    CP:  1.44D+00  2.18D+00  1.69D+00  1.59D+00  1.42D+00
                    CP:  1.37D+00
 E= -1901.63271210233     Delta-E=       -0.000000010081 Rises=F Damp=F
 DIIS: error= 6.96D-07 at cycle  12 NSaved=  12.
 NSaved=12 IEnMin=12 EnMin= -1901.63271210233     IErMin=12 ErrMin= 6.96D-07
 ErrMax= 6.96D-07  0.00D+00 EMaxC= 1.00D-01 BMatC= 3.75D-10 BMatP= 3.38D-09
 IDIUse=1 WtCom= 1.00D+00 WtEn= 0.00D+00
 Coeff-Com: -0.719D-05 0.160D-04-0.511D-04-0.213D-03-0.199D-03 0.366D-02
 Coeff-Com:  0.936D-02-0.129D-01-0.551D-01-0.460D-01 0.245D+00 0.857D+00
 Coeff:     -0.719D-05 0.160D-04-0.511D-04-0.213D-03-0.199D-03 0.366D-02
 Coeff:      0.936D-02-0.129D-01-0.551D-01-0.460D-01 0.245D+00 0.857D+00
 Gap=     0.257 Goal=   None    Shift=    0.000
 RMSDP=5.49D-08 MaxDP=5.58D-06 DE=-1.01D-08 OVMax= 1.73D-05

 Cycle  13  Pass 1  IDiag  1:
 RMSU=  2.37D-08    CP:  7.58D-01  1.72D+00  4.50D-01  1.16D+00  1.41D+00
                    CP:  1.44D+00  2.18D+00  1.68D+00  1.60D+00  1.45D+00
                    CP:  1.55D+00  1.35D+00
 E= -1901.63271210327     Delta-E=       -0.000000000935 Rises=F Damp=F
 DIIS: error= 1.84D-07 at cycle  13 NSaved=  13.
 NSaved=13 IEnMin=13 EnMin= -1901.63271210327     IErMin=13 ErrMin= 1.84D-07
 ErrMax= 1.84D-07  0.00D+00 EMaxC= 1.00D-01 BMatC= 3.86D-11 BMatP= 3.75D-10
 IDIUse=1 WtCom= 1.00D+00 WtEn= 0.00D+00
 Coeff-Com: -0.146D-04 0.309D-04 0.529D-05-0.106D-03-0.390D-03 0.382D-04
 Coeff-Com:  0.168D-02 0.394D-02-0.493D-02-0.379D-01-0.384D-01 0.221D+00
 Coeff-Com:  0.855D+00
 Coeff:     -0.146D-04 0.309D-04 0.529D-05-0.106D-03-0.390D-03 0.382D-04
 Coeff:      0.168D-02 0.394D-02-0.493D-02-0.379D-01-0.384D-01 0.221D+00
 Coeff:      0.855D+00
 Gap=     0.257 Goal=   None    Shift=    0.000
 RMSDP=3.30D-08 MaxDP=5.84D-06 DE=-9.35D-10 OVMax= 4.51D-06

 Cycle  14  Pass 1  IDiag  1:
 RMSU=  8.55D-09    CP:  7.58D-01  1.72D+00  4.50D-01  1.16D+00  1.41D+00
                    CP:  1.44D+00  2.18D+00  1.68D+00  1.60D+00  1.45D+00
                    CP:  1.60D+00  1.51D+00  1.25D+00
 E= -1901.63271210342     Delta-E=       -0.000000000151 Rises=F Damp=F
 DIIS: error= 6.64D-08 at cycle  14 NSaved=  14.
 NSaved=14 IEnMin=14 EnMin= -1901.63271210342     IErMin=14 ErrMin= 6.64D-08
 ErrMax= 6.64D-08  0.00D+00 EMaxC= 1.00D-01 BMatC= 4.14D-12 BMatP= 3.86D-11
 IDIUse=1 WtCom= 1.00D+00 WtEn= 0.00D+00
 Coeff-Com: -0.323D-05 0.680D-05 0.490D-05-0.168D-04-0.952D-04-0.299D-03
 Coeff-Com: -0.421D-03 0.237D-02 0.287D-02-0.570D-02-0.330D-01-0.140D-01
 Coeff-Com:  0.235D+00 0.813D+00
 Coeff:     -0.323D-05 0.680D-05 0.490D-05-0.168D-04-0.952D-04-0.299D-03
 Coeff:     -0.421D-03 0.237D-02 0.287D-02-0.570D-02-0.330D-01-0.140D-01
 Coeff:      0.235D+00 0.813D+00
 Gap=     0.257 Goal=   None    Shift=    0.000
 RMSDP=1.10D-08 MaxDP=1.72D-06 DE=-1.51D-10 OVMax= 1.51D-06

 Cycle  15  Pass 1  IDiag  1:
 RMSU=  4.38D-09    CP:  7.58D-01  1.72D+00  4.50D-01  1.16D+00  1.41D+00
                    CP:  1.44D+00  2.18D+00  1.68D+00  1.60D+00  1.44D+00
                    CP:  1.60D+00  1.55D+00  1.38D+00  1.35D+00
 E= -1901.63271210336     Delta-E=        0.000000000055 Rises=F Damp=F
 DIIS: error= 1.55D-08 at cycle  15 NSaved=  15.
 NSaved=15 IEnMin=14 EnMin= -1901.63271210342     IErMin=15 ErrMin= 1.55D-08
 ErrMax= 1.55D-08  0.00D+00 EMaxC= 1.00D-01 BMatC= 6.98D-13 BMatP= 4.14D-12
 IDIUse=1 WtCom= 1.00D+00 WtEn= 0.00D+00
 Coeff-Com:  0.750D-06-0.159D-05 0.736D-06 0.800D-05 0.209D-04-0.857D-04
 Coeff-Com: -0.339D-03 0.275D-03 0.146D-02 0.331D-02-0.486D-02-0.325D-01
 Coeff-Com: -0.509D-01 0.261D+00 0.823D+00
 Coeff:      0.750D-06-0.159D-05 0.736D-06 0.800D-05 0.209D-04-0.857D-04
 Coeff:     -0.339D-03 0.275D-03 0.146D-02 0.331D-02-0.486D-02-0.325D-01
 Coeff:     -0.509D-01 0.261D+00 0.823D+00
 Gap=     0.257 Goal=   None    Shift=    0.000
 RMSDP=6.77D-09 MaxDP=8.87D-07 DE= 5.46D-11 OVMax= 3.89D-07

 Error on total polarization charges =  0.09312
 SCF Done:  E(RwB97XD) =  -1901.63271210     A.U. after   15 cycles
            NFock= 15  Conv=0.68D-08     -V/T= 2.0049
 KE= 1.892419094154D+03 PE=-1.421892862604D+04 EE= 5.524060368589D+03
 SMD-CDS (non-electrostatic) energy       (kcal/mol) =      -7.76
 (included in total energy above)
 Leave Link  502 at Thu Oct 28 23:46:06 2021, MaxMem=  5242880000 cpu:     47022.5
 (Enter /opt/nce/packages/global/g09/l801.exe)
 DoSCS=F DFT=T ScalE2(SS,OS)=  1.000000  1.000000
 Range of M.O.s used for correlation:     1  1674
 NBasis=  1674 NAE=   161 NBE=   161 NFC=     0 NFV=     0
 NROrb=   1674 NOA=   161 NOB=   161 NVA=  1513 NVB=  1513

 **** Warning!!: The largest alpha MO coefficient is  0.53347534D+02

 Leave Link  801 at Thu Oct 28 23:46:06 2021, MaxMem=  5242880000 cpu:         1.0
 (Enter /opt/nce/packages/global/g09/l1101.exe)
 Using compressed storage, NAtomX=    79.
 Will process     80 centers per pass.
 PrsmSu:  requested number of processors reduced to:  11 ShMem   1 Linda.
   1 Symmetry operations used in ECPInt.
 ECPInt:  NShTT=  212878 NPrTT=  658380 LenC2=  123951 LenP2D=  251578.
 LDataN:  DoStor=T MaxTD1= 7 Len=  274
 Number of processors reduced to   3 by ecpmxn.
 R6Disp: Adding Grimme-D2 dispersion energy 1st derivatives to the gradient.
 Leave Link 1101 at Thu Oct 28 23:47:32 2021, MaxMem=  5242880000 cpu:       934.3
 (Enter /opt/nce/packages/global/g09/l1102.exe)
 Symmetrizing basis deriv contribution to polar:
 IMax=3 JMax=2 DiffMx= 0.00D+00
 Leave Link 1102 at Thu Oct 28 23:47:33 2021, MaxMem=  5242880000 cpu:         6.1
 (Enter /opt/nce/packages/global/g09/l1110.exe)
 Forming Gx(P) for the SCF density, NAtomX=    79.
 Integral derivatives from FoFJK, PRISM(SPDF).
 Do as many integral derivatives as possible in FoFJK.
 G2DrvN: MDV=    5242879264.
 G2DrvN: will do    40 centers at a time, making    2 passes.
 G2DrvN:  IPasSy=1 do centers    0 through   39.
 Calling FoFCou, ICntrl=  3107 FMM=T I1Cent=   0 AccDes= 1.00D-11.
 FoFJK:  IHMeth= 1 ICntrl=    3107 DoSepK=T KAlg= 0 I1Cent=   0 FoldK=F
 IRaf=         1 NMat=   1 IRICut=       1 DoRegI=T DoRafI=F ISym2E= 0.
 FoFCou: FMM=T IPFlag=           0 FMFlag=      100000 FMFlg1=        2001
         NFxFlg=           0 DoJE=F BraDBF=F KetDBF=F FulRan=T
         wScrn=  0.000000 ICntrl=    3507 IOpCl=  0 I1Cent=           0 NGrid=           0
         NMat0=    1 NMatS0=      1 NMatT0=    0 NMatD0=    1 NMtDS0=    0 NMtDT0=    0
 Symmetry not used in FoFCou.
 FMM levels:  10  Number of levels for PrismC:   9
 G2DrvN:  IPasSy=1 do centers   40 through   79.
 Calling FoFCou, ICntrl=  3107 FMM=T I1Cent=   0 AccDes= 1.00D-11.
 NEqPCM:  Using equilibrium solvation (IEInf=0, Eps=  37.7810, EpsInf=   2.0678)
 G2PCM: DoFxE=T DoFxN=T DoGrad=T DoDP/DQ/DG/TGxP=FFFF NFrqRd=   0 IEInf=0 SqF1=F DoCFld=F IF1Alg=4.
 GePol: Maximum number of non-zero 1st derivatives   =     284
 End of G2Drv F.D. properties file   721 does not exist.
 End of G2Drv F.D. properties file   722 does not exist.
 End of G2Drv F.D. properties file   788 does not exist.
 Leave Link 1110 at Fri Oct 29 01:48:05 2021, MaxMem=  5242880000 cpu:     86562.1
 (Enter /opt/nce/packages/global/g09/l1002.exe)
 Minotr:  Closed shell wavefunction.
          IDoAtm=11111111111111111111111111111111111111111111111111
          IDoAtm=11111111111111111111111111111
 NEqPCM:  Using equilibrium solvation (IEInf=0, Eps=  37.7810, EpsInf=   2.0678)
          Direct CPHF calculation.
          Differentiating once with respect to electric field.
                with respect to dipole field.
          Differentiating once with respect to nuclear coordinates.
          Requested convergence is 1.0D-08 RMS, and 1.0D-07 maximum.
          Secondary convergence is 1.0D-12 RMS, and 1.0D-12 maximum.
          NewPWx=T KeepS1=F KeepF1=F KeepIn=T MapXYZ=F SortEE=F KeepMc=T.
          MDV=    5242877532 using IRadAn=       1.
 Generate precomputed XC quadrature information.
          Solving linear equations simultaneously, MaxMat=      72.
 FoF2E skips out because all densities are zero.
 CalDSu exits because no D1Ps are significant.
 FoFJK:  IHMeth= 1 ICntrl=       0 DoSepK=T KAlg= 0 I1Cent=   0 FoldK=F
 IRaf=         1 NMat=  72 IRICut=       1 DoRegI=T DoRafI=F ISym2E= 0.
          There are   240 degrees of freedom in the 1st order CPHF.  IDoFFX=6 NUNeed=     3.
    240 vectors produced by pass  0 Test12= 2.44D-13 1.00D-09 XBig12= 3.69D+02 7.04D+00.
 AX will form    72 AO Fock derivatives at one time.
    239 vectors produced by pass  1 Test12= 2.44D-13 1.00D-09 XBig12= 2.54D+01 8.96D-01.
    237 vectors produced by pass  2 Test12= 2.44D-13 1.00D-09 XBig12= 7.08D-01 1.36D-01.
    237 vectors produced by pass  3 Test12= 2.44D-13 1.00D-09 XBig12= 1.01D-02 1.21D-02.
    237 vectors produced by pass  4 Test12= 2.44D-13 1.00D-09 XBig12= 8.68D-05 9.04D-04.
    237 vectors produced by pass  5 Test12= 2.44D-13 1.00D-09 XBig12= 7.78D-07 6.48D-05.
    235 vectors produced by pass  6 Test12= 2.44D-13 1.00D-09 XBig12= 6.54D-09 5.80D-06.
    124 vectors produced by pass  7 Test12= 2.44D-13 1.00D-09 XBig12= 5.33D-11 4.83D-07.
     15 vectors produced by pass  8 Test12= 2.44D-13 1.00D-09 XBig12= 3.84D-13 3.39D-08.
      6 vectors produced by pass  9 Test12= 2.44D-13 1.00D-09 XBig12= 3.12D-15 2.55D-09.
      5 vectors produced by pass 10 Test12= 2.44D-13 1.00D-09 XBig12= 1.04D-15 2.53D-09.
      4 vectors produced by pass 11 Test12= 2.44D-13 1.00D-09 XBig12= 1.20D-15 2.53D-09.
      4 vectors produced by pass 12 Test12= 2.44D-13 1.00D-09 XBig12= 1.02D-15 1.92D-09.
      3 vectors produced by pass 13 Test12= 2.44D-13 1.00D-09 XBig12= 5.95D-16 1.19D-09.
 InvSVY:  IOpt=1 It=  1 EMax= 2.84D-14
 Solved reduced A of dimension  1823 with   240 vectors.
 FullF1:  Do perturbations    1 to     3.
 Isotropic polarizability for W=    0.000000      856.78 Bohr**3.
 End of Minotr F.D. properties file   721 does not exist.
 End of Minotr F.D. properties file   722 does not exist.
 End of Minotr F.D. properties file   788 does not exist.
 Leave Link 1002 at Fri Oct 29 22:09:47 2021, MaxMem=  5242880000 cpu:    877211.2
 (Enter /opt/nce/packages/global/g09/l601.exe)
 Copying SCF densities to generalized density rwf, IOpCl= 0 IROHF=0.

 **********************************************************************

            Population analysis using the SCF density.

 **********************************************************************

 Alpha  occ. eigenvalues --  -19.30204 -14.47726 -10.35472 -10.35470 -10.34046
 Alpha  occ. eigenvalues --  -10.34044 -10.33212 -10.30435 -10.30288 -10.29959
 Alpha  occ. eigenvalues --  -10.29958 -10.29950 -10.29945 -10.29843 -10.29840
 Alpha  occ. eigenvalues --  -10.29740 -10.29734 -10.29367 -10.29251 -10.29090
 Alpha  occ. eigenvalues --  -10.29034 -10.29003 -10.28947 -10.28837 -10.28812
 Alpha  occ. eigenvalues --  -10.28804 -10.28804 -10.28801 -10.28645 -10.28639
 Alpha  occ. eigenvalues --  -10.28636 -10.28630 -10.28590 -10.28589 -10.28588
 Alpha  occ. eigenvalues --  -10.28587 -10.28568 -10.28562 -10.28559 -10.28554
 Alpha  occ. eigenvalues --  -10.28534 -10.28534 -10.28527 -10.28524 -10.28524
 Alpha  occ. eigenvalues --  -10.28524 -10.28432 -10.28432  -1.20300  -1.08629
 Alpha  occ. eigenvalues --   -0.98692  -0.98617  -0.97978  -0.97455  -0.96348
 Alpha  occ. eigenvalues --   -0.95492  -0.94563  -0.93113  -0.89945  -0.89139
 Alpha  occ. eigenvalues --   -0.87911  -0.87571  -0.86168  -0.85272  -0.85180
 Alpha  occ. eigenvalues --   -0.84871  -0.84648  -0.84418  -0.84392  -0.83610
 Alpha  occ. eigenvalues --   -0.82535  -0.81690  -0.79470  -0.75479  -0.75293
 Alpha  occ. eigenvalues --   -0.72588  -0.72119  -0.72001  -0.71684  -0.71282
 Alpha  occ. eigenvalues --   -0.71224  -0.69826  -0.68953  -0.68121  -0.68072
 Alpha  occ. eigenvalues --   -0.67688  -0.67617  -0.66115  -0.65023  -0.62988
 Alpha  occ. eigenvalues --   -0.62245  -0.62154  -0.61030  -0.59715  -0.59617
 Alpha  occ. eigenvalues --   -0.59155  -0.58516  -0.57777  -0.56449  -0.56213
 Alpha  occ. eigenvalues --   -0.56104  -0.55490  -0.55445  -0.55094  -0.53923
 Alpha  occ. eigenvalues --   -0.53793  -0.53157  -0.52875  -0.52735  -0.52434
 Alpha  occ. eigenvalues --   -0.52329  -0.52136  -0.51885  -0.51564  -0.51481
 Alpha  occ. eigenvalues --   -0.51174  -0.50814  -0.50786  -0.49990  -0.49946
 Alpha  occ. eigenvalues --   -0.49119  -0.49031  -0.48925  -0.48394  -0.47857
 Alpha  occ. eigenvalues --   -0.47377  -0.47322  -0.46923  -0.46563  -0.46163
 Alpha  occ. eigenvalues --   -0.45765  -0.45388  -0.44762  -0.44610  -0.43668
 Alpha  occ. eigenvalues --   -0.43171  -0.43088  -0.42726  -0.42589  -0.42472
 Alpha  occ. eigenvalues --   -0.41825  -0.41599  -0.41417  -0.41307  -0.41060
 Alpha  occ. eigenvalues --   -0.40899  -0.37801  -0.37374  -0.35936  -0.34660
 Alpha  occ. eigenvalues --   -0.33894  -0.33609  -0.33608  -0.33516  -0.33512
 Alpha  occ. eigenvalues --   -0.32740  -0.31808  -0.30167  -0.29968  -0.29293
 Alpha  occ. eigenvalues --   -0.24718
 Alpha virt. eigenvalues --    0.01017   0.01101   0.02189   0.03691   0.05079
 Alpha virt. eigenvalues --    0.05161   0.05395   0.05642   0.05665   0.05901
 Alpha virt. eigenvalues --    0.06008   0.07556   0.08462   0.09830   0.11772
 Alpha virt. eigenvalues --    0.12570   0.13083   0.13902   0.13912   0.14313
 Alpha virt. eigenvalues --    0.14405   0.14560   0.15153   0.15263   0.15346
 Alpha virt. eigenvalues --    0.15760   0.16042   0.16359   0.16901   0.17115
 Alpha virt. eigenvalues --    0.17146   0.17937   0.18088   0.18226   0.18393
 Alpha virt. eigenvalues --    0.18492   0.18976   0.19183   0.19359   0.19483
 Alpha virt. eigenvalues --    0.19656   0.19750   0.19802   0.20125   0.20305
 Alpha virt. eigenvalues --    0.20476   0.20834   0.21203   0.21317   0.21546
 Alpha virt. eigenvalues --    0.21654   0.22586   0.22850   0.23041   0.23217
 Alpha virt. eigenvalues --    0.23414   0.23514   0.23735   0.24123   0.24212
 Alpha virt. eigenvalues --    0.24369   0.24528   0.25363   0.25541   0.25977
 Alpha virt. eigenvalues --    0.26448   0.26906   0.27066   0.27294   0.27561
 Alpha virt. eigenvalues --    0.27679   0.27775   0.27808   0.27897   0.28050
 Alpha virt. eigenvalues --    0.28126   0.28474   0.28716   0.28784   0.29192
 Alpha virt. eigenvalues --    0.29284   0.29399   0.29626   0.29943   0.30067
 Alpha virt. eigenvalues --    0.30258   0.30430   0.30662   0.30682   0.31087
 Alpha virt. eigenvalues --    0.31258   0.31451   0.31583   0.31745   0.31932
 Alpha virt. eigenvalues --    0.32063   0.32232   0.32277   0.32329   0.32534
 Alpha virt. eigenvalues --    0.32720   0.33077   0.33156   0.33327   0.33551
 Alpha virt. eigenvalues --    0.33653   0.34036   0.34226   0.34317   0.34758
 Alpha virt. eigenvalues --    0.35289   0.35327   0.35561   0.35943   0.36118
 Alpha virt. eigenvalues --    0.36306   0.36726   0.36734   0.36880   0.36992
 Alpha virt. eigenvalues --    0.37088   0.37430   0.37839   0.38149   0.38316
 Alpha virt. eigenvalues --    0.38535   0.38832   0.39001   0.39310   0.39616
 Alpha virt. eigenvalues --    0.39830   0.39997   0.40229   0.40453   0.40608
 Alpha virt. eigenvalues --    0.40730   0.40949   0.41418   0.41628   0.41702
 Alpha virt. eigenvalues --    0.41814   0.41922   0.42095   0.42275   0.42282
 Alpha virt. eigenvalues --    0.42394   0.42456   0.42765   0.42887   0.43136
 Alpha virt. eigenvalues --    0.43311   0.43578   0.43716   0.44107   0.44168
 Alpha virt. eigenvalues --    0.44456   0.44658   0.44819   0.45008   0.45170
 Alpha virt. eigenvalues --    0.45390   0.45761   0.45813   0.45976   0.46214
 Alpha virt. eigenvalues --    0.46338   0.46432   0.46750   0.46757   0.46905
 Alpha virt. eigenvalues --    0.47427   0.47539   0.47763   0.48112   0.48433
 Alpha virt. eigenvalues --    0.48807   0.48956   0.49222   0.49307   0.49508
 Alpha virt. eigenvalues --    0.49748   0.49922   0.50037   0.50149   0.50189
 Alpha virt. eigenvalues --    0.50388   0.50593   0.50848   0.51089   0.51344
 Alpha virt. eigenvalues --    0.51681   0.51702   0.51854   0.52118   0.52275
 Alpha virt. eigenvalues --    0.52345   0.52594   0.52892   0.53118   0.53369
 Alpha virt. eigenvalues --    0.53454   0.53715   0.54026   0.54338   0.54345
 Alpha virt. eigenvalues --    0.54479   0.55314   0.55466   0.55827   0.55870
 Alpha virt. eigenvalues --    0.56248   0.56690   0.56705   0.56835   0.57050
 Alpha virt. eigenvalues --    0.57395   0.57706   0.57871   0.58025   0.58280
 Alpha virt. eigenvalues --    0.58462   0.58722   0.58920   0.59337   0.59441
 Alpha virt. eigenvalues --    0.59494   0.59784   0.59885   0.60018   0.60086
 Alpha virt. eigenvalues --    0.60280   0.60706   0.60923   0.61039   0.61743
 Alpha virt. eigenvalues --    0.61885   0.62041   0.62631   0.62857   0.63145
 Alpha virt. eigenvalues --    0.63509   0.64125   0.64492   0.64687   0.65277
 Alpha virt. eigenvalues --    0.65515   0.66268   0.66333   0.66649   0.66830
 Alpha virt. eigenvalues --    0.67075   0.67493   0.68100   0.68500   0.68552
 Alpha virt. eigenvalues --    0.68629   0.68900   0.69431   0.69628   0.69678
 Alpha virt. eigenvalues --    0.70273   0.70400   0.70956   0.71458   0.71636
 Alpha virt. eigenvalues --    0.71962   0.72048   0.72230   0.72425   0.73037
 Alpha virt. eigenvalues --    0.73217   0.73830   0.73984   0.74222   0.74367
 Alpha virt. eigenvalues --    0.74832   0.75048   0.75416   0.75717   0.75993
 Alpha virt. eigenvalues --    0.76272   0.76462   0.76905   0.77094   0.77360
 Alpha virt. eigenvalues --    0.77566   0.77884   0.78097   0.78229   0.78344
 Alpha virt. eigenvalues --    0.78470   0.78770   0.79088   0.79154   0.79305
 Alpha virt. eigenvalues --    0.79576   0.79639   0.79956   0.80040   0.80147
 Alpha virt. eigenvalues --    0.80378   0.80554   0.80774   0.80899   0.81076
 Alpha virt. eigenvalues --    0.81315   0.81350   0.81772   0.82073   0.82183
 Alpha virt. eigenvalues --    0.82342   0.82449   0.82586   0.82660   0.83100
 Alpha virt. eigenvalues --    0.83218   0.83441   0.83721   0.83963   0.84050
 Alpha virt. eigenvalues --    0.84549   0.84828   0.85129   0.85504   0.85716
 Alpha virt. eigenvalues --    0.85960   0.86427   0.86968   0.87085   0.87318
 Alpha virt. eigenvalues --    0.87465   0.87623   0.88301   0.88503   0.88855
 Alpha virt. eigenvalues --    0.89152   0.89327   0.89610   0.89981   0.90236
 Alpha virt. eigenvalues --    0.90538   0.90655   0.90929   0.91456   0.91663
 Alpha virt. eigenvalues --    0.92047   0.92346   0.92774   0.93342   0.93515
 Alpha virt. eigenvalues --    0.93737   0.93901   0.94282   0.94667   0.94760
 Alpha virt. eigenvalues --    0.95196   0.95356   0.95651   0.95791   0.96028
 Alpha virt. eigenvalues --    0.96172   0.96379   0.96533   0.96909   0.97093
 Alpha virt. eigenvalues --    0.97368   0.97786   0.97890   0.98011   0.98270
 Alpha virt. eigenvalues --    0.98484   0.98732   0.99038   0.99502   1.00133
 Alpha virt. eigenvalues --    1.00512   1.00883   1.01092   1.01632   1.02066
 Alpha virt. eigenvalues --    1.02300   1.02464   1.02611   1.02938   1.03486
 Alpha virt. eigenvalues --    1.04039   1.04090   1.04603   1.04727   1.05147
 Alpha virt. eigenvalues --    1.05551   1.05761   1.06248   1.06497   1.06942
 Alpha virt. eigenvalues --    1.07640   1.07830   1.08494   1.08720   1.08906
 Alpha virt. eigenvalues --    1.09082   1.09453   1.09747   1.09938   1.10692
 Alpha virt. eigenvalues --    1.10755   1.11296   1.11801   1.12059   1.12874
 Alpha virt. eigenvalues --    1.12933   1.13426   1.13772   1.14286   1.14889
 Alpha virt. eigenvalues --    1.15052   1.15440   1.15593   1.16007   1.16224
 Alpha virt. eigenvalues --    1.17091   1.17826   1.18272   1.18486   1.19472
 Alpha virt. eigenvalues --    1.19859   1.20098   1.20186   1.20533   1.20752
 Alpha virt. eigenvalues --    1.21231   1.21434   1.21746   1.22642   1.23106
 Alpha virt. eigenvalues --    1.23565   1.24051   1.24639   1.25084   1.25306
 Alpha virt. eigenvalues --    1.25444   1.25781   1.26013   1.26852   1.26918
 Alpha virt. eigenvalues --    1.27483   1.28088   1.28202   1.28587   1.28628
 Alpha virt. eigenvalues --    1.29012   1.29298   1.29392   1.29556   1.30025
 Alpha virt. eigenvalues --    1.30316   1.30683   1.31077   1.31433   1.31661
 Alpha virt. eigenvalues --    1.31707   1.32063   1.32489   1.32879   1.33318
 Alpha virt. eigenvalues --    1.33756   1.34081   1.34661   1.34747   1.34965
 Alpha virt. eigenvalues --    1.35801   1.35899   1.36030   1.36265   1.36423
 Alpha virt. eigenvalues --    1.36812   1.37658   1.38225   1.38476   1.38626
 Alpha virt. eigenvalues --    1.38815   1.39150   1.39528   1.39735   1.40007
 Alpha virt. eigenvalues --    1.40311   1.40365   1.40603   1.40847   1.41165
 Alpha virt. eigenvalues --    1.41295   1.41478   1.42021   1.42423   1.42805
 Alpha virt. eigenvalues --    1.43117   1.43820   1.43954   1.44843   1.45257
 Alpha virt. eigenvalues --    1.45369   1.46206   1.46713   1.46918   1.47558
 Alpha virt. eigenvalues --    1.48018   1.48249   1.48467   1.48642   1.48848
 Alpha virt. eigenvalues --    1.49352   1.50294   1.50985   1.51233   1.51595
 Alpha virt. eigenvalues --    1.51668   1.51960   1.52019   1.52174   1.52638
 Alpha virt. eigenvalues --    1.53075   1.53274   1.54188   1.54641   1.54867
 Alpha virt. eigenvalues --    1.55240   1.55512   1.55625   1.56368   1.56504
 Alpha virt. eigenvalues --    1.56600   1.56678   1.57417   1.57723   1.58481
 Alpha virt. eigenvalues --    1.58780   1.59206   1.59394   1.59654   1.59724
 Alpha virt. eigenvalues --    1.60379   1.60641   1.61176   1.61221   1.61380
 Alpha virt. eigenvalues --    1.61579   1.61796   1.62073   1.62384   1.62519
 Alpha virt. eigenvalues --    1.63169   1.63568   1.64027   1.64190   1.64545
 Alpha virt. eigenvalues --    1.64705   1.65038   1.65235   1.65599   1.65799
 Alpha virt. eigenvalues --    1.65980   1.66005   1.66571   1.66643   1.66856
 Alpha virt. eigenvalues --    1.67210   1.68038   1.68212   1.68542   1.68883
 Alpha virt. eigenvalues --    1.69505   1.69909   1.70089   1.70282   1.70870
 Alpha virt. eigenvalues --    1.71123   1.72312   1.73007   1.73427   1.73692
 Alpha virt. eigenvalues --    1.73796   1.74054   1.74273   1.74713   1.75047
 Alpha virt. eigenvalues --    1.75266   1.75412   1.75595   1.76017   1.76470
 Alpha virt. eigenvalues --    1.76485   1.76869   1.77018   1.77542   1.77780
 Alpha virt. eigenvalues --    1.78170   1.78333   1.78524   1.78746   1.79061
 Alpha virt. eigenvalues --    1.79173   1.79545   1.79680   1.79968   1.80477
 Alpha virt. eigenvalues --    1.80534   1.80790   1.81259   1.81539   1.81754
 Alpha virt. eigenvalues --    1.81847   1.81996   1.82512   1.82812   1.83291
 Alpha virt. eigenvalues --    1.83537   1.83775   1.84011   1.84438   1.84990
 Alpha virt. eigenvalues --    1.85838   1.86206   1.86817   1.87133   1.87248
 Alpha virt. eigenvalues --    1.87662   1.87919   1.88414   1.88612   1.89175
 Alpha virt. eigenvalues --    1.90109   1.90865   1.91286   1.91880   1.92188
 Alpha virt. eigenvalues --    1.93370   1.93482   1.94100   1.94720   1.95056
 Alpha virt. eigenvalues --    1.95124   1.95502   1.95788   1.96270   1.96802
 Alpha virt. eigenvalues --    1.97226   1.97327   1.97902   1.98514   1.99009
 Alpha virt. eigenvalues --    1.99152   1.99860   2.00190   2.00496   2.00683
 Alpha virt. eigenvalues --    2.01622   2.01860   2.02121   2.02497   2.02555
 Alpha virt. eigenvalues --    2.02842   2.03961   2.04339   2.04834   2.05212
 Alpha virt. eigenvalues --    2.05830   2.06623   2.07091   2.07888   2.08773
 Alpha virt. eigenvalues --    2.08858   2.09550   2.09677   2.10333   2.10985
 Alpha virt. eigenvalues --    2.11590   2.12386   2.12566   2.12934   2.13227
 Alpha virt. eigenvalues --    2.13293   2.13541   2.13998   2.14111   2.14369
 Alpha virt. eigenvalues --    2.14481   2.14935   2.15519   2.15745   2.16363
 Alpha virt. eigenvalues --    2.16702   2.17129   2.17451   2.17592   2.17856
 Alpha virt. eigenvalues --    2.18742   2.19637   2.20041   2.20399   2.20560
 Alpha virt. eigenvalues --    2.21210   2.21370   2.22232   2.22422   2.23468
 Alpha virt. eigenvalues --    2.24515   2.25599   2.25709   2.25998   2.26515
 Alpha virt. eigenvalues --    2.26941   2.27078   2.27210   2.27353   2.27924
 Alpha virt. eigenvalues --    2.28532   2.28632   2.28761   2.29050   2.29092
 Alpha virt. eigenvalues --    2.29334   2.29740   2.30288   2.30876   2.31312
 Alpha virt. eigenvalues --    2.31459   2.32116   2.32278   2.32593   2.32935
 Alpha virt. eigenvalues --    2.33043   2.33209   2.33745   2.33964   2.34256
 Alpha virt. eigenvalues --    2.34336   2.34533   2.35162   2.35524   2.36588
 Alpha virt. eigenvalues --    2.37434   2.37687   2.38755   2.39328   2.39376
 Alpha virt. eigenvalues --    2.40500   2.41285   2.41545   2.41831   2.42518
 Alpha virt. eigenvalues --    2.43219   2.43422   2.44036   2.45362   2.46639
 Alpha virt. eigenvalues --    2.46709   2.47224   2.47741   2.48192   2.48257
 Alpha virt. eigenvalues --    2.48709   2.49764   2.51503   2.51828   2.51987
 Alpha virt. eigenvalues --    2.52676   2.53425   2.53518   2.54097   2.54958
 Alpha virt. eigenvalues --    2.55157   2.55346   2.55420   2.55952   2.56584
 Alpha virt. eigenvalues --    2.57067   2.57606   2.57874   2.58333   2.58852
 Alpha virt. eigenvalues --    2.59366   2.59673   2.60677   2.61535   2.61582
 Alpha virt. eigenvalues --    2.62260   2.63334   2.63594   2.64016   2.64524
 Alpha virt. eigenvalues --    2.64595   2.65555   2.66143   2.66331   2.67064
 Alpha virt. eigenvalues --    2.67510   2.67541   2.67693   2.68142   2.68361
 Alpha virt. eigenvalues --    2.68981   2.69254   2.69615   2.70335   2.70523
 Alpha virt. eigenvalues --    2.70711   2.70845   2.71029   2.71230   2.71777
 Alpha virt. eigenvalues --    2.71942   2.72051   2.72400   2.73190   2.73373
 Alpha virt. eigenvalues --    2.73896   2.74289   2.74525   2.74965   2.75059
 Alpha virt. eigenvalues --    2.75437   2.75556   2.75947   2.76083   2.76139
 Alpha virt. eigenvalues --    2.76586   2.76671   2.76763   2.76923   2.77061
 Alpha virt. eigenvalues --    2.77278   2.77620   2.77868   2.78066   2.78308
 Alpha virt. eigenvalues --    2.78598   2.78947   2.79239   2.79434   2.79723
 Alpha virt. eigenvalues --    2.79980   2.80200   2.80616   2.81050   2.81174
 Alpha virt. eigenvalues --    2.81423   2.81561   2.81841   2.82210   2.82345
 Alpha virt. eigenvalues --    2.82649   2.83193   2.83325   2.83531   2.83823
 Alpha virt. eigenvalues --    2.84246   2.84367   2.84590   2.84707   2.84880
 Alpha virt. eigenvalues --    2.85546   2.85729   2.85884   2.86178   2.86328
 Alpha virt. eigenvalues --    2.86634   2.86722   2.87114   2.87188   2.87635
 Alpha virt. eigenvalues --    2.87758   2.88032   2.88229   2.88728   2.88863
 Alpha virt. eigenvalues --    2.89298   2.89487   2.89914   2.90212   2.90436
 Alpha virt. eigenvalues --    2.90766   2.91015   2.91388   2.91610   2.91754
 Alpha virt. eigenvalues --    2.91842   2.92136   2.92328   2.92611   2.92708
 Alpha virt. eigenvalues --    2.93049   2.93140   2.93459   2.93736   2.94277
 Alpha virt. eigenvalues --    2.94411   2.94508   2.94815   2.95130   2.95515
 Alpha virt. eigenvalues --    2.95595   2.95857   2.96100   2.96194   2.96405
 Alpha virt. eigenvalues --    2.96461   2.96719   2.96889   2.97240   2.97397
 Alpha virt. eigenvalues --    2.98144   2.98733   2.99020   2.99365   2.99561
 Alpha virt. eigenvalues --    2.99794   2.99883   3.00273   3.00402   3.01432
 Alpha virt. eigenvalues --    3.01668   3.01733   3.02159   3.02290   3.02655
 Alpha virt. eigenvalues --    3.03260   3.03684   3.03956   3.04831   3.05176
 Alpha virt. eigenvalues --    3.05635   3.05902   3.06225   3.06505   3.06944
 Alpha virt. eigenvalues --    3.07537   3.07739   3.08554   3.08985   3.09460
 Alpha virt. eigenvalues --    3.09548   3.10069   3.10194   3.10593   3.10600
 Alpha virt. eigenvalues --    3.10779   3.10963   3.11258   3.11412   3.11881
 Alpha virt. eigenvalues --    3.12092   3.13283   3.13395   3.13713   3.13851
 Alpha virt. eigenvalues --    3.13961   3.14200   3.14260   3.14730   3.15389
 Alpha virt. eigenvalues --    3.15775   3.15922   3.16187   3.16754   3.17105
 Alpha virt. eigenvalues --    3.17781   3.18183   3.18592   3.18987   3.19211
 Alpha virt. eigenvalues --    3.19355   3.19565   3.19861   3.20235   3.20552
 Alpha virt. eigenvalues --    3.20836   3.20946   3.21454   3.21897   3.22087
 Alpha virt. eigenvalues --    3.22409   3.22865   3.23055   3.23101   3.23692
 Alpha virt. eigenvalues --    3.23726   3.24133   3.24362   3.24435   3.24867
 Alpha virt. eigenvalues --    3.24954   3.24996   3.25377   3.25770   3.26033
 Alpha virt. eigenvalues --    3.26429   3.26700   3.26942   3.27198   3.27489
 Alpha virt. eigenvalues --    3.27761   3.28051   3.28456   3.28505   3.28718
 Alpha virt. eigenvalues --    3.29086   3.29197   3.29235   3.29769   3.29914
 Alpha virt. eigenvalues --    3.30001   3.30134   3.30431   3.30644   3.31109
 Alpha virt. eigenvalues --    3.31384   3.31563   3.32065   3.33214   3.33707
 Alpha virt. eigenvalues --    3.33890   3.34234   3.34467   3.34888   3.35372
 Alpha virt. eigenvalues --    3.35636   3.35713   3.36001   3.36168   3.36263
 Alpha virt. eigenvalues --    3.36428   3.36932   3.37124   3.37704   3.37745
 Alpha virt. eigenvalues --    3.37973   3.38164   3.38544   3.39074   3.39343
 Alpha virt. eigenvalues --    3.39780   3.40099   3.40360   3.40980   3.41167
 Alpha virt. eigenvalues --    3.41416   3.41570   3.41992   3.42021   3.42270
 Alpha virt. eigenvalues --    3.42528   3.42825   3.43168   3.43270   3.43479
 Alpha virt. eigenvalues --    3.43640   3.43767   3.44166   3.44264   3.44915
 Alpha virt. eigenvalues --    3.45069   3.45590   3.45988   3.46188   3.46694
 Alpha virt. eigenvalues --    3.46841   3.47104   3.47158   3.47184   3.47352
 Alpha virt. eigenvalues --    3.47683   3.48211   3.48593   3.48687   3.49106
 Alpha virt. eigenvalues --    3.49132   3.49457   3.49608   3.50293   3.50724
 Alpha virt. eigenvalues --    3.50932   3.51123   3.51622   3.51649   3.51786
 Alpha virt. eigenvalues --    3.51971   3.52248   3.52380   3.52580   3.52813
 Alpha virt. eigenvalues --    3.53118   3.53491   3.53759   3.54019   3.54472
 Alpha virt. eigenvalues --    3.54775   3.55042   3.55166   3.55478   3.55638
 Alpha virt. eigenvalues --    3.55815   3.56064   3.56244   3.56358   3.56470
 Alpha virt. eigenvalues --    3.56602   3.56925   3.57093   3.57344   3.58187
 Alpha virt. eigenvalues --    3.58355   3.58815   3.59228   3.59582   3.59714
 Alpha virt. eigenvalues --    3.60127   3.60281   3.60494   3.60819   3.61140
 Alpha virt. eigenvalues --    3.62040   3.62236   3.62503   3.62545   3.63222
 Alpha virt. eigenvalues --    3.63396   3.63806   3.63847   3.64167   3.64713
 Alpha virt. eigenvalues --    3.65158   3.65489   3.65647   3.66102   3.66367
 Alpha virt. eigenvalues --    3.66531   3.66819   3.66867   3.66950   3.67181
 Alpha virt. eigenvalues --    3.67910   3.68133   3.68414   3.69227   3.69509
 Alpha virt. eigenvalues --    3.69921   3.70070   3.70500   3.70761   3.71117
 Alpha virt. eigenvalues --    3.71215   3.72438   3.72914   3.73056   3.73233
 Alpha virt. eigenvalues --    3.73908   3.74250   3.74448   3.75150   3.75630
 Alpha virt. eigenvalues --    3.76478   3.76595   3.77063   3.77616   3.78061
 Alpha virt. eigenvalues --    3.78417   3.79334   3.79666   3.80001   3.80632
 Alpha virt. eigenvalues --    3.81664   3.82018   3.82333   3.83388   3.85208
 Alpha virt. eigenvalues --    3.86153   3.86462   3.86768   3.87154   3.87718
 Alpha virt. eigenvalues --    3.88560   3.89149   3.90406   3.90516   3.91155
 Alpha virt. eigenvalues --    3.91785   3.92051   3.92452   3.92677   3.93930
 Alpha virt. eigenvalues --    3.94231   3.94807   3.95546   3.96223   3.97044
 Alpha virt. eigenvalues --    3.97923   3.98068   3.98888   3.99329   3.99885
 Alpha virt. eigenvalues --    4.01103   4.01418   4.02634   4.02806   4.02979
 Alpha virt. eigenvalues --    4.03719   4.04262   4.04557   4.04944   4.05097
 Alpha virt. eigenvalues --    4.05800   4.06146   4.06345   4.07418   4.07523
 Alpha virt. eigenvalues --    4.08644   4.09203   4.09275   4.09500   4.10125
 Alpha virt. eigenvalues --    4.11373   4.11648   4.12082   4.12526   4.12706
 Alpha virt. eigenvalues --    4.13214   4.13681   4.14092   4.15026   4.15177
 Alpha virt. eigenvalues --    4.15532   4.16520   4.17139   4.18010   4.18582
 Alpha virt. eigenvalues --    4.19015   4.19366   4.20299   4.20401   4.21415
 Alpha virt. eigenvalues --    4.22282   4.22877   4.23178   4.23691   4.23924
 Alpha virt. eigenvalues --    4.24147   4.24334   4.24750   4.25934   4.26290
 Alpha virt. eigenvalues --    4.26863   4.26992   4.27555   4.27702   4.28024
 Alpha virt. eigenvalues --    4.28444   4.28754   4.28951   4.29191   4.29693
 Alpha virt. eigenvalues --    4.29957   4.30213   4.30436   4.30935   4.31177
 Alpha virt. eigenvalues --    4.31714   4.31887   4.32083   4.32500   4.32684
 Alpha virt. eigenvalues --    4.33255   4.33349   4.33658   4.33935   4.34000
 Alpha virt. eigenvalues --    4.34156   4.34510   4.34630   4.34904   4.35440
 Alpha virt. eigenvalues --    4.35613   4.35814   4.36109   4.36763   4.37122
 Alpha virt. eigenvalues --    4.37288   4.37715   4.37817   4.38121   4.38351
 Alpha virt. eigenvalues --    4.38806   4.39317   4.39421   4.40409   4.41207
 Alpha virt. eigenvalues --    4.41805   4.42514   4.43186   4.43354   4.43435
 Alpha virt. eigenvalues --    4.44806   4.45297   4.45586   4.46180   4.47472
 Alpha virt. eigenvalues --    4.47734   4.49361   4.49902   4.50752   4.51329
 Alpha virt. eigenvalues --    4.52067   4.53191   4.53327   4.53592   4.55039
 Alpha virt. eigenvalues --    4.55454   4.56093   4.56621   4.58182   4.58833
 Alpha virt. eigenvalues --    4.59676   4.60535   4.61179   4.61601   4.63061
 Alpha virt. eigenvalues --    4.63967   4.64891   4.66598   4.66882   4.68639
 Alpha virt. eigenvalues --    4.69532   4.70030   4.70697   4.71149   4.72164
 Alpha virt. eigenvalues --    4.72956   4.74025   4.74951   4.75580   4.76229
 Alpha virt. eigenvalues --    4.76677   4.77245   4.77397   4.77840   4.77924
 Alpha virt. eigenvalues --    4.78489   4.79125   4.79679   4.80408   4.80734
 Alpha virt. eigenvalues --    4.82069   4.82266   4.82917   4.84319   4.85456
 Alpha virt. eigenvalues --    4.86207   4.86704   4.86721   4.87061   4.87780
 Alpha virt. eigenvalues --    4.88285   4.88584   4.89404   4.90965   4.92056
 Alpha virt. eigenvalues --    4.93009   4.95888   4.97035   4.98041   4.98619
 Alpha virt. eigenvalues --    4.98711   5.00290   5.01790   5.02949   5.03798
 Alpha virt. eigenvalues --    5.04147   5.04270   5.04588   5.05202   5.05315
 Alpha virt. eigenvalues --    5.07339   5.07765   5.09457   5.10460   5.10819
 Alpha virt. eigenvalues --    5.11204   5.12097   5.12571   5.12733   5.13472
 Alpha virt. eigenvalues --    5.15185   5.15819   5.17326   5.18296   5.18985
 Alpha virt. eigenvalues --    5.20991   5.21204   5.23472   5.23643   5.24031
 Alpha virt. eigenvalues --    5.25427   5.30000   5.30486   5.32366   5.32947
 Alpha virt. eigenvalues --    5.33977   5.34083   5.36256   5.36985   5.38046
 Alpha virt. eigenvalues --    5.38596   5.41609   5.42223   5.42416   5.42673
 Alpha virt. eigenvalues --    5.44661   5.46126   5.47804   5.49115   5.49898
 Alpha virt. eigenvalues --    5.50221   5.50984   5.51075   5.54710   5.56359
 Alpha virt. eigenvalues --    5.56629   5.56856   5.59617   5.60185   5.61013
 Alpha virt. eigenvalues --    5.61255   5.62340   5.64288   5.64638   5.68043
 Alpha virt. eigenvalues --    5.68670   5.69719   5.71996   5.72345   5.74648
 Alpha virt. eigenvalues --    5.77103   5.78233   5.78718   5.79897   5.80591
 Alpha virt. eigenvalues --    5.83691   5.86059   5.93057   5.96954   5.98484
 Alpha virt. eigenvalues --    6.04047   6.04906   6.16236   6.17617   6.23773
 Alpha virt. eigenvalues --    6.34369   6.34785   6.38125   6.66055   6.75308
 Alpha virt. eigenvalues --    6.95654   6.99701   6.99898   7.55381   7.62163
 Alpha virt. eigenvalues --   22.12532  22.15927  22.36598  22.43804  22.45547
 Alpha virt. eigenvalues --   22.54262  22.57801  22.70328  22.70456  22.71589
 Alpha virt. eigenvalues --   22.74107  22.74162  22.78033  22.82640  22.83666
 Alpha virt. eigenvalues --   22.84352  22.85599  22.86206  22.87903  22.89369
 Alpha virt. eigenvalues --   22.89917  22.92164  22.92723  22.93246  22.93583
 Alpha virt. eigenvalues --   22.96908  22.97451  22.97576  23.00843  23.01960
 Alpha virt. eigenvalues --   23.03124  23.06483  23.07251  23.09919  23.16467
 Alpha virt. eigenvalues --   23.20757  23.21561  23.25751  23.36795  23.37381
 Alpha virt. eigenvalues --   23.39196  23.54343  23.57761  23.64638  23.73806
 Alpha virt. eigenvalues --   23.80046  33.48439  44.64824
          Condensed to atoms (all electrons):
 Mulliken charges:
               1
     1  C   -0.291504
     2  C   -0.231701
     3  C    0.035562
     4  C    0.280596
     5  C   -0.421183
     6  C    0.246527
     7  C    0.277806
     8  C    0.034646
     9  C   -0.227958
    10  H    0.181697
    11  C   -0.293188
    12  C    0.248410
    13  C   -0.421394
    14  H    0.182002
    15  H    0.164514
    16  H    0.166809
    17  N    0.081877
    18  C    0.143827
    19  C   -0.057212
    20  C   -0.194181
    21  C   -0.315264
    22  C    0.119119
    23  C   -0.085748
    24  H    0.152442
    25  C   -0.115848
    26  H    0.181453
    27  C   -0.192356
    28  C   -0.251045
    29  H    0.161424
    30  C   -0.153954
    31  H    0.162324
    32  H    0.158539
    33  H    0.156993
    34  H    0.163292
    35  H    0.163090
    36  H    0.167755
    37  C    0.138764
    38  C   -0.247513
    39  C   -0.256478
    40  C   -0.253186
    41  H    0.168874
    42  C   -0.249667
    43  H    0.168471
    44  C    0.214108
    45  H    0.169237
    46  H    0.169225
    47  C    0.142530
    48  C   -0.272852
    49  C   -0.273539
    50  C   -0.161515
    51  H    0.171552
    52  C   -0.162039
    53  H    0.171472
    54  C   -0.161361
    55  H    0.161136
    56  H    0.161093
    57  H    0.163159
    58  C    0.137354
    59  C   -0.250540
    60  C   -0.253095
    61  C   -0.250049
    62  H    0.168236
    63  C   -0.250231
    64  H    0.168057
    65  C    0.214252
    66  H    0.168574
    67  H    0.168465
    68  C    0.140936
    69  C   -0.271680
    70  C   -0.271107
    71  C   -0.161620
    72  H    0.170793
    73  C   -0.162199
    74  H    0.170858
    75  C   -0.161671
    76  H    0.161108
    77  H    0.161132
    78  H    0.163175
    79  O   -0.300384
 Sum of Mulliken charges =  -0.00000
 Mulliken charges with hydrogens summed into heavy atoms:
               1
     1  C   -0.123749
     2  C   -0.049700
     3  C    0.035562
     4  C    0.280596
     5  C   -0.256669
     6  C    0.246527
     7  C    0.277806
     8  C    0.034646
     9  C   -0.046261
    11  C   -0.126379
    12  C    0.248410
    13  C   -0.258304
    17  N    0.081877
    18  C    0.143827
    19  C   -0.057212
    20  C   -0.041740
    21  C   -0.133811
    22  C    0.119119
    23  C    0.075676
    25  C    0.046476
    27  C   -0.033817
    28  C   -0.094052
    30  C    0.009338
    37  C    0.138764
    38  C   -0.078639
    39  C   -0.088007
    40  C   -0.083949
    42  C   -0.080442
    44  C    0.214108
    47  C    0.142530
    48  C   -0.101301
    49  C   -0.102066
    50  C   -0.000380
    52  C   -0.000946
    54  C    0.001798
    58  C    0.137354
    59  C   -0.082304
    60  C   -0.085038
    61  C   -0.081475
    63  C   -0.081766
    65  C    0.214252
    68  C    0.140936
    69  C   -0.100888
    70  C   -0.100249
    71  C   -0.000512
    73  C   -0.001066
    75  C    0.001504
    79  O   -0.300384
 APT charges:
               1
     1  C   -0.097259
     2  C   -0.245774
     3  C    0.891126
     4  C    0.623175
     5  C   -0.103231
     6  C   -0.045630
     7  C    0.622058
     8  C    0.895743
     9  C   -0.247747
    10  H    0.092911
    11  C   -0.096694
    12  C   -0.047003
    13  C   -0.106437
    14  H    0.093130
    15  H    0.102575
    16  H    0.073171
    17  N   -1.798688
    18  C    0.486545
    19  C   -0.071403
    20  C   -0.110169
    21  C   -0.084666
    22  C   -0.004646
    23  C   -0.121169
    24  H    0.081516
    25  C   -0.045361
    26  H    0.083049
    27  C   -0.033577
    28  C    0.002666
    29  H    0.059179
[...]
 Alpha virt. eigenvalues --    2.37434   2.37687   2.38755   2.39328   2.39376
 Alpha virt. eigenvalues --    2.40499   2.41284   2.41545   2.41830   2.42518
 Alpha virt. eigenvalues --    2.43219   2.43422   2.44036   2.45362   2.46639
 Alpha virt. eigenvalues --    2.46709   2.47224   2.47741   2.48192   2.48257
 Alpha virt. eigenvalues --    2.48709   2.49764   2.51503   2.51828   2.51986
 Alpha virt. eigenvalues --    2.52676   2.53425   2.53518   2.54097   2.54958
 Alpha virt. eigenvalues --    2.55157   2.55346   2.55420   2.55952   2.56584
 Alpha virt. eigenvalues --    2.57067   2.57607   2.57874   2.58332   2.58853
 Alpha virt. eigenvalues --    2.59366   2.59673   2.60677   2.61535   2.61582
 Alpha virt. eigenvalues --    2.62260   2.63334   2.63594   2.64016   2.64524
 Alpha virt. eigenvalues --    2.64595   2.65555   2.66144   2.66331   2.67065
 Alpha virt. eigenvalues --    2.67510   2.67541   2.67693   2.68142   2.68362
 Alpha virt. eigenvalues --    2.68981   2.69254   2.69615   2.70335   2.70523
 Alpha virt. eigenvalues --    2.70711   2.70845   2.71029   2.71230   2.71777
 Alpha virt. eigenvalues --    2.71942   2.72051   2.72400   2.73190   2.73373
 Alpha virt. eigenvalues --    2.73896   2.74289   2.74525   2.74965   2.75059
 Alpha virt. eigenvalues --    2.75437   2.75556   2.75947   2.76083   2.76139
 Alpha virt. eigenvalues --    2.76586   2.76671   2.76763   2.76923   2.77061
 Alpha virt. eigenvalues --    2.77279   2.77620   2.77868   2.78066   2.78308
 Alpha virt. eigenvalues --    2.78598   2.78947   2.79239   2.79434   2.79723
 Alpha virt. eigenvalues --    2.79980   2.80201   2.80616   2.81050   2.81175
 Alpha virt. eigenvalues --    2.81423   2.81561   2.81841   2.82210   2.82345
 Alpha virt. eigenvalues --    2.82649   2.83193   2.83325   2.83531   2.83823
 Alpha virt. eigenvalues --    2.84246   2.84367   2.84590   2.84707   2.84880
 Alpha virt. eigenvalues --    2.85546   2.85729   2.85884   2.86178   2.86328
 Alpha virt. eigenvalues --    2.86634   2.86722   2.87115   2.87188   2.87635
 Alpha virt. eigenvalues --    2.87758   2.88032   2.88229   2.88728   2.88862
 Alpha virt. eigenvalues --    2.89298   2.89487   2.89914   2.90212   2.90436
 Alpha virt. eigenvalues --    2.90766   2.91015   2.91388   2.91610   2.91754
 Alpha virt. eigenvalues --    2.91842   2.92136   2.92328   2.92611   2.92708
 Alpha virt. eigenvalues --    2.93049   2.93140   2.93459   2.93736   2.94277
 Alpha virt. eigenvalues --    2.94411   2.94508   2.94816   2.95130   2.95515
 Alpha virt. eigenvalues --    2.95595   2.95857   2.96100   2.96194   2.96405
 Alpha virt. eigenvalues --    2.96461   2.96719   2.96889   2.97240   2.97397
 Alpha virt. eigenvalues --    2.98143   2.98733   2.99020   2.99365   2.99561
 Alpha virt. eigenvalues --    2.99794   2.99883   3.00273   3.00402   3.01433
 Alpha virt. eigenvalues --    3.01668   3.01733   3.02159   3.02290   3.02655
 Alpha virt. eigenvalues --    3.03261   3.03684   3.03956   3.04831   3.05176
 Alpha virt. eigenvalues --    3.05635   3.05902   3.06225   3.06505   3.06944
 Alpha virt. eigenvalues --    3.07537   3.07739   3.08554   3.08985   3.09460
 Alpha virt. eigenvalues --    3.09548   3.10069   3.10194   3.10593   3.10600
 Alpha virt. eigenvalues --    3.10779   3.10963   3.11258   3.11412   3.11881
 Alpha virt. eigenvalues --    3.12092   3.13283   3.13395   3.13713   3.13851
 Alpha virt. eigenvalues --    3.13961   3.14201   3.14260   3.14730   3.15389
 Alpha virt. eigenvalues --    3.15775   3.15923   3.16187   3.16754   3.17105
 Alpha virt. eigenvalues --    3.17782   3.18183   3.18592   3.18987   3.19211
 Alpha virt. eigenvalues --    3.19355   3.19565   3.19861   3.20235   3.20552
 Alpha virt. eigenvalues --    3.20836   3.20946   3.21454   3.21897   3.22087
 Alpha virt. eigenvalues --    3.22409   3.22865   3.23055   3.23101   3.23692
 Alpha virt. eigenvalues --    3.23727   3.24133   3.24362   3.24435   3.24867
 Alpha virt. eigenvalues --    3.24954   3.24996   3.25377   3.25770   3.26033
 Alpha virt. eigenvalues --    3.26429   3.26700   3.26942   3.27198   3.27489
 Alpha virt. eigenvalues --    3.27761   3.28051   3.28456   3.28505   3.28718
 Alpha virt. eigenvalues --    3.29086   3.29197   3.29235   3.29769   3.29913
 Alpha virt. eigenvalues --    3.30001   3.30134   3.30431   3.30644   3.31109
 Alpha virt. eigenvalues --    3.31384   3.31564   3.32065   3.33214   3.33707
 Alpha virt. eigenvalues --    3.33890   3.34234   3.34467   3.34888   3.35373
 Alpha virt. eigenvalues --    3.35636   3.35713   3.36001   3.36168   3.36263
 Alpha virt. eigenvalues --    3.36428   3.36932   3.37124   3.37704   3.37745
 Alpha virt. eigenvalues --    3.37973   3.38163   3.38544   3.39074   3.39344
 Alpha virt. eigenvalues --    3.39780   3.40099   3.40359   3.40980   3.41167
 Alpha virt. eigenvalues --    3.41416   3.41570   3.41992   3.42020   3.42270
 Alpha virt. eigenvalues --    3.42528   3.42825   3.43169   3.43270   3.43479
 Alpha virt. eigenvalues --    3.43640   3.43767   3.44166   3.44264   3.44915
 Alpha virt. eigenvalues --    3.45069   3.45590   3.45988   3.46189   3.46695
 Alpha virt. eigenvalues --    3.46841   3.47104   3.47158   3.47184   3.47352
 Alpha virt. eigenvalues --    3.47683   3.48211   3.48593   3.48687   3.49106
 Alpha virt. eigenvalues --    3.49132   3.49457   3.49609   3.50293   3.50724
 Alpha virt. eigenvalues --    3.50932   3.51123   3.51623   3.51649   3.51786
 Alpha virt. eigenvalues --    3.51971   3.52248   3.52380   3.52580   3.52814
 Alpha virt. eigenvalues --    3.53118   3.53491   3.53758   3.54020   3.54473
 Alpha virt. eigenvalues --    3.54776   3.55042   3.55166   3.55479   3.55638
 Alpha virt. eigenvalues --    3.55814   3.56064   3.56244   3.56358   3.56470
 Alpha virt. eigenvalues --    3.56602   3.56926   3.57093   3.57345   3.58187
 Alpha virt. eigenvalues --    3.58355   3.58815   3.59228   3.59582   3.59714
 Alpha virt. eigenvalues --    3.60127   3.60281   3.60494   3.60819   3.61141
 Alpha virt. eigenvalues --    3.62041   3.62236   3.62503   3.62545   3.63222
 Alpha virt. eigenvalues --    3.63396   3.63806   3.63847   3.64168   3.64714
 Alpha virt. eigenvalues --    3.65159   3.65488   3.65647   3.66102   3.66367
 Alpha virt. eigenvalues --    3.66531   3.66820   3.66867   3.66950   3.67181
 Alpha virt. eigenvalues --    3.67910   3.68133   3.68414   3.69227   3.69509
 Alpha virt. eigenvalues --    3.69921   3.70070   3.70500   3.70762   3.71117
 Alpha virt. eigenvalues --    3.71215   3.72437   3.72914   3.73056   3.73233
 Alpha virt. eigenvalues --    3.73908   3.74250   3.74447   3.75150   3.75631
 Alpha virt. eigenvalues --    3.76478   3.76597   3.77064   3.77617   3.78061
 Alpha virt. eigenvalues --    3.78418   3.79334   3.79666   3.80001   3.80632
 Alpha virt. eigenvalues --    3.81664   3.82018   3.82333   3.83389   3.85207
 Alpha virt. eigenvalues --    3.86152   3.86461   3.86768   3.87154   3.87718
 Alpha virt. eigenvalues --    3.88560   3.89150   3.90406   3.90516   3.91155
 Alpha virt. eigenvalues --    3.91785   3.92051   3.92453   3.92679   3.93930
 Alpha virt. eigenvalues --    3.94232   3.94807   3.95547   3.96223   3.97044
 Alpha virt. eigenvalues --    3.97921   3.98068   3.98888   3.99328   3.99886
 Alpha virt. eigenvalues --    4.01103   4.01418   4.02634   4.02807   4.02979
 Alpha virt. eigenvalues --    4.03717   4.04262   4.04557   4.04944   4.05096
 Alpha virt. eigenvalues --    4.05799   4.06146   4.06345   4.07418   4.07523
 Alpha virt. eigenvalues --    4.08644   4.09203   4.09275   4.09500   4.10125
 Alpha virt. eigenvalues --    4.11373   4.11648   4.12082   4.12526   4.12706
 Alpha virt. eigenvalues --    4.13215   4.13681   4.14092   4.15026   4.15178
 Alpha virt. eigenvalues --    4.15532   4.16521   4.17138   4.18009   4.18581
 Alpha virt. eigenvalues --    4.19015   4.19367   4.20300   4.20404   4.21415
 Alpha virt. eigenvalues --    4.22282   4.22877   4.23178   4.23691   4.23924
 Alpha virt. eigenvalues --    4.24147   4.24334   4.24750   4.25934   4.26290
 Alpha virt. eigenvalues --    4.26863   4.26992   4.27555   4.27701   4.28024
 Alpha virt. eigenvalues --    4.28444   4.28754   4.28950   4.29191   4.29693
 Alpha virt. eigenvalues --    4.29957   4.30214   4.30436   4.30935   4.31177
 Alpha virt. eigenvalues --    4.31714   4.31887   4.32083   4.32500   4.32684
 Alpha virt. eigenvalues --    4.33255   4.33349   4.33658   4.33935   4.34000
 Alpha virt. eigenvalues --    4.34157   4.34510   4.34630   4.34904   4.35441
 Alpha virt. eigenvalues --    4.35613   4.35814   4.36109   4.36763   4.37121
 Alpha virt. eigenvalues --    4.37288   4.37715   4.37817   4.38121   4.38351
 Alpha virt. eigenvalues --    4.38806   4.39317   4.39421   4.40409   4.41207
 Alpha virt. eigenvalues --    4.41805   4.42514   4.43186   4.43354   4.43435
 Alpha virt. eigenvalues --    4.44806   4.45297   4.45586   4.46180   4.47472
 Alpha virt. eigenvalues --    4.47734   4.49361   4.49902   4.50752   4.51329
 Alpha virt. eigenvalues --    4.52067   4.53192   4.53327   4.53592   4.55039
 Alpha virt. eigenvalues --    4.55454   4.56093   4.56621   4.58182   4.58833
 Alpha virt. eigenvalues --    4.59677   4.60535   4.61179   4.61599   4.63060
 Alpha virt. eigenvalues --    4.63967   4.64891   4.66598   4.66882   4.68639
 Alpha virt. eigenvalues --    4.69532   4.70030   4.70697   4.71149   4.72163
 Alpha virt. eigenvalues --    4.72956   4.74025   4.74951   4.75580   4.76229
 Alpha virt. eigenvalues --    4.76677   4.77245   4.77397   4.77840   4.77924
 Alpha virt. eigenvalues --    4.78489   4.79125   4.79679   4.80408   4.80734
 Alpha virt. eigenvalues --    4.82069   4.82266   4.82918   4.84319   4.85456
 Alpha virt. eigenvalues --    4.86207   4.86704   4.86721   4.87061   4.87781
 Alpha virt. eigenvalues --    4.88285   4.88584   4.89404   4.90965   4.92055
 Alpha virt. eigenvalues --    4.93009   4.95888   4.97036   4.98042   4.98620
 Alpha virt. eigenvalues --    4.98711   5.00290   5.01789   5.02949   5.03798
 Alpha virt. eigenvalues --    5.04148   5.04271   5.04587   5.05202   5.05315
 Alpha virt. eigenvalues --    5.07339   5.07765   5.09458   5.10460   5.10820
 Alpha virt. eigenvalues --    5.11205   5.12097   5.12572   5.12734   5.13472
 Alpha virt. eigenvalues --    5.15185   5.15820   5.17326   5.18296   5.18985
 Alpha virt. eigenvalues --    5.20991   5.21205   5.23472   5.23642   5.24031
 Alpha virt. eigenvalues --    5.25427   5.30000   5.30486   5.32366   5.32947
 Alpha virt. eigenvalues --    5.33977   5.34083   5.36257   5.36985   5.38046
 Alpha virt. eigenvalues --    5.38596   5.41610   5.42223   5.42416   5.42672
 Alpha virt. eigenvalues --    5.44660   5.46126   5.47804   5.49113   5.49897
 Alpha virt. eigenvalues --    5.50219   5.50983   5.51073   5.54711   5.56359
 Alpha virt. eigenvalues --    5.56635   5.56860   5.59624   5.60184   5.61010
 Alpha virt. eigenvalues --    5.61255   5.62340   5.64288   5.64638   5.68042
 Alpha virt. eigenvalues --    5.68670   5.69714   5.71995   5.72343   5.74647
 Alpha virt. eigenvalues --    5.77103   5.78231   5.78717   5.79896   5.80591
 Alpha virt. eigenvalues --    5.83694   5.86061   5.93057   5.96954   5.98484
 Alpha virt. eigenvalues --    6.04047   6.04906   6.16236   6.17617   6.23773
 Alpha virt. eigenvalues --    6.34370   6.34784   6.38125   6.66054   6.75308
 Alpha virt. eigenvalues --    6.95654   6.99701   6.99898   7.55381   7.62163
 Alpha virt. eigenvalues --   22.12532  22.15927  22.36598  22.43804  22.45547
 Alpha virt. eigenvalues --   22.54262  22.57801  22.70328  22.70456  22.71589
 Alpha virt. eigenvalues --   22.74108  22.74162  22.78033  22.82640  22.83666
 Alpha virt. eigenvalues --   22.84352  22.85599  22.86206  22.87903  22.89369
 Alpha virt. eigenvalues --   22.89917  22.92164  22.92723  22.93246  22.93583
 Alpha virt. eigenvalues --   22.96908  22.97452  22.97576  23.00843  23.01960
 Alpha virt. eigenvalues --   23.03124  23.06483  23.07251  23.09919  23.16467
 Alpha virt. eigenvalues --   23.20757  23.21561  23.25751  23.36796  23.37381
 Alpha virt. eigenvalues --   23.39196  23.54343  23.57761  23.64638  23.73806
 Alpha virt. eigenvalues --   23.80046  33.48439  44.64824
          Condensed to atoms (all electrons):
 Mulliken charges:
               1
     1  C   -0.291504
     2  C   -0.231682
     3  C    0.035541
     4  C    0.280600
     5  C   -0.421177
     6  C    0.246536
     7  C    0.277826
     8  C    0.034648
     9  C   -0.227970
    10  H    0.181691
    11  C   -0.293186
    12  C    0.248409
    13  C   -0.421407
    14  H    0.182007
    15  H    0.164513
    16  H    0.166810
    17  N    0.081876
    18  C    0.143833
    19  C   -0.057230
    20  C   -0.194181
    21  C   -0.315268
    22  C    0.119115
    23  C   -0.085739
    24  H    0.152444
    25  C   -0.115834
    26  H    0.181460
    27  C   -0.192353
    28  C   -0.251050
    29  H    0.161423
    30  C   -0.153952
    31  H    0.162323
    32  H    0.158534
    33  H    0.156991
    34  H    0.163292
    35  H    0.163095
    36  H    0.167754
    37  C    0.138720
    38  C   -0.247507
    39  C   -0.256483
    40  C   -0.253175
    41  H    0.168877
    42  C   -0.249649
    43  H    0.168466
    44  C    0.214131
    45  H    0.169235
    46  H    0.169224
    47  C    0.142503
    48  C   -0.272863
    49  C   -0.273540
    50  C   -0.161495
    51  H    0.171548
    52  C   -0.162025
    53  H    0.171474
    54  C   -0.161381
    55  H    0.161136
    56  H    0.161091
    57  H    0.163160
    58  C    0.137350
    59  C   -0.250535
    60  C   -0.253104
    61  C   -0.250032
    62  H    0.168233
    63  C   -0.250205
    64  H    0.168061
    65  C    0.214225
    66  H    0.168570
    67  H    0.168466
    68  C    0.140956
    69  C   -0.271697
    70  C   -0.271128
    71  C   -0.161615
    72  H    0.170794
    73  C   -0.162188
    74  H    0.170855
    75  C   -0.161671
    76  H    0.161109
    77  H    0.161131
    78  H    0.163175
    79  O   -0.300385
 Sum of Mulliken charges =  -0.00000
 Mulliken charges with hydrogens summed into heavy atoms:
               1
     1  C   -0.123750
     2  C   -0.049674
     3  C    0.035541
     4  C    0.280600
     5  C   -0.256665
     6  C    0.246536
     7  C    0.277826
     8  C    0.034648
     9  C   -0.046280
    11  C   -0.126376
    12  C    0.248409
    13  C   -0.258312
    17  N    0.081876
    18  C    0.143833
    19  C   -0.057230
    20  C   -0.041736
    21  C   -0.133808
    22  C    0.119115
    23  C    0.075684
    25  C    0.046489
    27  C   -0.033819
    28  C   -0.094059
    30  C    0.009340
    37  C    0.138720
    38  C   -0.078630
    39  C   -0.088016
    40  C   -0.083940
    42  C   -0.080425
    44  C    0.214131
    47  C    0.142503
    48  C   -0.101315
    49  C   -0.102066
    50  C   -0.000359
    52  C   -0.000934
    54  C    0.001778
    58  C    0.137350
    59  C   -0.082302
    60  C   -0.085043
    61  C   -0.081462
    63  C   -0.081738
    65  C    0.214225
    68  C    0.140956
    69  C   -0.100903
    70  C   -0.100273
    71  C   -0.000506
    73  C   -0.001057
    75  C    0.001504
    79  O   -0.300385
 Electronic spatial extent (au):  <R**2>=          54953.5745
 Charge=             -0.0000 electrons
 Dipole moment (field-independent basis, Debye):
    X=              0.0162    Y=              3.5602    Z=              0.0947  Tot=              3.5615
 Quadrupole moment (field-independent basis, Debye-Ang):
   XX=           -255.9070   YY=           -233.3009   ZZ=           -256.8131
   XY=             -0.3153   XZ=             -7.0423   YZ=             -2.5033
 Traceless Quadrupole moment (field-independent basis, Debye-Ang):
   XX=             -7.2334   YY=             15.3728   ZZ=             -8.1394
   XY=             -0.3153   XZ=             -7.0423   YZ=             -2.5033
 Octapole moment (field-independent basis, Debye-Ang**2):
  XXX=             12.3994  YYY=            247.0401  ZZZ=             24.3754  XYY=            -15.6244
  XXY=           -229.0235  XXZ=             18.6197  XZZ=             12.5462  YZZ=             21.4339
  YYZ=            -15.3792  XYZ=            -66.1830
 Hexadecapole moment (field-independent basis, Debye-Ang**3):
 XXXX=         -52379.7223 YYYY=         -16015.9100 ZZZZ=          -2043.1723 XXXY=            -89.0244
 XXXZ=          -1238.6550 YYYX=            132.1425 YYYZ=             57.4469 ZZZX=             -9.8527
 ZZZY=             27.1026 XXYY=         -11310.4698 XXZZ=          -9192.4518 YYZZ=          -2913.3726
 XXYZ=            -83.2072 YYXZ=            372.9196 ZZXY=            -51.4299
 N-N= 4.900816451205D+03 E-N=-1.421892856853D+04  KE= 1.892419102570D+03
 Leave Link  601 at Sat Oct 30 12:32:59 2021, MaxMem=  5242880000 cpu:        11.8
 (Enter /opt/nce/packages/global/g09/l9999.exe)
 1\1\GINC-CN029\SP\RwB97XD TD-FC\Gen\C46H31N1O1\PNG4RJV\30-Oct-2021\0\\
 #p wB97XD chkbasis geom=allcheck Guess=Read int=ultrafine scrf=(SMD,so
 lvent=n,n-DiMethylAcetamide) td=(NStates=30)\\Title\\0,1\C,3.613408,1.
 459911,-0.464703\C,2.442373,2.192553,-0.595975\C,1.204279,1.564112,-0.
 608158\C,1.1783,0.173174,-0.475097\C,2.338663,-0.553262,-0.33548\C,3.5
 85503,0.077463,-0.331664\C,-1.17378,0.171983,-0.490791\C,-1.198896,1.5
 63772,-0.614428\C,-2.436876,2.192364,-0.600563\H,-2.489937,3.267701,-0
 .704611\C,-3.608121,1.459695,-0.471738\C,-3.581455,0.076154,-0.348899\
 C,-2.334681,-0.554903,-0.3589\H,2.494946,3.26892,-0.68899\H,2.25901,-1
 .630192,-0.253507\H,-4.553925,1.986183,-0.487938\N,0.002918,2.260243,-
 0.746449\C,0.002909,3.684178,-0.807797\C,0.000083,4.436866,0.398477\C,
 0.005695,4.305647,-2.022789\C,-0.002704,3.827951,1.675988\C,0.000163,5
 .851833,0.308137\C,0.005806,5.712427,-2.105116\H,0.007743,3.705239,-2.
 924059\C,-0.005305,4.593176,2.807618\H,-0.002692,2.747841,1.750036\C,-
 0.002621,6.61452,1.501095\C,0.003099,6.466249,-0.96759\H,0.008046,6.18
 7613,-3.077814\C,-0.005276,6.001132,2.72102\H,-0.007367,4.117983,3.780
 814\H,-0.002541,7.695805,1.426548\H,0.003153,7.548579,-1.023799\H,-0.0
 0732,6.592919,3.62801\H,-2.253019,-1.629178,-0.249518\H,4.557831,1.988
 934,-0.446735\C,4.831042,-0.709788,-0.187431\C,4.887448,-1.8256,0.6477
 08\C,5.988182,-0.357257,-0.882019\C,6.054549,-2.556816,0.785353\H,4.00
 9792,-2.12273,1.209106\C,7.154405,-1.090058,-0.746327\H,5.976117,0.496
 892,-1.548357\C,7.21095,-2.203981,0.090642\H,6.060908,-3.422639,1.4366
 17\H,8.037383,-0.78323,-1.294145\C,8.460815,-2.987749,0.236652\C,8.845
 241,-3.495337,1.478404\C,9.281854,-3.235094,-0.86425\C,10.015426,-4.22
 6112,1.61547\H,8.231822,-3.301572,2.350253\C,10.45127,-3.967226,-0.727
 821\H,8.994698,-2.865651,-1.841494\C,10.823425,-4.465522,0.512835\H,10
 .299948,-4.604615,2.589844\H,11.070845,-4.154439,-1.596538\H,11.737448
 ,-5.036684,0.619685\C,-4.82771,-0.712526,-0.218647\C,-4.947723,-1.9741
 72,-0.801644\C,-5.923378,-0.216469,0.488175\C,-6.115686,-2.707605,-0.6
 85524\H,-4.120853,-2.388043,-1.36619\C,-7.091374,-0.949812,0.603646\H,
 -5.861713,0.754005,0.965584\C,-7.211721,-2.209899,0.018458\H,-6.169509
 ,-3.688011,-1.143306\H,-7.926165,-0.528229,1.150517\C,-8.464234,-2.993
 676,0.14084\C,-8.932703,-3.76459,-0.924071\C,-9.204874,-2.977921,1.323
 58\C,-10.104386,-4.496846,-0.809908\H,-8.3845,-3.778847,-1.858412\C,-1
 0.376629,-3.710074,1.438128\H,-8.852766,-2.400396,2.1699\C,-10.831576,
 -4.472992,0.371851\H,-10.453667,-5.083378,-1.651086\H,-10.932995,-3.68
 9118,2.367422\H,-11.747047,-5.044849,0.46101\O,0.002738,-0.530295,-0.5
 07839\\Version=ES64L-G09RevE.01\State=1-A\HF=-1901.6327121\RMSD=2.715e
 -09\PG=C01 [X(C46H31N1O1)]\\@


 THERE'S NOTHING SO GREAT AS THE GREAT OUTDOORS.

                                       -- ZIGGY
 Job cpu time:       5 days 12 hours 55 minutes 13.3 seconds.
 File lengths (MBytes):  RWF=  12458 Int=      0 D2E=      0 Chk=   2432 Scr=      1
 Normal termination of Gaussian 09 at Sat Oct 30 12:33:03 2021.
