 Entering Gaussian System, Link 0=g09
 Input=/home/png4rjv/fotokatalizis/benchmark/OPCs/RESTART/POZ_1_CAM-B3LYP-D3_def2TZVP_fr-RE.gjf
 Output=/home/png4rjv/fotokatalizis/benchmark/OPCs/RESTART/POZ_1_CAM-B3LYP-D3_def2TZVP_fr-RE.log
 Initial command:
 /opt/nce/packages/global/g09/l1.exe "/home/png4rjv/fotokatalizis/benchmark/OPCs/RESTART/POZ_1_CAM-B3LYP-D3_def2TZVP_fr-RE/Gau-41417.inp" -scrdir="/home/png4rjv/fotokatalizis/benchmark/OPCs/RESTART/POZ_1_CAM-B3LYP-D3_def2TZVP_fr-RE/"
 Default is to use a total of  12 processors:
                               12 via shared-memory
                                1 via Linda
 Entering Link 1 = /opt/nce/packages/global/g09/l1.exe PID=     41418.
  
 Copyright (c) 1988,1990,1992,1993,1995,1998,2003,2009,2015,
            Gaussian, Inc.  All Rights Reserved.
  
 This is part of the Gaussian(R) 09 program.  It is based on
 the Gaussian(R) 03 system (copyright 2003, Gaussian, Inc.),
 the Gaussian(R) 98 system (copyright 1998, Gaussian, Inc.),
 the Gaussian(R) 94 system (copyright 1995, Gaussian, Inc.),
 the Gaussian 92(TM) system (copyright 1992, Gaussian, Inc.),
 the Gaussian 90(TM) system (copyright 1990, Gaussian, Inc.),
 the Gaussian 88(TM) system (copyright 1988, Gaussian, Inc.),
 the Gaussian 86(TM) system (copyright 1986, Carnegie Mellon
 University), and the Gaussian 82(TM) system (copyright 1983,
 Carnegie Mellon University). Gaussian is a federally registered
 trademark of Gaussian, Inc.
  
 This software contains proprietary and confidential information,
 including trade secrets, belonging to Gaussian, Inc.
  
 This software is provided under written license and may be
 used, copied, transmitted, or stored only in accord with that
 written license.
  
 The following legend is applicable only to US Government
 contracts under FAR:
  
                    RESTRICTED RIGHTS LEGEND
  
 Use, reproduction and disclosure by the US Government is
 subject to restrictions as set forth in subparagraphs (a)
 and (c) of the Commercial Computer Software - Restricted
 Rights clause in FAR 52.227-19.
  
 Gaussian, Inc.
 340 Quinnipiac St., Bldg. 40, Wallingford CT 06492
  
  
 ---------------------------------------------------------------
 Warning -- This program may not be used in any manner that
 competes with the business of Gaussian, Inc. or will provide
 assistance to any competitor of Gaussian, Inc.  The licensee
 of this program is prohibited from giving any competitor of
 Gaussian, Inc. access to this program.  By using this program,
 the user acknowledges that Gaussian, Inc. is engaged in the
 business of creating and licensing software in the field of
 computational chemistry and represents and warrants to the
 licensee that it is not a competitor of Gaussian, Inc. and that
 it will not use this program in any manner prohibited above.
 ---------------------------------------------------------------
  

 Cite this work as:
 Gaussian 09, Revision E.01,
 M. J. Frisch, G. W. Trucks, H. B. Schlegel, G. E. Scuseria, 
 M. A. Robb, J. R. Cheeseman, G. Scalmani, V. Barone, B. Mennucci, 
 G. A. Petersson, H. Nakatsuji, M. Caricato, X. Li, H. P. Hratchian, 
 A. F. Izmaylov, J. Bloino, G. Zheng, J. L. Sonnenberg, M. Hada, 
 M. Ehara, K. Toyota, R. Fukuda, J. Hasegawa, M. Ishida, T. Nakajima, 
 Y. Honda, O. Kitao, H. Nakai, T. Vreven, J. A. Montgomery, Jr., 
 J. E. Peralta, F. Ogliaro, M. Bearpark, J. J. Heyd, E. Brothers, 
 K. N. Kudin, V. N. Staroverov, T. Keith, R. Kobayashi, J. Normand, 
 K. Raghavachari, A. Rendell, J. C. Burant, S. S. Iyengar, J. Tomasi, 
 M. Cossi, N. Rega, J. M. Millam, M. Klene, J. E. Knox, J. B. Cross, 
 V. Bakken, C. Adamo, J. Jaramillo, R. Gomperts, R. E. Stratmann, 
 O. Yazyev, A. J. Austin, R. Cammi, C. Pomelli, J. W. Ochterski, 
 R. L. Martin, K. Morokuma, V. G. Zakrzewski, G. A. Voth, 
 P. Salvador, J. J. Dannenberg, S. Dapprich, A. D. Daniels, 
 O. Farkas, J. B. Foresman, J. V. Ortiz, J. Cioslowski, 
 and D. J. Fox, Gaussian, Inc., Wallingford CT, 2013.
 
 ******************************************
 Gaussian 09:  ES64L-G09RevE.01 30-Nov-2015
                26-Mar-2021 
 ******************************************
 %chk=cp.chk
 Default route:  MaxDisk=500GB
 ----------------------------------------------------------------------
 #p cam-b3lyp/def2TZVP freq=noraman nosymm int=(Acc2E=11,ultrafine) scr
 f=(SMD,solvent=n,n-dimethylacetamide) EmpiricalDispersion=GD3BJ
 ----------------------------------------------------------------------
 1/10=4,30=1,38=1/1,3;
 2/12=2,15=1,17=6,18=5,40=1/2;
 3/5=44,7=101,11=2,16=1,25=1,30=1,70=32201,71=2,72=147,74=-40,75=-5,124=41,140=1/1,2,3;
 4//1;
 5/5=2,38=5,53=147,87=11,98=1/2;
 8/6=4,10=90,11=11,87=11/1;
 11/6=1,8=1,9=11,15=111,16=1,31=1,87=11/1,2,10;
 10/6=1,31=1,87=11/2;
 6/7=2,8=2,9=2,10=2,18=1,28=1/1;
 7/8=1,10=1,25=1,30=1,87=11/1,2,3,16;
 1/10=4,30=1/3;
 99//99;
 Leave Link    1 at Fri Mar 26 22:36:20 2021, MaxMem=           0 cpu:         1.5
 (Enter /opt/nce/packages/global/g09/l101.exe)
 -----
 Title
 -----
 Symbolic Z-matrix:
 Charge =  0 Multiplicity = 1
 C                     3.60754   1.45903  -0.43817 
 C                     2.43959   2.19287  -0.56978 
 C                     1.20372   1.56548  -0.61328 
 C                     1.17957   0.17365  -0.5136 
 C                     2.33581  -0.55438  -0.37592 
 C                     3.58136   0.07507  -0.33821 
 C                    -1.17691   0.17374  -0.5333 
 C                    -1.19924   1.56596  -0.62723 
 C                    -2.43487   2.19441  -0.59244 
 H                    -2.487     3.27018  -0.6756 
 C                    -3.60412   1.46164  -0.46608 
 C                    -3.57929   0.07769  -0.36707 
 C                    -2.33464  -0.55338  -0.40293 
 H                     2.49235   3.26974  -0.63652 
 H                     2.25324  -1.63158  -0.32304 
 H                    -4.54855   1.98831  -0.46296 
 N                     0.00321   2.26251  -0.7486 
 C                     0.00405   3.6863   -0.81699 
 C                    -0.00307   4.44445   0.38297 
 C                     0.01205   4.30013  -2.03329 
 C                    -0.01108   3.84422   1.6623 
 C                    -0.00167   5.85758   0.28501 
 C                     0.01336   5.70493  -2.12395 
 H                     0.01729   3.69519  -2.93052 
 C                    -0.01737   4.61456   2.78788 
 H                    -0.01203   2.76592   1.7412 
 C                    -0.00842   6.62581   1.47192 
 C                     0.00666   6.46386  -0.99218 
 H                     0.01973   6.17423  -3.09867 
 C                    -0.01603   6.0206    2.69351 
 H                    -0.02335   4.14537   3.76312 
 H                    -0.00727   7.70567   1.39007 
 H                     0.00763   7.54504  -1.05319 
 H                    -0.02099   6.61697   3.59657 
 H                    -2.25191  -1.62829  -0.31515 
 H                     4.54914   1.98856  -0.39231 
 C                     4.82303  -0.71233  -0.19235 
 C                     4.85009  -1.88693   0.55649 
 C                     6.0097   -0.30365  -0.79746 
 C                     6.0134   -2.61949   0.6959 
 H                     3.95056  -2.23075   1.04997 
 C                     7.17273  -1.0362   -0.65781 
 H                     6.02409   0.59645  -1.3978 
 C                     7.19947  -2.20956   0.09198 
 H                     5.99412  -3.53171   1.27768 
 H                     8.0778   -0.68214  -1.13359 
 C                     8.44556  -2.99333   0.2411 
 C                     8.74037  -3.6469    1.43625 
 C                     9.35517  -3.09663  -0.80985 
 C                     9.90663  -4.37923   1.57642 
 H                     8.05841  -3.56736   2.27265 
 C                     10.52145  -3.82904  -0.67033 
 H                     9.14076  -2.6126   -1.7537 
 C                     10.80275  -4.47405   0.52357 
 H                     10.11901  -4.8732    2.51604 
 H                     11.2108  -3.90149  -1.50192 
 H                     11.71466  -5.04664   0.63288 
 C                    -4.82228  -0.70934  -0.23117 
 C                    -4.94289  -1.97398  -0.80312 
 C                    -5.91552  -0.21108   0.47446 
 C                    -6.10707  -2.70762  -0.67683 
 H                    -4.11824  -2.39003  -1.36694 
 C                    -7.07898  -0.94532   0.60156 
 H                    -5.85366   0.76235   0.94296 
 C                    -7.19952  -2.20894   0.02843 
 H                    -6.16094  -3.6905   -1.12628 
 H                    -7.91117  -0.52255   1.14902 
 C                    -8.4458   -2.99443   0.16627 
 C                    -8.9029   -3.80006  -0.87505 
 C                    -9.19325  -2.94695   1.3416 
 C                    -10.06927  -4.53421  -0.74556 
 H                    -8.34925  -3.83983  -1.80392 
 C                    -10.35937  -3.68134   1.47195 
 H                    -8.84962  -2.34197   2.17039 
 C                    -10.80305  -4.47849   0.42875 
 H                    -10.40977  -5.14806  -1.5697 
 H                    -10.92074  -3.63528   2.39644 
 H                    -11.71499  -5.05246   0.53017 
 O                     0.00173  -0.52854  -0.58182 
 
 NAtoms=     79 NQM=       79 NQMF=       0 NMMI=      0 NMMIF=      0
                NMic=       0 NMicF=      0.
                    Isotopes and Nuclear Properties:
 (Nuclear quadrupole moments (NQMom) in fm**2, nuclear magnetic moments (NMagM)
  in nuclear magnetons)

  Atom         1           2           3           4           5           6           7           8           9          10
 IAtWgt=          12          12          12          12          12          12          12          12          12           1
 AtmWgt=  12.0000000  12.0000000  12.0000000  12.0000000  12.0000000  12.0000000  12.0000000  12.0000000  12.0000000   1.0078250
 NucSpn=           0           0           0           0           0           0           0           0           0           1
 AtZEff=   0.0000000   0.0000000   0.0000000   0.0000000   0.0000000   0.0000000   0.0000000   0.0000000   0.0000000   0.0000000
 NQMom=    0.0000000   0.0000000   0.0000000   0.0000000   0.0000000   0.0000000   0.0000000   0.0000000   0.0000000   0.0000000
 NMagM=    0.0000000   0.0000000   0.0000000   0.0000000   0.0000000   0.0000000   0.0000000   0.0000000   0.0000000   2.7928460
 AtZNuc=   6.0000000   6.0000000   6.0000000   6.0000000   6.0000000   6.0000000   6.0000000   6.0000000   6.0000000   1.0000000

  Atom        11          12          13          14          15          16          17          18          19          20
 IAtWgt=          12          12          12           1           1           1          14          12          12          12
 AtmWgt=  12.0000000  12.0000000  12.0000000   1.0078250   1.0078250   1.0078250  14.0030740  12.0000000  12.0000000  12.0000000
 NucSpn=           0           0           0           1           1           1           2           0           0           0
 AtZEff=   0.0000000   0.0000000   0.0000000   0.0000000   0.0000000   0.0000000   0.0000000   0.0000000   0.0000000   0.0000000
 NQMom=    0.0000000   0.0000000   0.0000000   0.0000000   0.0000000   0.0000000   2.0440000   0.0000000   0.0000000   0.0000000
 NMagM=    0.0000000   0.0000000   0.0000000   2.7928460   2.7928460   2.7928460   0.4037610   0.0000000   0.0000000   0.0000000
 AtZNuc=   6.0000000   6.0000000   6.0000000   1.0000000   1.0000000   1.0000000   7.0000000   6.0000000   6.0000000   6.0000000

  Atom        21          22          23          24          25          26          27          28          29          30
 IAtWgt=          12          12          12           1          12           1          12          12           1          12
 AtmWgt=  12.0000000  12.0000000  12.0000000   1.0078250  12.0000000   1.0078250  12.0000000  12.0000000   1.0078250  12.0000000
 NucSpn=           0           0           0           1           0           1           0           0           1           0
 AtZEff=   0.0000000   0.0000000   0.0000000   0.0000000   0.0000000   0.0000000   0.0000000   0.0000000   0.0000000   0.0000000
 NQMom=    0.0000000   0.0000000   0.0000000   0.0000000   0.0000000   0.0000000   0.0000000   0.0000000   0.0000000   0.0000000
 NMagM=    0.0000000   0.0000000   0.0000000   2.7928460   0.0000000   2.7928460   0.0000000   0.0000000   2.7928460   0.0000000
 AtZNuc=   6.0000000   6.0000000   6.0000000   1.0000000   6.0000000   1.0000000   6.0000000   6.0000000   1.0000000   6.0000000

  Atom        31          32          33          34          35          36          37          38          39          40
 IAtWgt=           1           1           1           1           1           1          12          12          12          12
 AtmWgt=   1.0078250   1.0078250   1.0078250   1.0078250   1.0078250   1.0078250  12.0000000  12.0000000  12.0000000  12.0000000
 NucSpn=           1           1           1           1           1           1           0           0           0           0
 AtZEff=   0.0000000   0.0000000   0.0000000   0.0000000   0.0000000   0.0000000   0.0000000   0.0000000   0.0000000   0.0000000
 NQMom=    0.0000000   0.0000000   0.0000000   0.0000000   0.0000000   0.0000000   0.0000000   0.0000000   0.0000000   0.0000000
 NMagM=    2.7928460   2.7928460   2.7928460   2.7928460   2.7928460   2.7928460   0.0000000   0.0000000   0.0000000   0.0000000
 AtZNuc=   1.0000000   1.0000000   1.0000000   1.0000000   1.0000000   1.0000000   6.0000000   6.0000000   6.0000000   6.0000000

  Atom        41          42          43          44          45          46          47          48          49          50
 IAtWgt=           1          12           1          12           1           1          12          12          12          12
 AtmWgt=   1.0078250  12.0000000   1.0078250  12.0000000   1.0078250   1.0078250  12.0000000  12.0000000  12.0000000  12.0000000
 NucSpn=           1           0           1           0           1           1           0           0           0           0
 AtZEff=   0.0000000   0.0000000   0.0000000   0.0000000   0.0000000   0.0000000   0.0000000   0.0000000   0.0000000   0.0000000
 NQMom=    0.0000000   0.0000000   0.0000000   0.0000000   0.0000000   0.0000000   0.0000000   0.0000000   0.0000000   0.0000000
 NMagM=    2.7928460   0.0000000   2.7928460   0.0000000   2.7928460   2.7928460   0.0000000   0.0000000   0.0000000   0.0000000
 AtZNuc=   1.0000000   6.0000000   1.0000000   6.0000000   1.0000000   1.0000000   6.0000000   6.0000000   6.0000000   6.0000000

  Atom        51          52          53          54          55          56          57          58          59          60
 IAtWgt=           1          12           1          12           1           1           1          12          12          12
 AtmWgt=   1.0078250  12.0000000   1.0078250  12.0000000   1.0078250   1.0078250   1.0078250  12.0000000  12.0000000  12.0000000
 NucSpn=           1           0           1           0           1           1           1           0           0           0
 AtZEff=   0.0000000   0.0000000   0.0000000   0.0000000   0.0000000   0.0000000   0.0000000   0.0000000   0.0000000   0.0000000
 NQMom=    0.0000000   0.0000000   0.0000000   0.0000000   0.0000000   0.0000000   0.0000000   0.0000000   0.0000000   0.0000000
 NMagM=    2.7928460   0.0000000   2.7928460   0.0000000   2.7928460   2.7928460   2.7928460   0.0000000   0.0000000   0.0000000
 AtZNuc=   1.0000000   6.0000000   1.0000000   6.0000000   1.0000000   1.0000000   1.0000000   6.0000000   6.0000000   6.0000000

  Atom        61          62          63          64          65          66          67          68          69          70
 IAtWgt=          12           1          12           1          12           1           1          12          12          12
 AtmWgt=  12.0000000   1.0078250  12.0000000   1.0078250  12.0000000   1.0078250   1.0078250  12.0000000  12.0000000  12.0000000
 NucSpn=           0           1           0           1           0           1           1           0           0           0
 AtZEff=   0.0000000   0.0000000   0.0000000   0.0000000   0.0000000   0.0000000   0.0000000   0.0000000   0.0000000   0.0000000
 NQMom=    0.0000000   0.0000000   0.0000000   0.0000000   0.0000000   0.0000000   0.0000000   0.0000000   0.0000000   0.0000000
 NMagM=    0.0000000   2.7928460   0.0000000   2.7928460   0.0000000   2.7928460   2.7928460   0.0000000   0.0000000   0.0000000
 AtZNuc=   6.0000000   1.0000000   6.0000000   1.0000000   6.0000000   1.0000000   1.0000000   6.0000000   6.0000000   6.0000000

  Atom        71          72          73          74          75          76          77          78          79
 IAtWgt=          12           1          12           1          12           1           1           1          16
 AtmWgt=  12.0000000   1.0078250  12.0000000   1.0078250  12.0000000   1.0078250   1.0078250   1.0078250  15.9949146
 NucSpn=           0           1           0           1           0           1           1           1           0
 AtZEff=   0.0000000   0.0000000   0.0000000   0.0000000   0.0000000   0.0000000   0.0000000   0.0000000   0.0000000
 NQMom=    0.0000000   0.0000000   0.0000000   0.0000000   0.0000000   0.0000000   0.0000000   0.0000000   0.0000000
 NMagM=    0.0000000   2.7928460   0.0000000   2.7928460   0.0000000   2.7928460   2.7928460   2.7928460   0.0000000
 AtZNuc=   6.0000000   1.0000000   6.0000000   1.0000000   6.0000000   1.0000000   1.0000000   1.0000000   8.0000000
 Leave Link  101 at Fri Mar 26 22:36:20 2021, MaxMem=  5242880000 cpu:         1.3
 (Enter /opt/nce/packages/global/g09/l103.exe)

 GradGradGradGradGradGradGradGradGradGradGradGradGradGradGradGradGradGrad
 Berny optimization.
 Initialization pass.
 Trust Radius=3.00D-01 FncErr=1.00D-07 GrdErr=1.00D-07
 Number of steps in this run=      2 maximum allowed number of steps=      2.
 GradGradGradGradGradGradGradGradGradGradGradGradGradGradGradGradGradGrad

 Leave Link  103 at Fri Mar 26 22:36:21 2021, MaxMem=  5242880000 cpu:         0.2
 (Enter /opt/nce/packages/global/g09/l202.exe)
 Symmetry turned off by external request.
 Stoichiometry    C46H31NO
 Framework group  C1[X(C46H31NO)]
 Deg. of freedom   231
 Full point group                 C1      NOp   1
                          Input orientation:                          
 ---------------------------------------------------------------------
 Center     Atomic      Atomic             Coordinates (Angstroms)
 Number     Number       Type             X           Y           Z
 ---------------------------------------------------------------------
      1          6           0        3.607535    1.459031   -0.438170
      2          6           0        2.439589    2.192873   -0.569775
      3          6           0        1.203720    1.565482   -0.613276
      4          6           0        1.179569    0.173653   -0.513597
      5          6           0        2.335813   -0.554381   -0.375915
      6          6           0        3.581358    0.075073   -0.338206
      7          6           0       -1.176908    0.173741   -0.533303
      8          6           0       -1.199238    1.565955   -0.627227
      9          6           0       -2.434865    2.194405   -0.592442
     10          1           0       -2.486998    3.270178   -0.675604
     11          6           0       -3.604120    1.461640   -0.466077
     12          6           0       -3.579294    0.077686   -0.367070
     13          6           0       -2.334637   -0.553375   -0.402927
     14          1           0        2.492354    3.269738   -0.636519
     15          1           0        2.253237   -1.631584   -0.323039
     16          1           0       -4.548545    1.988312   -0.462962
     17          7           0        0.003212    2.262510   -0.748603
     18          6           0        0.004052    3.686300   -0.816993
     19          6           0       -0.003065    4.444450    0.382970
     20          6           0        0.012045    4.300132   -2.033292
     21          6           0       -0.011081    3.844215    1.662300
     22          6           0       -0.001668    5.857582    0.285008
     23          6           0        0.013356    5.704932   -2.123952
     24          1           0        0.017291    3.695185   -2.930519
     25          6           0       -0.017365    4.614555    2.787875
     26          1           0       -0.012029    2.765917    1.741200
     27          6           0       -0.008418    6.625812    1.471918
     28          6           0        0.006660    6.463857   -0.992182
     29          1           0        0.019730    6.174229   -3.098666
     30          6           0       -0.016026    6.020602    2.693514
     31          1           0       -0.023353    4.145367    3.763123
     32          1           0       -0.007272    7.705670    1.390065
     33          1           0        0.007633    7.545042   -1.053192
     34          1           0       -0.020988    6.616967    3.596572
     35          1           0       -2.251909   -1.628288   -0.315148
     36          1           0        4.549138    1.988555   -0.392314
     37          6           0        4.823033   -0.712325   -0.192353
     38          6           0        4.850093   -1.886928    0.556493
     39          6           0        6.009704   -0.303649   -0.797462
     40          6           0        6.013395   -2.619493    0.695896
     41          1           0        3.950555   -2.230749    1.049971
     42          6           0        7.172726   -1.036199   -0.657805
     43          1           0        6.024089    0.596446   -1.397796
     44          6           0        7.199473   -2.209564    0.091983
     45          1           0        5.994122   -3.531709    1.277678
     46          1           0        8.077795   -0.682139   -1.133591
     47          6           0        8.445555   -2.993330    0.241101
     48          6           0        8.740371   -3.646904    1.436249
     49          6           0        9.355171   -3.096628   -0.809852
     50          6           0        9.906631   -4.379227    1.576422
     51          1           0        8.058406   -3.567355    2.272651
     52          6           0       10.521453   -3.829041   -0.670326
     53          1           0        9.140756   -2.612601   -1.753704
     54          6           0       10.802753   -4.474053    0.523571
     55          1           0       10.119009   -4.873196    2.516043
     56          1           0       11.210796   -3.901494   -1.501922
     57          1           0       11.714663   -5.046638    0.632875
     58          6           0       -4.822279   -0.709335   -0.231171
     59          6           0       -4.942886   -1.973975   -0.803120
     60          6           0       -5.915523   -0.211081    0.474460
     61          6           0       -6.107073   -2.707615   -0.676828
     62          1           0       -4.118237   -2.390027   -1.366942
     63          6           0       -7.078981   -0.945317    0.601558
     64          1           0       -5.853659    0.762348    0.942963
     65          6           0       -7.199523   -2.208942    0.028432
     66          1           0       -6.160942   -3.690500   -1.126275
     67          1           0       -7.911172   -0.522549    1.149018
     68          6           0       -8.445796   -2.994426    0.166274
     69          6           0       -8.902897   -3.800062   -0.875054
     70          6           0       -9.193249   -2.946952    1.341600
     71          6           0      -10.069272   -4.534206   -0.745561
     72          1           0       -8.349254   -3.839834   -1.803920
     73          6           0      -10.359366   -3.681336    1.471954
     74          1           0       -8.849618   -2.341974    2.170388
     75          6           0      -10.803052   -4.478486    0.428751
     76          1           0      -10.409775   -5.148057   -1.569704
     77          1           0      -10.920741   -3.635276    2.396435
     78          1           0      -11.714993   -5.052464    0.530165
     79          8           0        0.001733   -0.528543   -0.581815
 ---------------------------------------------------------------------
 Rotational constants (GHZ):      0.0693666      0.0231309      0.0182147
 Leave Link  202 at Fri Mar 26 22:36:21 2021, MaxMem=  5242880000 cpu:         0.3
 (Enter /opt/nce/packages/global/g09/l301.exe)
 Standard basis: def2TZVP (5D, 7F)
 Ernie: Thresh=  0.10000D-02 Tol=  0.10000D-05 Strict=F.
  1674 basis functions,  2696 primitive gaussians,  1914 cartesian basis functions
   161 alpha electrons      161 beta electrons
       nuclear repulsion energy      4905.8751051955 Hartrees.
 IExCor=20419 DFT=T Ex+Corr=CAM-B3LYP ExCW=0 ScaHFX=  1.000000
 ScaDFX=  1.000000  1.000000  1.000000  0.810000 ScalE2=  1.000000  1.000000
 IRadAn=      5 IRanWt=     -1 IRanGd=            0 ICorTp=0 IEmpDi=141
  HFx wShort=  0.000000 wLong=  0.330000 cFull=  0.190000 cShort=  0.000000 cLong=  0.460000
  DFx wShort=  0.000000 wLong=  0.330000 cFull=  0.190000 cShort=  0.000000 cLong=  0.460000
 NAtoms=   79 NActive=   79 NUniq=   79 SFac= 1.00D+00 NAtFMM=   60 NAOKFM=T Big=T
 Integral buffers will be    131072 words long.
 Raffenetti 2 integral format.
 Two-electron integral symmetry is turned off.
 R6Disp:  Grimme-D3(BJ) Dispersion energy=       -0.1020879083 Hartrees.
 Nuclear repulsion after empirical dispersion term =     4905.7730172872 Hartrees.
 Force inversion solution in PCM.
 ------------------------------------------------------------------------------
 Polarizable Continuum Model (PCM)
 =================================
 Model                : PCM (using non-symmetric T matrix).
 Atomic radii         : SMD-Coulomb.
 Polarization charges : Total charges.
 Charge compensation  : None.
 Solution method      : Matrix inversion.
 Cavity type          : VdW (van der Waals Surface) (Alpha=1.000).
 Cavity algorithm     : GePol (No added spheres)
                        Default sphere list used, NSphG=   79.
                        Lebedev-Laikov grids with approx.  5.0 points / Ang**2.
                        Smoothing algorithm: York/Karplus (Gamma=1.0000).
                        Polarization charges: spherical gaussians, with
                                              point-specific exponents (IZeta= 3).
                        Self-potential: point-specific (ISelfS= 7).
                        Self-field    : sphere-specific E.n sum rule (ISelfD= 2).
 1st derivatives      : Analytical E(r).r(x)/FMM algorithm (CHGder, D1EAlg=3).
                        Cavity 1st derivative terms included.
 2nd derivatives      : Analytical E(r).r(xy)/FMM algorithm (CHGder, D2EAlg=3).
                        Cavity 2nd derivative terms included.
 Solvent              : n,n-DiMethylAcetamide, Eps=  37.781000 Eps(inf)=   2.067844
 ------------------------------------------------------------------------------
 GePol: Number of generator spheres                  =      79
 GePol: Total number of spheres                      =      79
 GePol: Number of exposed spheres                    =      79 (100.00%)
 GePol: Number of points                             =    5937
 GePol: Average weight of points                     =       0.11
 GePol: Minimum weight of points                     =   0.22D-11
 GePol: Maximum weight of points                     =    0.17992
 GePol: Number of points with low weight             =     325
 GePol: Fraction of low-weight points (<1% of avg)   =       5.47%
 GePol: Cavity surface area                          =    636.681 Ang**2
 GePol: Cavity volume                                =    636.261 Ang**3
 ------------------------------------------------------------------------------
 Atomic radii for non-electrostatic terms: SMD-CDS.
 ------------------------------------------------------------------------------
 PCM non-electrostatic energy =        -0.0123949517 Hartrees.
 Nuclear repulsion after PCM non-electrostatic terms =     4905.7606223356 Hartrees.
 Leave Link  301 at Fri Mar 26 22:36:21 2021, MaxMem=  5242880000 cpu:         4.1
 (Enter /opt/nce/packages/global/g09/l302.exe)
 NPDir=0 NMtPBC=     1 NCelOv=     1 NCel=       1 NClECP=     1 NCelD=      1
         NCelK=      1 NCelE2=     1 NClLst=     1 CellRange=     0.0.
 One-electron integrals computed using PRISM.
   1 Symmetry operations used in ECPInt.
 ECPInt:  NShTT=  212878 NPrTT=  658380 LenC2=  124045 LenP2D=  251740.
 LDataN:  DoStor=T MaxTD1= 6 Len=  172
 NBasis=  1674 RedAO= T EigKep=  3.92D-06  NBF=  1674
 NBsUse=  1674 1.00D-06 EigRej= -1.00D+00 NBFU=  1674
 Precomputing XC quadrature grid using
 IXCGrd= 4 IRadAn=           5 IRanWt=          -1 IRanGd=           0 AccXCQ= 0.00D+00.
 Generated NRdTot=       0 NPtTot=           0 NUsed=           0 NTot=          32
 NSgBfM=  1557  1560  1575  1575  1576 MxSgAt=    79 MxSgA2=    79.
 Leave Link  302 at Fri Mar 26 22:36:28 2021, MaxMem=  5242880000 cpu:        79.9
 (Enter /opt/nce/packages/global/g09/l303.exe)
 DipDrv:  MaxL=1.
 Leave Link  303 at Fri Mar 26 22:36:28 2021, MaxMem=  5242880000 cpu:         6.0
 (Enter /opt/nce/packages/global/g09/l401.exe)
 ExpMin= 9.52D-02 ExpMax= 2.70D+04 ExpMxC= 9.22D+02 IAcc=3 IRadAn=         5 AccDes= 0.00D+00
 Harris functional with IExCor=20419 and IRadAn=       5 diagonalized for initial guess.
 HarFok:  IExCor=20419 AccDes= 0.00D+00 IRadAn=         5 IDoV= 1 UseB2=F ITyADJ=14
 ICtDFT=  3500011 ScaDFX=  1.000000  1.000000  1.000000  1.000000
 FoFCou: FMM=F IPFlag=           0 FMFlag=      100000 FMFlg1=        2001
         NFxFlg=           0 DoJE=T BraDBF=F KetDBF=T FulRan=T
         wScrn=  0.000000 ICntrl=     500 IOpCl=  0 I1Cent=   200000004 NGrid=           0
         NMat0=    1 NMatS0=      1 NMatT0=    0 NMatD0=    1 NMtDS0=    0 NMtDT0=    0
 Symmetry not used in FoFCou.
 Harris En= -1825.11705551928    
 JPrj=0 DoOrth=F DoCkMO=F.
 Leave Link  401 at Fri Mar 26 22:36:47 2021, MaxMem=  5242880000 cpu:       221.1
 (Enter /opt/nce/packages/global/g09/l502.exe)
 Closed shell SCF:
 Using DIIS extrapolation, IDIIS=  1040.
 Two-electron integral symmetry not used.
 IVT=    11043348 IEndB=    11043348 NGot=  5242880000 MDV=  5235518603
 LenX=  5235518603 LenY=  5231853293
 Requested convergence on RMS density matrix=1.00D-08 within 128 cycles.
 Requested convergence on MAX density matrix=1.00D-06.
 Requested convergence on             energy=1.00D-06.
 No special actions if energy rises.
 Fock matrices will be formed incrementally for  20 cycles.

 Cycle   1  Pass 1  IDiag  1:
 FoFJK:  IHMeth= 1 ICntrl=       0 DoSepK=T KAlg= 0 I1Cent=   0 FoldK=F
 IRaf=         1 NMat=   1 IRICut=       1 DoRegI=T DoRafI=F ISym2E= 0.
 FoFCou: FMM=T IPFlag=           0 FMFlag=      100000 FMFlg1=        2001
         NFxFlg=           0 DoJE=T BraDBF=F KetDBF=F FulRan=T
         wScrn=  0.000000 ICntrl=     500 IOpCl=  0 I1Cent=           0 NGrid=           0
         NMat0=    1 NMatS0=      1 NMatT0=    0 NMatD0=    1 NMtDS0=    0 NMtDT0=    0
 Symmetry not used in FoFCou.
 FMM levels:  10  Number of levels for PrismC:   9
 Inv3:  Mode=1 IEnd=   105743907.
 Iteration    1 A*A^-1 deviation from unit magnitude is 8.22D-15 for   5922.
 Iteration    1 A*A^-1 deviation from orthogonality  is 3.77D-15 for   4103   1251.
 Iteration    1 A^-1*A deviation from unit magnitude is 8.77D-15 for   5922.
 Iteration    1 A^-1*A deviation from orthogonality  is 9.79D-09 for   3369   3327.
 Iteration    2 A*A^-1 deviation from unit magnitude is 2.22D-15 for    497.
 Iteration    2 A*A^-1 deviation from orthogonality  is 4.27D-15 for   3643   1003.
 Iteration    2 A^-1*A deviation from unit magnitude is 8.88D-16 for     33.
 Iteration    2 A^-1*A deviation from orthogonality  is 4.44D-16 for   5682   2661.
 E= -1900.76454763463    
 DIIS: error= 3.15D-02 at cycle   1 NSaved=   1.
 NSaved= 1 IEnMin= 1 EnMin= -1900.76454763463     IErMin= 1 ErrMin= 3.15D-02
 ErrMax= 3.15D-02  0.00D+00 EMaxC= 1.00D-01 BMatC= 3.33D+00 BMatP= 3.33D+00
 IDIUse=3 WtCom= 6.85D-01 WtEn= 3.15D-01
 Coeff-Com:  0.100D+01
 Coeff-En:   0.100D+01
 Coeff:      0.100D+01
 Gap=     0.274 Goal=   None    Shift=    0.000
 GapD=    0.274 DampG=1.000 DampE=0.500 DampFc=0.5000 IDamp=-1.
 Damping current iteration by 5.00D-01
 RMSDP=2.92D-03 MaxDP=6.59D-01              OVMax= 2.19D-01

 Cycle   2  Pass 1  IDiag  1:
 RMSU=  1.07D-03    CP:  8.12D-01
 E= -1901.01985559484     Delta-E=       -0.255307960211 Rises=F Damp=T
 DIIS: error= 1.48D-02 at cycle   2 NSaved=   2.
 NSaved= 2 IEnMin= 2 EnMin= -1901.01985559484     IErMin= 2 ErrMin= 1.48D-02
 ErrMax= 1.48D-02  0.00D+00 EMaxC= 1.00D-01 BMatC= 7.11D-01 BMatP= 3.33D+00
 IDIUse=3 WtCom= 8.52D-01 WtEn= 1.48D-01
 Coeff-Com: -0.564D+00 0.156D+01
 Coeff-En:   0.000D+00 0.100D+01
 Coeff:     -0.480D+00 0.148D+01
 Gap=     0.268 Goal=   None    Shift=    0.000
 RMSDP=1.55D-03 MaxDP=3.40D-01 DE=-2.55D-01 OVMax= 3.65D-01

 Cycle   3  Pass 1  IDiag  1:
 RMSU=  1.12D-03    CP:  9.27D-01  1.76D-01
 E= -1900.99572928254     Delta-E=        0.024126312297 Rises=F Damp=F
 DIIS: error= 1.21D-02 at cycle   3 NSaved=   3.
 NSaved= 3 IEnMin= 2 EnMin= -1901.01985559484     IErMin= 3 ErrMin= 1.21D-02
 ErrMax= 1.21D-02  0.00D+00 EMaxC= 1.00D-01 BMatC= 3.81D-01 BMatP= 7.11D-01
 IDIUse=3 WtCom= 8.79D-01 WtEn= 1.21D-01
 Coeff-Com: -0.418D+00 0.903D+00 0.515D+00
 Coeff-En:   0.000D+00 0.542D+00 0.458D+00
 Coeff:     -0.368D+00 0.860D+00 0.508D+00
 Gap=     0.224 Goal=   None    Shift=    0.000
 RMSDP=2.14D-03 MaxDP=5.11D-01 DE= 2.41D-02 OVMax= 2.10D-01

 Cycle   4  Pass 1  IDiag  1:
 RMSU=  2.83D-04    CP:  6.84D-01  1.60D+00  3.44D-01
 E= -1901.33048572961     Delta-E=       -0.334756447067 Rises=F Damp=F
 DIIS: error= 1.43D-03 at cycle   4 NSaved=   4.
 NSaved= 4 IEnMin= 4 EnMin= -1901.33048572961     IErMin= 4 ErrMin= 1.43D-03
 ErrMax= 1.43D-03  0.00D+00 EMaxC= 1.00D-01 BMatC= 7.36D-03 BMatP= 3.81D-01
 IDIUse=3 WtCom= 9.86D-01 WtEn= 1.43D-02
 Coeff-Com: -0.138D+00 0.300D+00 0.235D+00 0.603D+00
 Coeff-En:   0.000D+00 0.000D+00 0.000D+00 0.100D+01
 Coeff:     -0.136D+00 0.296D+00 0.232D+00 0.609D+00
 Gap=     0.213 Goal=   None    Shift=    0.000
 RMSDP=7.72D-05 MaxDP=1.19D-02 DE=-3.35D-01 OVMax= 1.55D-02

 Cycle   5  Pass 1  IDiag  1:
 RMSU=  4.62D-05    CP:  6.90D-01  1.56D+00  3.78D-01  1.02D+00
 E= -1901.33677637628     Delta-E=       -0.006290646674 Rises=F Damp=F
 DIIS: error= 3.71D-04 at cycle   5 NSaved=   5.
 NSaved= 5 IEnMin= 5 EnMin= -1901.33677637628     IErMin= 5 ErrMin= 3.71D-04
 ErrMax= 3.71D-04  0.00D+00 EMaxC= 1.00D-01 BMatC= 2.36D-04 BMatP= 7.36D-03
 IDIUse=3 WtCom= 9.96D-01 WtEn= 3.71D-03
 Coeff-Com:  0.281D-01-0.599D-01-0.104D-01 0.132D+00 0.910D+00
 Coeff-En:   0.000D+00 0.000D+00 0.000D+00 0.000D+00 0.100D+01
 Coeff:      0.280D-01-0.597D-01-0.103D-01 0.131D+00 0.911D+00
 Gap=     0.215 Goal=   None    Shift=    0.000
 RMSDP=2.99D-05 MaxDP=4.73D-03 DE=-6.29D-03 OVMax= 1.00D-02

 Cycle   6  Pass 1  IDiag  1:
 RMSU=  2.24D-05    CP:  6.88D-01  1.57D+00  3.88D-01  1.05D+00  1.13D+00
 E= -1901.33708982635     Delta-E=       -0.000313450067 Rises=F Damp=F
 DIIS: error= 1.12D-04 at cycle   6 NSaved=   6.
 NSaved= 6 IEnMin= 6 EnMin= -1901.33708982635     IErMin= 6 ErrMin= 1.12D-04
 ErrMax= 1.12D-04  0.00D+00 EMaxC= 1.00D-01 BMatC= 5.83D-05 BMatP= 2.36D-04
 IDIUse=3 WtCom= 9.99D-01 WtEn= 1.12D-03
 Coeff-Com:  0.212D-01-0.458D-01-0.190D-01 0.152D-01 0.424D+00 0.605D+00
 Coeff-En:   0.000D+00 0.000D+00 0.000D+00 0.000D+00 0.000D+00 0.100D+01
 Coeff:      0.212D-01-0.458D-01-0.190D-01 0.151D-01 0.423D+00 0.605D+00
 Gap=     0.215 Goal=   None    Shift=    0.000
 RMSDP=1.40D-05 MaxDP=2.90D-03 DE=-3.13D-04 OVMax= 3.72D-03

 Cycle   7  Pass 1  IDiag  1:
 RMSU=  7.33D-06    CP:  6.87D-01  1.57D+00  3.86D-01  1.07D+00  1.20D+00
                    CP:  1.04D+00
 E= -1901.33716386357     Delta-E=       -0.000074037217 Rises=F Damp=F
 DIIS: error= 5.71D-05 at cycle   7 NSaved=   7.
 NSaved= 7 IEnMin= 7 EnMin= -1901.33716386357     IErMin= 7 ErrMin= 5.71D-05
 ErrMax= 5.71D-05  0.00D+00 EMaxC= 1.00D-01 BMatC= 3.64D-06 BMatP= 5.83D-05
 IDIUse=1 WtCom= 1.00D+00 WtEn= 0.00D+00
 Coeff-Com:  0.201D-02-0.437D-02-0.320D-02-0.122D-01-0.147D-01 0.142D+00
 Coeff-Com:  0.891D+00
 Coeff:      0.201D-02-0.437D-02-0.320D-02-0.122D-01-0.147D-01 0.142D+00
 Coeff:      0.891D+00
 Gap=     0.215 Goal=   None    Shift=    0.000
 RMSDP=6.54D-06 MaxDP=8.65D-04 DE=-7.40D-05 OVMax= 2.93D-03

 Cycle   8  Pass 1  IDiag  1:
 RMSU=  4.00D-06    CP:  6.87D-01  1.57D+00  3.88D-01  1.07D+00  1.23D+00
                    CP:  1.19D+00  1.25D+00
 E= -1901.33717445481     Delta-E=       -0.000010591240 Rises=F Damp=F
 DIIS: error= 2.88D-05 at cycle   8 NSaved=   8.
 NSaved= 8 IEnMin= 8 EnMin= -1901.33717445481     IErMin= 8 ErrMin= 2.88D-05
 ErrMax= 2.88D-05  0.00D+00 EMaxC= 1.00D-01 BMatC= 1.50D-06 BMatP= 3.64D-06
 IDIUse=1 WtCom= 1.00D+00 WtEn= 0.00D+00
 Coeff-Com: -0.259D-02 0.560D-02 0.193D-02-0.940D-02-0.834D-01-0.322D-01
 Coeff-Com:  0.440D+00 0.680D+00
 Coeff:     -0.259D-02 0.560D-02 0.193D-02-0.940D-02-0.834D-01-0.322D-01
 Coeff:      0.440D+00 0.680D+00
 Gap=     0.215 Goal=   None    Shift=    0.000
 RMSDP=2.86D-06 MaxDP=6.34D-04 DE=-1.06D-05 OVMax= 1.13D-03

 Cycle   9  Pass 1  IDiag  1:
 RMSU=  1.56D-06    CP:  6.87D-01  1.57D+00  3.88D-01  1.07D+00  1.24D+00
                    CP:  1.22D+00  1.47D+00  1.30D+00
 E= -1901.33717732503     Delta-E=       -0.000002870221 Rises=F Damp=F
 DIIS: error= 1.38D-05 at cycle   9 NSaved=   9.
 NSaved= 9 IEnMin= 9 EnMin= -1901.33717732503     IErMin= 9 ErrMin= 1.38D-05
 ErrMax= 1.38D-05  0.00D+00 EMaxC= 1.00D-01 BMatC= 1.78D-07 BMatP= 1.50D-06
 IDIUse=1 WtCom= 1.00D+00 WtEn= 0.00D+00
 Coeff-Com: -0.825D-03 0.179D-02 0.996D-03-0.169D-02-0.213D-01-0.303D-01
 Coeff-Com: -0.414D-01 0.191D+00 0.902D+00
 Coeff:     -0.825D-03 0.179D-02 0.996D-03-0.169D-02-0.213D-01-0.303D-01
 Coeff:     -0.414D-01 0.191D+00 0.902D+00
 Gap=     0.215 Goal=   None    Shift=    0.000
 RMSDP=2.80D-06 MaxDP=5.47D-04 DE=-2.87D-06 OVMax= 6.06D-04

 Cycle  10  Pass 1  IDiag  1:
 RMSU=  4.41D-07    CP:  6.88D-01  1.57D+00  3.89D-01  1.07D+00  1.25D+00
                    CP:  1.24D+00  1.56D+00  1.57D+00  1.32D+00
 E= -1901.33717782027     Delta-E=       -0.000000495236 Rises=F Damp=F
 DIIS: error= 5.13D-06 at cycle  10 NSaved=  10.
 NSaved=10 IEnMin=10 EnMin= -1901.33717782027     IErMin=10 ErrMin= 5.13D-06
 ErrMax= 5.13D-06  0.00D+00 EMaxC= 1.00D-01 BMatC= 2.45D-08 BMatP= 1.78D-07
 IDIUse=1 WtCom= 1.00D+00 WtEn= 0.00D+00
 Coeff-Com: -0.793D-05 0.148D-04 0.204D-03 0.684D-03 0.297D-02-0.697D-02
 Coeff-Com: -0.789D-01-0.247D-01 0.340D+00 0.766D+00
 Coeff:     -0.793D-05 0.148D-04 0.204D-03 0.684D-03 0.297D-02-0.697D-02
 Coeff:     -0.789D-01-0.247D-01 0.340D+00 0.766D+00
 Gap=     0.215 Goal=   None    Shift=    0.000
 RMSDP=5.99D-07 MaxDP=1.45D-04 DE=-4.95D-07 OVMax= 1.63D-04

 Cycle  11  Pass 1  IDiag  1:
 RMSU=  1.58D-07    CP:  6.88D-01  1.57D+00  3.89D-01  1.07D+00  1.25D+00
                    CP:  1.24D+00  1.59D+00  1.65D+00  1.45D+00  1.12D+00
 E= -1901.33717787931     Delta-E=       -0.000000059044 Rises=F Damp=F
 DIIS: error= 1.12D-06 at cycle  11 NSaved=  11.
 NSaved=11 IEnMin=11 EnMin= -1901.33717787931     IErMin=11 ErrMin= 1.12D-06
 ErrMax= 1.12D-06  0.00D+00 EMaxC= 1.00D-01 BMatC= 2.81D-09 BMatP= 2.45D-08
 IDIUse=1 WtCom= 1.00D+00 WtEn= 0.00D+00
 Coeff-Com:  0.111D-03-0.241D-03-0.800D-04 0.573D-03 0.424D-02 0.238D-02
 Coeff-Com: -0.179D-01-0.357D-01-0.204D-01 0.214D+00 0.853D+00
 Coeff:      0.111D-03-0.241D-03-0.800D-04 0.573D-03 0.424D-02 0.238D-02
 Coeff:     -0.179D-01-0.357D-01-0.204D-01 0.214D+00 0.853D+00
 Gap=     0.215 Goal=   None    Shift=    0.000
 RMSDP=1.89D-07 MaxDP=4.29D-05 DE=-5.90D-08 OVMax= 4.12D-05

 Cycle  12  Pass 1  IDiag  1:
 RMSU=  5.29D-08    CP:  6.88D-01  1.57D+00  3.89D-01  1.07D+00  1.25D+00
                    CP:  1.24D+00  1.59D+00  1.66D+00  1.49D+00  1.24D+00
                    CP:  1.25D+00
 E= -1901.33717788620     Delta-E=       -0.000000006885 Rises=F Damp=F
 DIIS: error= 4.48D-07 at cycle  12 NSaved=  12.
 NSaved=12 IEnMin=12 EnMin= -1901.33717788620     IErMin=12 ErrMin= 4.48D-07
 ErrMax= 4.48D-07  0.00D+00 EMaxC= 1.00D-01 BMatC= 5.43D-10 BMatP= 2.81D-09
 IDIUse=1 WtCom= 1.00D+00 WtEn= 0.00D+00
 Coeff-Com:  0.504D-04-0.109D-03-0.746D-04 0.149D-03 0.130D-02 0.189D-02
 Coeff-Com:  0.367D-02-0.101D-01-0.515D-01-0.323D-01 0.314D+00 0.773D+00
 Coeff:      0.504D-04-0.109D-03-0.746D-04 0.149D-03 0.130D-02 0.189D-02
 Coeff:      0.367D-02-0.101D-01-0.515D-01-0.323D-01 0.314D+00 0.773D+00
 Gap=     0.215 Goal=   None    Shift=    0.000
 RMSDP=4.10D-08 MaxDP=7.15D-06 DE=-6.88D-09 OVMax= 1.30D-05

 Cycle  13  Pass 1  IDiag  1:
 RMSU=  2.32D-08    CP:  6.88D-01  1.57D+00  3.89D-01  1.07D+00  1.25D+00
                    CP:  1.24D+00  1.59D+00  1.66D+00  1.50D+00  1.27D+00
                    CP:  1.37D+00  1.24D+00
 E= -1901.33717788718     Delta-E=       -0.000000000985 Rises=F Damp=F
 DIIS: error= 1.32D-07 at cycle  13 NSaved=  13.
 NSaved=13 IEnMin=13 EnMin= -1901.33717788718     IErMin=13 ErrMin= 1.32D-07
 ErrMax= 1.32D-07  0.00D+00 EMaxC= 1.00D-01 BMatC= 3.95D-11 BMatP= 5.43D-10
 IDIUse=1 WtCom= 1.00D+00 WtEn= 0.00D+00
 Coeff-Com:  0.708D-06-0.121D-05-0.117D-04-0.113D-04-0.105D-03 0.257D-03
 Coeff-Com:  0.292D-02 0.172D-02-0.125D-01-0.344D-01-0.951D-02 0.220D+00
 Coeff-Com:  0.832D+00
 Coeff:      0.708D-06-0.121D-05-0.117D-04-0.113D-04-0.105D-03 0.257D-03
 Coeff:      0.292D-02 0.172D-02-0.125D-01-0.344D-01-0.951D-02 0.220D+00
 Coeff:      0.832D+00
 Gap=     0.215 Goal=   None    Shift=    0.000
 RMSDP=2.84D-08 MaxDP=6.00D-06 DE=-9.85D-10 OVMax= 3.82D-06

 Cycle  14  Pass 1  IDiag  1:
 RMSU=  7.44D-09    CP:  6.88D-01  1.57D+00  3.89D-01  1.07D+00  1.25D+00
                    CP:  1.24D+00  1.59D+00  1.66D+00  1.50D+00  1.27D+00
                    CP:  1.41D+00  1.37D+00  1.23D+00
 E= -1901.33717788724     Delta-E=       -0.000000000061 Rises=F Damp=F
 DIIS: error= 4.06D-08 at cycle  14 NSaved=  14.
 NSaved=14 IEnMin=14 EnMin= -1901.33717788724     IErMin=14 ErrMin= 4.06D-08
 ErrMax= 4.06D-08  0.00D+00 EMaxC= 1.00D-01 BMatC= 4.70D-12 BMatP= 3.95D-11
 IDIUse=1 WtCom= 1.00D+00 WtEn= 0.00D+00
 Coeff-Com: -0.178D-05 0.388D-05-0.461D-06-0.170D-04-0.116D-03-0.450D-04
 Coeff-Com:  0.512D-03 0.138D-02-0.677D-03-0.808D-02-0.262D-01 0.131D-01
 Coeff-Com:  0.288D+00 0.732D+00
 Coeff:     -0.178D-05 0.388D-05-0.461D-06-0.170D-04-0.116D-03-0.450D-04
 Coeff:      0.512D-03 0.138D-02-0.677D-03-0.808D-02-0.262D-01 0.131D-01
 Coeff:      0.288D+00 0.732D+00
 Gap=     0.215 Goal=   None    Shift=    0.000
 RMSDP=8.67D-09 MaxDP=1.71D-06 DE=-6.09D-11 OVMax= 9.13D-07

 Cycle  15  Pass 1  IDiag  1:
 RMSU=  3.33D-09    CP:  6.88D-01  1.57D+00  3.89D-01  1.07D+00  1.25D+00
                    CP:  1.24D+00  1.59D+00  1.66D+00  1.50D+00  1.27D+00
                    CP:  1.41D+00  1.40D+00  1.31D+00  1.20D+00
 E= -1901.33717788729     Delta-E=       -0.000000000047 Rises=F Damp=F
 DIIS: error= 1.99D-08 at cycle  15 NSaved=  15.
 NSaved=15 IEnMin=15 EnMin= -1901.33717788729     IErMin=15 ErrMin= 1.99D-08
 ErrMax= 1.99D-08  0.00D+00 EMaxC= 1.00D-01 BMatC= 8.93D-13 BMatP= 4.70D-12
 IDIUse=1 WtCom= 1.00D+00 WtEn= 0.00D+00
 Coeff-Com: -0.829D-06 0.175D-05 0.147D-05-0.595D-05-0.347D-04-0.542D-04
 Coeff-Com: -0.216D-03 0.419D-03 0.139D-02 0.151D-02-0.101D-01-0.273D-01
 Coeff-Com:  0.269D-02 0.331D+00 0.701D+00
 Coeff:     -0.829D-06 0.175D-05 0.147D-05-0.595D-05-0.347D-04-0.542D-04
 Coeff:     -0.216D-03 0.419D-03 0.139D-02 0.151D-02-0.101D-01-0.273D-01
 Coeff:      0.269D-02 0.331D+00 0.701D+00
 Gap=     0.215 Goal=   None    Shift=    0.000
 RMSDP=4.48D-09 MaxDP=4.73D-07 DE=-4.73D-11 OVMax= 4.42D-07

 Error on total polarization charges =  0.10199
 SCF Done:  E(RCAM-B3LYP) =  -1901.33717789     A.U. after   15 cycles
            NFock= 15  Conv=0.45D-08     -V/T= 2.0043
 KE= 1.893237079370D+03 PE=-1.422909383114D+04 EE= 5.528758951551D+03
 SMD-CDS (non-electrostatic) energy       (kcal/mol) =      -7.78
 (included in total energy above)
 Leave Link  502 at Fri Mar 26 23:44:16 2021, MaxMem=  5242880000 cpu:     47882.6
 (Enter /opt/nce/packages/global/g09/l801.exe)
 DoSCS=F DFT=T ScalE2(SS,OS)=  1.000000  1.000000
 Range of M.O.s used for correlation:     1  1674
 NBasis=  1674 NAE=   161 NBE=   161 NFC=     0 NFV=     0
 NROrb=   1674 NOA=   161 NOB=   161 NVA=  1513 NVB=  1513

 **** Warning!!: The largest alpha MO coefficient is  0.49217183D+02

 Leave Link  801 at Fri Mar 26 23:44:16 2021, MaxMem=  5242880000 cpu:         1.1
 (Enter /opt/nce/packages/global/g09/l1101.exe)
 Using compressed storage, NAtomX=    79.
 Will process     80 centers per pass.
 PrsmSu:  requested number of processors reduced to:  11 ShMem   1 Linda.
   1 Symmetry operations used in ECPInt.
 ECPInt:  NShTT=  212878 NPrTT=  658380 LenC2=  124045 LenP2D=  251740.
 LDataN:  DoStor=T MaxTD1= 7 Len=  274
 Number of processors reduced to   3 by ecpmxn.
 R6Disp: Adding Grimme-D3(BJ) dispersion energy 1st derivatives to the gradient.
 Leave Link 1101 at Fri Mar 26 23:48:23 2021, MaxMem=  5242880000 cpu:      2563.5
 (Enter /opt/nce/packages/global/g09/l1102.exe)
 Symmetrizing basis deriv contribution to polar:
 IMax=3 JMax=2 DiffMx= 0.00D+00
 Leave Link 1102 at Fri Mar 26 23:48:25 2021, MaxMem=  5242880000 cpu:         7.1
 (Enter /opt/nce/packages/global/g09/l1110.exe)
 Forming Gx(P) for the SCF density, NAtomX=    79.
 Integral derivatives from FoFJK, PRISM(SPDF).
 Do as many integral derivatives as possible in FoFJK.
 G2DrvN: MDV=    5242879264.
 G2DrvN: will do    40 centers at a time, making    2 passes.
 G2DrvN:  IPasSy=1 do centers    0 through   39.
 Calling FoFCou, ICntrl=  3107 FMM=T I1Cent=   0 AccDes= 1.00D-11.
 FoFJK:  IHMeth= 1 ICntrl=    3107 DoSepK=T KAlg= 0 I1Cent=   0 FoldK=F
 IRaf=         1 NMat=   1 IRICut=       1 DoRegI=T DoRafI=F ISym2E= 0.
 FoFCou: FMM=T IPFlag=           0 FMFlag=      100000 FMFlg1=        2001
         NFxFlg=           0 DoJE=F BraDBF=F KetDBF=F FulRan=T
         wScrn=  0.000000 ICntrl=    3507 IOpCl=  0 I1Cent=           0 NGrid=           0
         NMat0=    1 NMatS0=      1 NMatT0=    0 NMatD0=    1 NMtDS0=    0 NMtDT0=    0
 Symmetry not used in FoFCou.
 FMM levels:  10  Number of levels for PrismC:   9
 G2DrvN:  IPasSy=1 do centers   40 through   79.
 Calling FoFCou, ICntrl=  3107 FMM=T I1Cent=   0 AccDes= 1.00D-11.
 NEqPCM:  Using equilibrium solvation (IEInf=0, Eps=  37.7810, EpsInf=   2.0678)
 G2PCM: DoFxE=T DoFxN=T DoGrad=T DoDP/DQ/DG/TGxP=FFFF NFrqRd=   0 IEInf=0 SqF1=F DoCFld=F IF1Alg=4.
 GePol: Maximum number of non-zero 1st derivatives   =     285
 End of G2Drv F.D. properties file   721 does not exist.
 End of G2Drv F.D. properties file   722 does not exist.
 End of G2Drv F.D. properties file   788 does not exist.
 Leave Link 1110 at Sat Mar 27 01:52:21 2021, MaxMem=  5242880000 cpu:     88992.9
 (Enter /opt/nce/packages/global/g09/l1002.exe)
 Minotr:  Closed shell wavefunction.
          IDoAtm=11111111111111111111111111111111111111111111111111
          IDoAtm=11111111111111111111111111111
 NEqPCM:  Using equilibrium solvation (IEInf=0, Eps=  37.7810, EpsInf=   2.0678)
          Direct CPHF calculation.
          Differentiating once with respect to electric field.
                with respect to dipole field.
          Differentiating once with respect to nuclear coordinates.
          Requested convergence is 1.0D-08 RMS, and 1.0D-07 maximum.
          Secondary convergence is 1.0D-12 RMS, and 1.0D-12 maximum.
          NewPWx=T KeepS1=F KeepF1=F KeepIn=T MapXYZ=F SortEE=F KeepMc=T.
          MDV=    5242877532 using IRadAn=       1.
 Generate precomputed XC quadrature information.
          Solving linear equations simultaneously, MaxMat=      72.
 FoF2E skips out because all densities are zero.
 CalDSu exits because no D1Ps are significant.
 FoFJK:  IHMeth= 1 ICntrl=       0 DoSepK=T KAlg= 0 I1Cent=   0 FoldK=F
 IRaf=         1 NMat=  72 IRICut=       1 DoRegI=T DoRafI=F ISym2E= 0.
          There are   240 degrees of freedom in the 1st order CPHF.  IDoFFX=6 NUNeed=     3.
    240 vectors produced by pass  0 Test12= 2.44D-13 1.00D-09 XBig12= 4.84D+02 8.06D+00.
 AX will form    72 AO Fock derivatives at one time.
    239 vectors produced by pass  1 Test12= 2.44D-13 1.00D-09 XBig12= 3.24D+01 8.66D-01.
    237 vectors produced by pass  2 Test12= 2.44D-13 1.00D-09 XBig12= 7.09D-01 1.32D-01.
    237 vectors produced by pass  3 Test12= 2.44D-13 1.00D-09 XBig12= 7.96D-03 9.24D-03.
    237 vectors produced by pass  4 Test12= 2.44D-13 1.00D-09 XBig12= 4.98D-05 6.82D-04.
    237 vectors produced by pass  5 Test12= 2.44D-13 1.00D-09 XBig12= 3.06D-07 3.37D-05.
    225 vectors produced by pass  6 Test12= 2.44D-13 1.00D-09 XBig12= 1.88D-09 3.67D-06.
     62 vectors produced by pass  7 Test12= 2.44D-13 1.00D-09 XBig12= 1.06D-11 2.08D-07.
      3 vectors produced by pass  8 Test12= 2.44D-13 1.00D-09 XBig12= 5.16D-14 1.75D-08.
      2 vectors produced by pass  9 Test12= 2.44D-13 1.00D-09 XBig12= 4.07D-16 1.85D-09.
      1 vectors produced by pass 10 Test12= 2.44D-13 1.00D-09 XBig12= 2.99D-16 1.07D-09.
 InvSVY:  IOpt=1 It=  1 EMax= 1.42D-14
 Solved reduced A of dimension  1720 with   240 vectors.
 FullF1:  Do perturbations    1 to     3.
 Isotropic polarizability for W=    0.000000      858.07 Bohr**3.
 End of Minotr F.D. properties file   721 does not exist.
 End of Minotr F.D. properties file   722 does not exist.
 End of Minotr F.D. properties file   788 does not exist.
 Leave Link 1002 at Sat Mar 27 21:21:20 2021, MaxMem=  5242880000 cpu:    834609.1
 (Enter /opt/nce/packages/global/g09/l601.exe)
 Copying SCF densities to generalized density rwf, IOpCl= 0 IROHF=0.

 **********************************************************************

            Population analysis using the SCF density.

 **********************************************************************

 Alpha  occ. eigenvalues --  -19.24722 -14.42848 -10.31303 -10.31300 -10.29831
 Alpha  occ. eigenvalues --  -10.29826 -10.28960 -10.26186 -10.26057 -10.25724
 Alpha  occ. eigenvalues --  -10.25716 -10.25698 -10.25690 -10.25575 -10.25572
 Alpha  occ. eigenvalues --  -10.25495 -10.25485 -10.25206 -10.25095 -10.24941
 Alpha  occ. eigenvalues --  -10.24853 -10.24842 -10.24781 -10.24690 -10.24633
 Alpha  occ. eigenvalues --  -10.24626 -10.24618 -10.24618 -10.24438 -10.24437
 Alpha  occ. eigenvalues --  -10.24436 -10.24435 -10.24432 -10.24429 -10.24428
 Alpha  occ. eigenvalues --  -10.24427 -10.24367 -10.24362 -10.24361 -10.24356
 Alpha  occ. eigenvalues --  -10.24356 -10.24356 -10.24349 -10.24349 -10.24340
 Alpha  occ. eigenvalues --  -10.24335 -10.24287 -10.24283  -1.17969  -1.06632
 Alpha  occ. eigenvalues --   -0.96918  -0.96854  -0.96225  -0.95695  -0.94591
 Alpha  occ. eigenvalues --   -0.93723  -0.92775  -0.91325  -0.88103  -0.87293
 Alpha  occ. eigenvalues --   -0.86063  -0.85646  -0.84293  -0.83433  -0.83334
 Alpha  occ. eigenvalues --   -0.82976  -0.82776  -0.82528  -0.82494  -0.81689
 Alpha  occ. eigenvalues --   -0.80638  -0.79764  -0.77525  -0.73525  -0.73425
 Alpha  occ. eigenvalues --   -0.70741  -0.70250  -0.70158  -0.69820  -0.69409
 Alpha  occ. eigenvalues --   -0.69372  -0.67948  -0.67038  -0.66144  -0.66108
 Alpha  occ. eigenvalues --   -0.65781  -0.65710  -0.64228  -0.63121  -0.61147
 Alpha  occ. eigenvalues --   -0.60476  -0.60384  -0.59126  -0.57769  -0.57734
 Alpha  occ. eigenvalues --   -0.57323  -0.56681  -0.55913  -0.54640  -0.54365
 Alpha  occ. eigenvalues --   -0.54216  -0.53572  -0.53527  -0.53214  -0.52092
 Alpha  occ. eigenvalues --   -0.51958  -0.51299  -0.50987  -0.50868  -0.50549
 Alpha  occ. eigenvalues --   -0.50433  -0.50182  -0.49969  -0.49717  -0.49650
 Alpha  occ. eigenvalues --   -0.49394  -0.49046  -0.49022  -0.48113  -0.48095
 Alpha  occ. eigenvalues --   -0.47206  -0.47125  -0.47046  -0.46550  -0.46015
 Alpha  occ. eigenvalues --   -0.45525  -0.45420  -0.45037  -0.44628  -0.44296
 Alpha  occ. eigenvalues --   -0.43823  -0.43382  -0.42935  -0.42802  -0.41884
 Alpha  occ. eigenvalues --   -0.41357  -0.41170  -0.40882  -0.40728  -0.40460
 Alpha  occ. eigenvalues --   -0.40065  -0.39882  -0.39536  -0.39413  -0.39127
 Alpha  occ. eigenvalues --   -0.39021  -0.35707  -0.35316  -0.33865  -0.32501
 Alpha  occ. eigenvalues --   -0.31728  -0.31465  -0.31459  -0.31347  -0.31345
 Alpha  occ. eigenvalues --   -0.30582  -0.29680  -0.27995  -0.27845  -0.27031
 Alpha  occ. eigenvalues --   -0.22629
 Alpha virt. eigenvalues --   -0.01130  -0.01050  -0.00037   0.01543   0.02742
 Alpha virt. eigenvalues --    0.02763   0.03244   0.03422   0.03487   0.03843
 Alpha virt. eigenvalues --    0.03975   0.05355   0.06206   0.07770   0.09135
 Alpha virt. eigenvalues --    0.09651   0.09780   0.10179   0.10185   0.10581
 Alpha virt. eigenvalues --    0.10766   0.10956   0.11326   0.11527   0.11636
 Alpha virt. eigenvalues --    0.12383   0.12673   0.13274   0.13325   0.13406
 Alpha virt. eigenvalues --    0.13537   0.14157   0.14420   0.14828   0.15126
 Alpha virt. eigenvalues --    0.15171   0.15608   0.15747   0.16079   0.16118
 Alpha virt. eigenvalues --    0.16432   0.16484   0.16597   0.16927   0.17103
 Alpha virt. eigenvalues --    0.17327   0.17675   0.17876   0.18088   0.18229
 Alpha virt. eigenvalues --    0.18456   0.19193   0.19581   0.19789   0.20238
 Alpha virt. eigenvalues --    0.20476   0.20706   0.20883   0.21377   0.21656
 Alpha virt. eigenvalues --    0.21768   0.21989   0.22087   0.22612   0.23133
 Alpha virt. eigenvalues --    0.23583   0.23853   0.24100   0.24287   0.24359
 Alpha virt. eigenvalues --    0.24386   0.24432   0.24702   0.24816   0.24964
 Alpha virt. eigenvalues --    0.25023   0.25493   0.25591   0.25699   0.26200
 Alpha virt. eigenvalues --    0.26217   0.26464   0.26589   0.26898   0.27061
 Alpha virt. eigenvalues --    0.27171   0.27397   0.27654   0.27882   0.28181
 Alpha virt. eigenvalues --    0.28259   0.28450   0.28781   0.28866   0.28900
 Alpha virt. eigenvalues --    0.29172   0.29264   0.29492   0.29546   0.29739
 Alpha virt. eigenvalues --    0.29900   0.30183   0.30269   0.30591   0.30685
 Alpha virt. eigenvalues --    0.30907   0.31203   0.31361   0.31641   0.31987
 Alpha virt. eigenvalues --    0.32421   0.32639   0.32886   0.33181   0.33268
 Alpha virt. eigenvalues --    0.33482   0.34028   0.34140   0.34227   0.34300
 Alpha virt. eigenvalues --    0.34520   0.34765   0.35388   0.35464   0.35702
 Alpha virt. eigenvalues --    0.35887   0.35938   0.36205   0.36645   0.37049
 Alpha virt. eigenvalues --    0.37149   0.37372   0.37595   0.37682   0.37767
 Alpha virt. eigenvalues --    0.38153   0.38305   0.38742   0.38930   0.39252
 Alpha virt. eigenvalues --    0.39261   0.39291   0.39515   0.39567   0.39576
 Alpha virt. eigenvalues --    0.39691   0.39781   0.39985   0.40080   0.40506
 Alpha virt. eigenvalues --    0.40622   0.40869   0.41057   0.41430   0.41526
 Alpha virt. eigenvalues --    0.41847   0.42051   0.42199   0.42393   0.42437
 Alpha virt. eigenvalues --    0.42745   0.43044   0.43108   0.43342   0.43649
 Alpha virt. eigenvalues --    0.43826   0.43976   0.44000   0.44301   0.44503
 Alpha virt. eigenvalues --    0.44811   0.45058   0.45205   0.45617   0.45985
 Alpha virt. eigenvalues --    0.46186   0.46231   0.46541   0.46712   0.46853
 Alpha virt. eigenvalues --    0.47102   0.47194   0.47418   0.47467   0.47572
 Alpha virt. eigenvalues --    0.47730   0.47834   0.48205   0.48378   0.48676
 Alpha virt. eigenvalues --    0.48856   0.49124   0.49145   0.49467   0.49632
 Alpha virt. eigenvalues --    0.49720   0.50045   0.50198   0.50430   0.50702
 Alpha virt. eigenvalues --    0.50871   0.51120   0.51469   0.51632   0.51759
 Alpha virt. eigenvalues --    0.51975   0.52598   0.52755   0.53092   0.53161
 Alpha virt. eigenvalues --    0.53573   0.53954   0.54008   0.54074   0.54187
 Alpha virt. eigenvalues --    0.54754   0.54874   0.55041   0.55216   0.55370
 Alpha virt. eigenvalues --    0.55572   0.55901   0.56089   0.56461   0.56551
 Alpha virt. eigenvalues --    0.56802   0.57144   0.57169   0.57364   0.57465
 Alpha virt. eigenvalues --    0.57654   0.58094   0.58421   0.58679   0.58970
 Alpha virt. eigenvalues --    0.59316   0.59433   0.60015   0.60202   0.60505
 Alpha virt. eigenvalues --    0.60600   0.61263   0.61627   0.61989   0.62546
 Alpha virt. eigenvalues --    0.62790   0.63352   0.63461   0.63859   0.64167
 Alpha virt. eigenvalues --    0.64403   0.64925   0.65512   0.65692   0.66073
 Alpha virt. eigenvalues --    0.66143   0.66360   0.66729   0.66890   0.66984
 Alpha virt. eigenvalues --    0.67710   0.67929   0.68337   0.68824   0.69104
 Alpha virt. eigenvalues --    0.69325   0.69511   0.69575   0.69866   0.70446
 Alpha virt. eigenvalues --    0.70614   0.71258   0.71515   0.71585   0.71821
 Alpha virt. eigenvalues --    0.72377   0.72655   0.72958   0.73170   0.73457
 Alpha virt. eigenvalues --    0.73799   0.74041   0.74434   0.74743   0.74958
 Alpha virt. eigenvalues --    0.75024   0.75392   0.75598   0.75817   0.75916
 Alpha virt. eigenvalues --    0.75973   0.76238   0.76478   0.76711   0.76885
 Alpha virt. eigenvalues --    0.77172   0.77334   0.77480   0.77557   0.77831
 Alpha virt. eigenvalues --    0.77946   0.77998   0.78428   0.78446   0.78681
 Alpha virt. eigenvalues --    0.78840   0.79039   0.79465   0.79762   0.79982
 Alpha virt. eigenvalues --    0.80078   0.80224   0.80391   0.80488   0.80693
 Alpha virt. eigenvalues --    0.80755   0.80884   0.81200   0.81357   0.81652
 Alpha virt. eigenvalues --    0.81997   0.82254   0.82723   0.82963   0.83193
 Alpha virt. eigenvalues --    0.83708   0.83759   0.84464   0.84714   0.85014
 Alpha virt. eigenvalues --    0.85134   0.85522   0.85604   0.85917   0.86313
 Alpha virt. eigenvalues --    0.86762   0.87011   0.87205   0.87598   0.87925
 Alpha virt. eigenvalues --    0.88102   0.88425   0.88443   0.88988   0.89288
 Alpha virt. eigenvalues --    0.89419   0.89780   0.90236   0.90753   0.91065
 Alpha virt. eigenvalues --    0.91187   0.91280   0.91873   0.92180   0.92358
 Alpha virt. eigenvalues --    0.92726   0.93208   0.93311   0.93387   0.93752
 Alpha virt. eigenvalues --    0.93972   0.94170   0.94446   0.94801   0.94875
 Alpha virt. eigenvalues --    0.95031   0.95104   0.95317   0.95573   0.95798
 Alpha virt. eigenvalues --    0.96243   0.96415   0.96694   0.97118   0.97781
 Alpha virt. eigenvalues --    0.98132   0.98455   0.98604   0.99222   0.99784
 Alpha virt. eigenvalues --    1.00075   1.00140   1.00419   1.00733   1.01282
 Alpha virt. eigenvalues --    1.01824   1.02184   1.02386   1.02614   1.02926
 Alpha virt. eigenvalues --    1.03203   1.03616   1.03886   1.04165   1.04841
 Alpha virt. eigenvalues --    1.05087   1.05582   1.06083   1.06337   1.06524
 Alpha virt. eigenvalues --    1.06736   1.06983   1.07201   1.07775   1.08162
 Alpha virt. eigenvalues --    1.08297   1.08802   1.09482   1.09835   1.10337
 Alpha virt. eigenvalues --    1.10825   1.10875   1.11474   1.11948   1.12336
 Alpha virt. eigenvalues --    1.12817   1.12866   1.13299   1.13627   1.13868
 Alpha virt. eigenvalues --    1.14835   1.15422   1.15818   1.16274   1.17029
 Alpha virt. eigenvalues --    1.17386   1.17634   1.17970   1.18129   1.18308
 Alpha virt. eigenvalues --    1.18979   1.19134   1.19231   1.20442   1.20684
 Alpha virt. eigenvalues --    1.21336   1.21771   1.22275   1.22731   1.23003
 Alpha virt. eigenvalues --    1.23196   1.23467   1.23877   1.24635   1.24712
 Alpha virt. eigenvalues --    1.25389   1.25771   1.26167   1.26397   1.26553
 Alpha virt. eigenvalues --    1.26748   1.26799   1.27062   1.27213   1.27824
 Alpha virt. eigenvalues --    1.27969   1.28577   1.28768   1.29246   1.29361
 Alpha virt. eigenvalues --    1.29595   1.29912   1.30180   1.30707   1.31206
 Alpha virt. eigenvalues --    1.31509   1.31945   1.32400   1.32568   1.32895
 Alpha virt. eigenvalues --    1.33690   1.33840   1.33975   1.34037   1.34330
 Alpha virt. eigenvalues --    1.34841   1.35437   1.36047   1.36431   1.36534
 Alpha virt. eigenvalues --    1.36604   1.36903   1.37069   1.37178   1.37916
 Alpha virt. eigenvalues --    1.38136   1.38321   1.38564   1.38792   1.39129
 Alpha virt. eigenvalues --    1.39160   1.39512   1.39891   1.40467   1.40532
 Alpha virt. eigenvalues --    1.40751   1.41455   1.41801   1.42377   1.42672
 Alpha virt. eigenvalues --    1.42942   1.43999   1.44363   1.44767   1.45299
 Alpha virt. eigenvalues --    1.45754   1.45929   1.46330   1.46419   1.46720
 Alpha virt. eigenvalues --    1.47155   1.47925   1.48444   1.48775   1.48986
 Alpha virt. eigenvalues --    1.49219   1.49242   1.49434   1.49644   1.49989
 Alpha virt. eigenvalues --    1.50531   1.50643   1.51828   1.52227   1.52485
 Alpha virt. eigenvalues --    1.52755   1.52955   1.53373   1.53968   1.54192
 Alpha virt. eigenvalues --    1.54371   1.54499   1.54927   1.55276   1.55669
 Alpha virt. eigenvalues --    1.56085   1.56231   1.56264   1.56598   1.57099
 Alpha virt. eigenvalues --    1.57583   1.58110   1.58335   1.58510   1.58630
 Alpha virt. eigenvalues --    1.58814   1.58901   1.59274   1.59857   1.60073
 Alpha virt. eigenvalues --    1.60358   1.60932   1.61295   1.61657   1.62050
 Alpha virt. eigenvalues --    1.62091   1.62405   1.62720   1.63212   1.63280
 Alpha virt. eigenvalues --    1.63366   1.63526   1.63932   1.64069   1.64313
 Alpha virt. eigenvalues --    1.64615   1.65352   1.65773   1.65919   1.66481
 Alpha virt. eigenvalues --    1.67298   1.67719   1.67775   1.68056   1.68426
 Alpha virt. eigenvalues --    1.68623   1.69679   1.70428   1.70781   1.71210
 Alpha virt. eigenvalues --    1.71441   1.71638   1.72010   1.72295   1.72657
 Alpha virt. eigenvalues --    1.72863   1.73128   1.73241   1.73364   1.74138
 Alpha virt. eigenvalues --    1.74337   1.74618   1.74704   1.74924   1.75151
 Alpha virt. eigenvalues --    1.75414   1.75917   1.76066   1.76395   1.76651
 Alpha virt. eigenvalues --    1.76967   1.77145   1.77460   1.77620   1.78060
 Alpha virt. eigenvalues --    1.78153   1.78470   1.78936   1.79041   1.79098
 Alpha virt. eigenvalues --    1.79202   1.79634   1.79919   1.80383   1.80706
 Alpha virt. eigenvalues --    1.81098   1.81161   1.81746   1.82078   1.82746
 Alpha virt. eigenvalues --    1.83765   1.84026   1.84662   1.84909   1.85120
 Alpha virt. eigenvalues --    1.85412   1.85596   1.86208   1.86299   1.86874
 Alpha virt. eigenvalues --    1.87760   1.88608   1.89093   1.89480   1.89715
 Alpha virt. eigenvalues --    1.90830   1.91204   1.91798   1.92477   1.92571
 Alpha virt. eigenvalues --    1.92725   1.93124   1.93713   1.94140   1.94813
 Alpha virt. eigenvalues --    1.94891   1.94944   1.96051   1.96529   1.97185
 Alpha virt. eigenvalues --    1.97195   1.98067   1.98497   1.98629   1.99056
 Alpha virt. eigenvalues --    1.99916   2.00176   2.00440   2.00925   2.01179
 Alpha virt. eigenvalues --    2.01246   2.02121   2.02374   2.03242   2.03368
 Alpha virt. eigenvalues --    2.04266   2.04696   2.05428   2.06005   2.06896
 Alpha virt. eigenvalues --    2.07416   2.07993   2.08134   2.08712   2.09214
 Alpha virt. eigenvalues --    2.09607   2.10327   2.10481   2.10849   2.11653
 Alpha virt. eigenvalues --    2.11719   2.11968   2.12283   2.12508   2.12831
 Alpha virt. eigenvalues --    2.12853   2.13318   2.13768   2.14000   2.14464
 Alpha virt. eigenvalues --    2.14909   2.15153   2.15568   2.15755   2.16140
 Alpha virt. eigenvalues --    2.16918   2.17467   2.18369   2.18546   2.18992
 Alpha virt. eigenvalues --    2.19458   2.19668   2.20483   2.20558   2.21555
 Alpha virt. eigenvalues --    2.22495   2.23520   2.23868   2.24220   2.24648
 Alpha virt. eigenvalues --    2.24835   2.25341   2.25415   2.25534   2.26185
 Alpha virt. eigenvalues --    2.26759   2.26793   2.27237   2.27282   2.27441
 Alpha virt. eigenvalues --    2.27745   2.27985   2.28340   2.28859   2.29531
 Alpha virt. eigenvalues --    2.29729   2.30162   2.30296   2.30521   2.31049
 Alpha virt. eigenvalues --    2.31129   2.31359   2.31944   2.32232   2.32388
 Alpha virt. eigenvalues --    2.32601   2.32834   2.33718   2.33989   2.34655
 Alpha virt. eigenvalues --    2.35831   2.36172   2.36923   2.37676   2.37786
 Alpha virt. eigenvalues --    2.38593   2.39551   2.39820   2.40078   2.40626
 Alpha virt. eigenvalues --    2.41360   2.41617   2.42082   2.43508   2.44976
 Alpha virt. eigenvalues --    2.45189   2.45454   2.46031   2.46383   2.46784
 Alpha virt. eigenvalues --    2.47119   2.47941   2.49850   2.50129   2.50163
 Alpha virt. eigenvalues --    2.51122   2.51920   2.51966   2.52524   2.53241
 Alpha virt. eigenvalues --    2.53355   2.54012   2.54105   2.54631   2.55060
 Alpha virt. eigenvalues --    2.55476   2.56106   2.56387   2.56792   2.57318
 Alpha virt. eigenvalues --    2.57911   2.58275   2.59321   2.59849   2.60029
 Alpha virt. eigenvalues --    2.60714   2.61755   2.62027   2.62313   2.62918
 Alpha virt. eigenvalues --    2.63122   2.63883   2.64498   2.64662   2.65347
 Alpha virt. eigenvalues --    2.65861   2.65975   2.66145   2.66507   2.66841
 Alpha virt. eigenvalues --    2.67386   2.67852   2.68117   2.68802   2.69010
 Alpha virt. eigenvalues --    2.69166   2.69394   2.69499   2.69713   2.70154
 Alpha virt. eigenvalues --    2.70430   2.70443   2.70749   2.71588   2.71785
 Alpha virt. eigenvalues --    2.72470   2.72787   2.72895   2.73404   2.73570
 Alpha virt. eigenvalues --    2.73839   2.74069   2.74358   2.74564   2.74835
 Alpha virt. eigenvalues --    2.75088   2.75266   2.75288   2.75363   2.75468
 Alpha virt. eigenvalues --    2.75763   2.75986   2.76145   2.76345   2.76643
 Alpha virt. eigenvalues --    2.76874   2.77274   2.77563   2.77827   2.78038
 Alpha virt. eigenvalues --    2.78393   2.78711   2.79159   2.79336   2.79554
 Alpha virt. eigenvalues --    2.79990   2.80125   2.80225   2.80471   2.80667
 Alpha virt. eigenvalues --    2.80994   2.81511   2.81643   2.82051   2.82240
 Alpha virt. eigenvalues --    2.82556   2.82806   2.83010   2.83230   2.83318
 Alpha virt. eigenvalues --    2.83956   2.84142   2.84273   2.84640   2.84773
 Alpha virt. eigenvalues --    2.85018   2.85231   2.85624   2.85674   2.86190
 Alpha virt. eigenvalues --    2.86328   2.86530   2.86682   2.87045   2.87165
 Alpha virt. eigenvalues --    2.87733   2.88063   2.88380   2.88615   2.89046
 Alpha virt. eigenvalues --    2.89174   2.89601   2.89812   2.90132   2.90165
 Alpha virt. eigenvalues --    2.90382   2.90613   2.90746   2.91019   2.91030
 Alpha virt. eigenvalues --    2.91515   2.91723   2.91942   2.92400   2.92707
 Alpha virt. eigenvalues --    2.92867   2.92979   2.93250   2.93678   2.94036
 Alpha virt. eigenvalues --    2.94133   2.94331   2.94487   2.94524   2.94709
 Alpha virt. eigenvalues --    2.94820   2.95026   2.95346   2.95646   2.95813
 Alpha virt. eigenvalues --    2.96532   2.97043   2.97502   2.97799   2.97839
 Alpha virt. eigenvalues --    2.98170   2.98333   2.98691   2.98898   3.00038
 Alpha virt. eigenvalues --    3.00075   3.00361   3.00784   3.00858   3.01253
 Alpha virt. eigenvalues --    3.01961   3.02299   3.02577   3.03413   3.03708
 Alpha virt. eigenvalues --    3.04281   3.04624   3.04742   3.05164   3.05525
 Alpha virt. eigenvalues --    3.05973   3.06241   3.06992   3.07482   3.07992
 Alpha virt. eigenvalues --    3.08092   3.08672   3.08943   3.09111   3.09158
 Alpha virt. eigenvalues --    3.09414   3.09665   3.09899   3.10288   3.10592
 Alpha virt. eigenvalues --    3.10676   3.11915   3.12025   3.12249   3.12501
 Alpha virt. eigenvalues --    3.12577   3.12811   3.12917   3.13369   3.13996
 Alpha virt. eigenvalues --    3.14338   3.14557   3.14872   3.15219   3.15532
 Alpha virt. eigenvalues --    3.16578   3.16728   3.17480   3.17685   3.17737
 Alpha virt. eigenvalues --    3.17866   3.18164   3.18409   3.18862   3.19071
 Alpha virt. eigenvalues --    3.19410   3.19457   3.20035   3.20453   3.20865
 Alpha virt. eigenvalues --    3.21256   3.21614   3.21850   3.21930   3.22435
 Alpha virt. eigenvalues --    3.22515   3.22843   3.23028   3.23081   3.23682
 Alpha virt. eigenvalues --    3.23772   3.23855   3.24271   3.24417   3.24683
 Alpha virt. eigenvalues --    3.24915   3.25368   3.25688   3.25860   3.26255
 Alpha virt. eigenvalues --    3.26365   3.26797   3.27226   3.27253   3.27435
 Alpha virt. eigenvalues --    3.27742   3.27841   3.27959   3.28316   3.28412
 Alpha virt. eigenvalues --    3.28512   3.28783   3.28964   3.29271   3.29700
 Alpha virt. eigenvalues --    3.29990   3.30264   3.30670   3.31938   3.32335
 Alpha virt. eigenvalues --    3.32497   3.32955   3.33261   3.33565   3.34066
 Alpha virt. eigenvalues --    3.34375   3.34410   3.34794   3.34915   3.35017
 Alpha virt. eigenvalues --    3.35282   3.35603   3.35687   3.36260   3.36310
 Alpha virt. eigenvalues --    3.36627   3.36769   3.37157   3.37692   3.38023
 Alpha virt. eigenvalues --    3.38663   3.38954   3.39082   3.39606   3.39845
 Alpha virt. eigenvalues --    3.40022   3.40228   3.40411   3.40662   3.40911
 Alpha virt. eigenvalues --    3.41128   3.41490   3.41695   3.41930   3.42064
 Alpha virt. eigenvalues --    3.42264   3.42348   3.42808   3.42864   3.43811
 Alpha virt. eigenvalues --    3.44039   3.44239   3.44604   3.44981   3.45284
 Alpha virt. eigenvalues --    3.45426   3.45656   3.45883   3.45966   3.46131
 Alpha virt. eigenvalues --    3.46586   3.47120   3.47176   3.47420   3.47708
 Alpha virt. eigenvalues --    3.47867   3.48087   3.48139   3.48923   3.49241
 Alpha virt. eigenvalues --    3.49707   3.49829   3.50248   3.50351   3.50556
 Alpha virt. eigenvalues --    3.50749   3.50930   3.51192   3.51265   3.51492
 Alpha virt. eigenvalues --    3.51755   3.52111   3.52306   3.52530   3.52837
 Alpha virt. eigenvalues --    3.53176   3.53584   3.53751   3.53919   3.54207
 Alpha virt. eigenvalues --    3.54351   3.54740   3.54827   3.54893   3.55104
 Alpha virt. eigenvalues --    3.55379   3.55538   3.55621   3.55801   3.56886
 Alpha virt. eigenvalues --    3.57129   3.57491   3.58158   3.58238   3.58392
 Alpha virt. eigenvalues --    3.58898   3.59011   3.59380   3.59692   3.59945
 Alpha virt. eigenvalues --    3.60714   3.60855   3.61225   3.61384   3.62160
 Alpha virt. eigenvalues --    3.62355   3.62602   3.62790   3.63112   3.63383
 Alpha virt. eigenvalues --    3.64153   3.64203   3.64317   3.64655   3.65086
 Alpha virt. eigenvalues --    3.65365   3.65480   3.65611   3.65825   3.66073
 Alpha virt. eigenvalues --    3.66583   3.66963   3.67176   3.67657   3.67880
 Alpha virt. eigenvalues --    3.68200   3.68806   3.68897   3.69338   3.69978
 Alpha virt. eigenvalues --    3.70234   3.70951   3.71298   3.71622   3.71735
 Alpha virt. eigenvalues --    3.72573   3.72830   3.73227   3.73738   3.74407
 Alpha virt. eigenvalues --    3.75162   3.75290   3.75829   3.76002   3.76817
 Alpha virt. eigenvalues --    3.77134   3.77851   3.78386   3.78518   3.78940
 Alpha virt. eigenvalues --    3.80227   3.80958   3.81204   3.82179   3.83897
 Alpha virt. eigenvalues --    3.84525   3.85008   3.85481   3.85850   3.86779
 Alpha virt. eigenvalues --    3.87501   3.87841   3.88856   3.89011   3.89980
 Alpha virt. eigenvalues --    3.90296   3.91088   3.91161   3.91532   3.92752
 Alpha virt. eigenvalues --    3.93055   3.93691   3.94531   3.94828   3.95994
 Alpha virt. eigenvalues --    3.96541   3.96737   3.97644   3.98231   3.98869
 Alpha virt. eigenvalues --    3.99890   4.00258   4.01384   4.01724   4.01969
 Alpha virt. eigenvalues --    4.02370   4.02751   4.03046   4.03506   4.03779
 Alpha virt. eigenvalues --    4.04551   4.04695   4.05208   4.05982   4.06117
 Alpha virt. eigenvalues --    4.07561   4.08115   4.08551   4.08786   4.09290
 Alpha virt. eigenvalues --    4.10039   4.10323   4.10732   4.11241   4.11432
 Alpha virt. eigenvalues --    4.11878   4.12411   4.12688   4.13767   4.13864
 Alpha virt. eigenvalues --    4.14306   4.15186   4.15876   4.16388   4.17540
 Alpha virt. eigenvalues --    4.18009   4.18191   4.19024   4.19664   4.20195
 Alpha virt. eigenvalues --    4.21381   4.21815   4.22178   4.22593   4.23241
 Alpha virt. eigenvalues --    4.23391   4.23520   4.23850   4.25082   4.25500
 Alpha virt. eigenvalues --    4.25705   4.26236   4.26765   4.26818   4.27061
 Alpha virt. eigenvalues --    4.27260   4.27779   4.27810   4.28185   4.28421
 Alpha virt. eigenvalues --    4.28772   4.28912   4.29437   4.29949   4.30240
 Alpha virt. eigenvalues --    4.30519   4.30720   4.31027   4.31375   4.31612
 Alpha virt. eigenvalues --    4.31997   4.32129   4.32707   4.32921   4.33037
 Alpha virt. eigenvalues --    4.33169   4.33316   4.33464   4.33716   4.34341
 Alpha virt. eigenvalues --    4.34485   4.34838   4.35286   4.35904   4.36326
 Alpha virt. eigenvalues --    4.36472   4.36903   4.36966   4.37311   4.37742
 Alpha virt. eigenvalues --    4.38238   4.38524   4.38596   4.39632   4.40061
 Alpha virt. eigenvalues --    4.40859   4.41469   4.42161   4.42342   4.42388
 Alpha virt. eigenvalues --    4.43693   4.44351   4.44644   4.45231   4.46621
 Alpha virt. eigenvalues --    4.46872   4.48274   4.48785   4.49738   4.50187
 Alpha virt. eigenvalues --    4.50691   4.52104   4.52336   4.52463   4.53793
 Alpha virt. eigenvalues --    4.54317   4.54954   4.55643   4.56993   4.57584
 Alpha virt. eigenvalues --    4.58372   4.59034   4.59767   4.60084   4.61622
 Alpha virt. eigenvalues --    4.62937   4.63949   4.65444   4.65797   4.67621
 Alpha virt. eigenvalues --    4.68448   4.68903   4.69733   4.70478   4.71195
 Alpha virt. eigenvalues --    4.71768   4.72862   4.73934   4.74629   4.75099
 Alpha virt. eigenvalues --    4.75320   4.75808   4.76512   4.76636   4.77275
 Alpha virt. eigenvalues --    4.77561   4.78424   4.78584   4.79577   4.80060
 Alpha virt. eigenvalues --    4.80869   4.81545   4.81776   4.83120   4.84607
 Alpha virt. eigenvalues --    4.85247   4.85283   4.85614   4.86021   4.86512
 Alpha virt. eigenvalues --    4.86808   4.87709   4.87917   4.89465   4.90391
 Alpha virt. eigenvalues --    4.91425   4.94638   4.95719   4.96709   4.97229
 Alpha virt. eigenvalues --    4.97378   4.98605   5.00277   5.01649   5.02261
 Alpha virt. eigenvalues --    5.02588   5.02766   5.03266   5.03999   5.04126
 Alpha virt. eigenvalues --    5.05877   5.06209   5.08035   5.08909   5.09114
 Alpha virt. eigenvalues --    5.09634   5.10291   5.10718   5.11193   5.11518
 Alpha virt. eigenvalues --    5.13460   5.14063   5.15828   5.16498   5.17381
 Alpha virt. eigenvalues --    5.19507   5.20023   5.22255   5.22561   5.22754
 Alpha virt. eigenvalues --    5.23770   5.28156   5.29149   5.31151   5.31578
 Alpha virt. eigenvalues --    5.32967   5.33110   5.35086   5.35628   5.36918
 Alpha virt. eigenvalues --    5.37978   5.40571   5.41087   5.41333   5.42057
 Alpha virt. eigenvalues --    5.44009   5.44756   5.46161   5.47600   5.48108
 Alpha virt. eigenvalues --    5.48359   5.49258   5.50227   5.53706   5.55343
 Alpha virt. eigenvalues --    5.55378   5.55489   5.58471   5.58604   5.59456
 Alpha virt. eigenvalues --    5.60302   5.61228   5.62903   5.63077   5.66266
 Alpha virt. eigenvalues --    5.67146   5.68168   5.70618   5.70974   5.72988
 Alpha virt. eigenvalues --    5.75806   5.77043   5.77916   5.78873   5.80185
 Alpha virt. eigenvalues --    5.82172   5.84835   5.91887   5.96934   5.98682
 Alpha virt. eigenvalues --    6.02828   6.03272   6.15903   6.16653   6.22823
 Alpha virt. eigenvalues --    6.32246   6.33135   6.35985   6.63532   6.73560
 Alpha virt. eigenvalues --    6.93688   6.97604   6.97986   7.53072   7.59600
 Alpha virt. eigenvalues --   22.06201  22.09786  22.31086  22.39190  22.41252
 Alpha virt. eigenvalues --   22.50251  22.53429  22.65433  22.65456  22.66352
 Alpha virt. eigenvalues --   22.68998  22.69003  22.72814  22.77671  22.78832
 Alpha virt. eigenvalues --   22.79494  22.81847  22.81915  22.82956  22.84548
 Alpha virt. eigenvalues --   22.84718  22.86714  22.87366  22.87624  22.87878
 Alpha virt. eigenvalues --   22.91938  22.92513  22.92537  22.95722  22.96957
 Alpha virt. eigenvalues --   22.98045  23.01611  23.02527  23.05010  23.11675
 Alpha virt. eigenvalues --   23.15545  23.16827  23.20563  23.32206  23.32843
 Alpha virt. eigenvalues --   23.34243  23.49691  23.53390  23.60259  23.68608
 Alpha virt. eigenvalues --   23.75268  33.42002  44.56449
          Condensed to atoms (all electrons):
 Mulliken charges:
               1
     1  C   -0.255146
     2  C   -0.204742
     3  C    0.017603
     4  C    0.224466
     5  C   -0.336231
     6  C    0.153739
     7  C    0.223064
     8  C    0.019665
     9  C   -0.200161
    10  H    0.187186
    11  C   -0.259549
    12  C    0.158606
    13  C   -0.342692
    14  H    0.187583
    15  H    0.161396
    16  H    0.167940
    17  N    0.009902
    18  C    0.094200
    19  C   -0.034668
    20  C   -0.180910
    21  C   -0.254844
    22  C    0.101788
    23  C   -0.124153
    24  H    0.162053
    25  C   -0.139891
    26  H    0.181251
    27  C   -0.180995
    28  C   -0.214995
    29  H    0.165651
    30  C   -0.167508
    31  H    0.167076
    32  H    0.162787
    33  H    0.163155
    34  H    0.166510
    35  H    0.160929
    36  H    0.167791
    37  C    0.112015
    38  C   -0.227084
    39  C   -0.231371
    40  C   -0.231121
    41  H    0.168028
    42  C   -0.228269
    43  H    0.167807
    44  C    0.146401
    45  H    0.168674
    46  H    0.168534
    47  C    0.106599
    48  C   -0.230908
    49  C   -0.231719
    50  C   -0.175266
    51  H    0.170596
    52  C   -0.175009
    53  H    0.170520
    54  C   -0.163476
    55  H    0.164132
    56  H    0.164111
    57  H    0.165501
    58  C    0.109205
    59  C   -0.228882
    60  C   -0.230717
    61  C   -0.228829
    62  H    0.168301
    63  C   -0.228495
    64  H    0.168240
    65  C    0.145803
    66  H    0.168684
    67  H    0.168545
    68  C    0.107248
    69  C   -0.231743
    70  C   -0.231386
    71  C   -0.174971
    72  H    0.170561
    73  C   -0.175464
    74  H    0.170676
    75  C   -0.163259
    76  H    0.164124
    77  H    0.164155
    78  H    0.165491
    79  O   -0.263838
 Sum of Mulliken charges =  -0.00000
 Mulliken charges with hydrogens summed into heavy atoms:
               1
     1  C   -0.087355
     2  C   -0.017159
     3  C    0.017603
     4  C    0.224466
     5  C   -0.174836
     6  C    0.153739
     7  C    0.223064
     8  C    0.019665
     9  C   -0.012975
    11  C   -0.091609
    12  C    0.158606
    13  C   -0.181763
    17  N    0.009902
    18  C    0.094200
    19  C   -0.034668
    20  C   -0.018857
    21  C   -0.073593
    22  C    0.101788
    23  C    0.041498
    25  C    0.027185
    27  C   -0.018208
    28  C   -0.051840
    30  C   -0.000999
    37  C    0.112015
    38  C   -0.059056
    39  C   -0.063565
    40  C   -0.062447
    42  C   -0.059735
    44  C    0.146401
    47  C    0.106599
    48  C   -0.060313
    49  C   -0.061199
    50  C   -0.011133
    52  C   -0.010898
    54  C    0.002025
    58  C    0.109205
    59  C   -0.060581
    60  C   -0.062477
    61  C   -0.060145
    63  C   -0.059950
    65  C    0.145803
    68  C    0.107248
    69  C   -0.061182
    70  C   -0.060711
    71  C   -0.010846
    73  C   -0.011308
    75  C    0.002232
    79  O   -0.263838
 APT charges:
               1
     1  C   -0.088977
     2  C   -0.255033
     3  C    0.915771
     4  C    0.608743
     5  C   -0.098808
     6  C   -0.063308
     7  C    0.612220
     8  C    0.912871
     9  C   -0.254184
    10  H    0.093989
    11  C   -0.090702
    12  C   -0.060243
    13  C   -0.104145
    14  H    0.094358
    15  H    0.106679
    16  H    0.076388
    17  N   -1.838203
    18  C    0.488988
    19  C   -0.069711
[...]
 Alpha virt. eigenvalues --    2.38592   2.39550   2.39820   2.40078   2.40626
 Alpha virt. eigenvalues --    2.41360   2.41617   2.42083   2.43508   2.44977
 Alpha virt. eigenvalues --    2.45190   2.45455   2.46032   2.46383   2.46784
 Alpha virt. eigenvalues --    2.47119   2.47941   2.49850   2.50128   2.50164
 Alpha virt. eigenvalues --    2.51123   2.51920   2.51966   2.52524   2.53242
 Alpha virt. eigenvalues --    2.53355   2.54013   2.54105   2.54631   2.55060
 Alpha virt. eigenvalues --    2.55476   2.56107   2.56388   2.56792   2.57318
 Alpha virt. eigenvalues --    2.57911   2.58275   2.59322   2.59849   2.60029
 Alpha virt. eigenvalues --    2.60715   2.61755   2.62027   2.62313   2.62918
 Alpha virt. eigenvalues --    2.63123   2.63883   2.64498   2.64662   2.65348
 Alpha virt. eigenvalues --    2.65861   2.65975   2.66146   2.66507   2.66841
 Alpha virt. eigenvalues --    2.67387   2.67852   2.68118   2.68802   2.69011
 Alpha virt. eigenvalues --    2.69167   2.69394   2.69500   2.69713   2.70154
 Alpha virt. eigenvalues --    2.70431   2.70443   2.70749   2.71589   2.71786
 Alpha virt. eigenvalues --    2.72470   2.72787   2.72895   2.73404   2.73570
 Alpha virt. eigenvalues --    2.73839   2.74069   2.74359   2.74564   2.74836
 Alpha virt. eigenvalues --    2.75088   2.75266   2.75288   2.75363   2.75468
 Alpha virt. eigenvalues --    2.75763   2.75986   2.76145   2.76346   2.76643
 Alpha virt. eigenvalues --    2.76874   2.77274   2.77563   2.77827   2.78039
 Alpha virt. eigenvalues --    2.78393   2.78711   2.79160   2.79337   2.79555
 Alpha virt. eigenvalues --    2.79990   2.80125   2.80226   2.80471   2.80667
 Alpha virt. eigenvalues --    2.80994   2.81511   2.81643   2.82052   2.82240
 Alpha virt. eigenvalues --    2.82556   2.82806   2.83010   2.83230   2.83318
 Alpha virt. eigenvalues --    2.83957   2.84142   2.84273   2.84640   2.84773
 Alpha virt. eigenvalues --    2.85019   2.85231   2.85624   2.85674   2.86190
 Alpha virt. eigenvalues --    2.86328   2.86530   2.86682   2.87045   2.87165
 Alpha virt. eigenvalues --    2.87734   2.88063   2.88380   2.88616   2.89046
 Alpha virt. eigenvalues --    2.89174   2.89602   2.89813   2.90133   2.90166
 Alpha virt. eigenvalues --    2.90382   2.90613   2.90746   2.91019   2.91030
 Alpha virt. eigenvalues --    2.91516   2.91723   2.91943   2.92401   2.92707
 Alpha virt. eigenvalues --    2.92868   2.92979   2.93250   2.93678   2.94036
 Alpha virt. eigenvalues --    2.94133   2.94332   2.94488   2.94524   2.94709
 Alpha virt. eigenvalues --    2.94821   2.95026   2.95347   2.95646   2.95813
 Alpha virt. eigenvalues --    2.96532   2.97043   2.97502   2.97799   2.97839
 Alpha virt. eigenvalues --    2.98170   2.98334   2.98691   2.98898   3.00038
 Alpha virt. eigenvalues --    3.00075   3.00361   3.00784   3.00858   3.01254
 Alpha virt. eigenvalues --    3.01962   3.02300   3.02578   3.03413   3.03708
 Alpha virt. eigenvalues --    3.04282   3.04625   3.04742   3.05164   3.05525
 Alpha virt. eigenvalues --    3.05973   3.06241   3.06992   3.07483   3.07993
 Alpha virt. eigenvalues --    3.08092   3.08672   3.08943   3.09111   3.09158
 Alpha virt. eigenvalues --    3.09414   3.09666   3.09900   3.10288   3.10592
 Alpha virt. eigenvalues --    3.10676   3.11915   3.12025   3.12249   3.12501
 Alpha virt. eigenvalues --    3.12577   3.12812   3.12918   3.13369   3.13996
 Alpha virt. eigenvalues --    3.14338   3.14557   3.14872   3.15219   3.15532
 Alpha virt. eigenvalues --    3.16579   3.16728   3.17480   3.17685   3.17737
 Alpha virt. eigenvalues --    3.17866   3.18164   3.18409   3.18862   3.19071
 Alpha virt. eigenvalues --    3.19411   3.19457   3.20035   3.20453   3.20865
 Alpha virt. eigenvalues --    3.21257   3.21614   3.21850   3.21930   3.22435
 Alpha virt. eigenvalues --    3.22515   3.22843   3.23028   3.23081   3.23683
 Alpha virt. eigenvalues --    3.23772   3.23855   3.24272   3.24418   3.24683
 Alpha virt. eigenvalues --    3.24915   3.25368   3.25688   3.25860   3.26255
 Alpha virt. eigenvalues --    3.26365   3.26797   3.27226   3.27253   3.27435
 Alpha virt. eigenvalues --    3.27742   3.27841   3.27960   3.28316   3.28412
 Alpha virt. eigenvalues --    3.28512   3.28783   3.28965   3.29272   3.29700
 Alpha virt. eigenvalues --    3.29990   3.30264   3.30670   3.31938   3.32335
 Alpha virt. eigenvalues --    3.32497   3.32956   3.33262   3.33565   3.34066
 Alpha virt. eigenvalues --    3.34375   3.34410   3.34794   3.34915   3.35018
 Alpha virt. eigenvalues --    3.35282   3.35603   3.35687   3.36260   3.36310
 Alpha virt. eigenvalues --    3.36628   3.36769   3.37157   3.37692   3.38023
 Alpha virt. eigenvalues --    3.38664   3.38954   3.39082   3.39607   3.39845
 Alpha virt. eigenvalues --    3.40022   3.40228   3.40411   3.40663   3.40911
 Alpha virt. eigenvalues --    3.41128   3.41490   3.41695   3.41931   3.42064
 Alpha virt. eigenvalues --    3.42264   3.42348   3.42809   3.42864   3.43811
 Alpha virt. eigenvalues --    3.44040   3.44240   3.44605   3.44982   3.45284
 Alpha virt. eigenvalues --    3.45427   3.45656   3.45883   3.45966   3.46132
 Alpha virt. eigenvalues --    3.46586   3.47120   3.47176   3.47421   3.47708
 Alpha virt. eigenvalues --    3.47867   3.48088   3.48140   3.48924   3.49241
 Alpha virt. eigenvalues --    3.49707   3.49829   3.50248   3.50352   3.50556
 Alpha virt. eigenvalues --    3.50749   3.50930   3.51193   3.51265   3.51493
 Alpha virt. eigenvalues --    3.51756   3.52112   3.52306   3.52530   3.52837
 Alpha virt. eigenvalues --    3.53178   3.53585   3.53752   3.53919   3.54208
 Alpha virt. eigenvalues --    3.54351   3.54739   3.54827   3.54893   3.55105
 Alpha virt. eigenvalues --    3.55380   3.55539   3.55621   3.55801   3.56886
 Alpha virt. eigenvalues --    3.57129   3.57492   3.58158   3.58238   3.58392
 Alpha virt. eigenvalues --    3.58898   3.59010   3.59380   3.59692   3.59945
 Alpha virt. eigenvalues --    3.60715   3.60855   3.61225   3.61384   3.62160
 Alpha virt. eigenvalues --    3.62355   3.62602   3.62791   3.63113   3.63383
 Alpha virt. eigenvalues --    3.64153   3.64204   3.64317   3.64656   3.65086
 Alpha virt. eigenvalues --    3.65365   3.65481   3.65611   3.65825   3.66074
 Alpha virt. eigenvalues --    3.66583   3.66963   3.67176   3.67657   3.67880
 Alpha virt. eigenvalues --    3.68200   3.68807   3.68897   3.69340   3.69978
 Alpha virt. eigenvalues --    3.70234   3.70950   3.71297   3.71622   3.71735
 Alpha virt. eigenvalues --    3.72573   3.72830   3.73226   3.73737   3.74408
 Alpha virt. eigenvalues --    3.75164   3.75290   3.75830   3.76003   3.76817
 Alpha virt. eigenvalues --    3.77134   3.77852   3.78387   3.78518   3.78940
 Alpha virt. eigenvalues --    3.80228   3.80958   3.81205   3.82179   3.83896
 Alpha virt. eigenvalues --    3.84524   3.85008   3.85481   3.85850   3.86779
 Alpha virt. eigenvalues --    3.87502   3.87843   3.88857   3.89011   3.89980
 Alpha virt. eigenvalues --    3.90297   3.91089   3.91162   3.91533   3.92753
 Alpha virt. eigenvalues --    3.93056   3.93691   3.94531   3.94828   3.95994
 Alpha virt. eigenvalues --    3.96539   3.96738   3.97644   3.98231   3.98871
 Alpha virt. eigenvalues --    3.99890   4.00258   4.01385   4.01724   4.01969
 Alpha virt. eigenvalues --    4.02369   4.02751   4.03046   4.03507   4.03778
 Alpha virt. eigenvalues --    4.04550   4.04695   4.05209   4.05982   4.06117
 Alpha virt. eigenvalues --    4.07561   4.08115   4.08552   4.08786   4.09290
 Alpha virt. eigenvalues --    4.10040   4.10323   4.10732   4.11241   4.11432
 Alpha virt. eigenvalues --    4.11879   4.12412   4.12689   4.13767   4.13864
 Alpha virt. eigenvalues --    4.14306   4.15187   4.15874   4.16388   4.17539
 Alpha virt. eigenvalues --    4.18010   4.18192   4.19028   4.19664   4.20195
 Alpha virt. eigenvalues --    4.21381   4.21815   4.22178   4.22593   4.23241
 Alpha virt. eigenvalues --    4.23391   4.23520   4.23850   4.25082   4.25501
 Alpha virt. eigenvalues --    4.25706   4.26236   4.26765   4.26819   4.27061
 Alpha virt. eigenvalues --    4.27260   4.27779   4.27811   4.28185   4.28422
 Alpha virt. eigenvalues --    4.28772   4.28913   4.29437   4.29950   4.30241
 Alpha virt. eigenvalues --    4.30519   4.30720   4.31027   4.31375   4.31613
 Alpha virt. eigenvalues --    4.31997   4.32129   4.32707   4.32921   4.33037
 Alpha virt. eigenvalues --    4.33169   4.33317   4.33465   4.33716   4.34342
 Alpha virt. eigenvalues --    4.34485   4.34838   4.35286   4.35904   4.36326
 Alpha virt. eigenvalues --    4.36472   4.36903   4.36966   4.37311   4.37742
 Alpha virt. eigenvalues --    4.38238   4.38524   4.38596   4.39632   4.40061
 Alpha virt. eigenvalues --    4.40859   4.41470   4.42161   4.42342   4.42388
 Alpha virt. eigenvalues --    4.43694   4.44352   4.44644   4.45232   4.46621
 Alpha virt. eigenvalues --    4.46872   4.48275   4.48786   4.49738   4.50187
 Alpha virt. eigenvalues --    4.50691   4.52105   4.52336   4.52463   4.53793
 Alpha virt. eigenvalues --    4.54318   4.54955   4.55643   4.56993   4.57585
 Alpha virt. eigenvalues --    4.58373   4.59034   4.59766   4.60081   4.61621
 Alpha virt. eigenvalues --    4.62937   4.63948   4.65444   4.65797   4.67620
 Alpha virt. eigenvalues --    4.68448   4.68903   4.69733   4.70478   4.71195
 Alpha virt. eigenvalues --    4.71769   4.72862   4.73935   4.74629   4.75099
 Alpha virt. eigenvalues --    4.75320   4.75809   4.76512   4.76636   4.77275
 Alpha virt. eigenvalues --    4.77561   4.78424   4.78584   4.79577   4.80060
 Alpha virt. eigenvalues --    4.80870   4.81545   4.81776   4.83121   4.84608
 Alpha virt. eigenvalues --    4.85248   4.85284   4.85615   4.86021   4.86512
 Alpha virt. eigenvalues --    4.86808   4.87710   4.87918   4.89465   4.90392
 Alpha virt. eigenvalues --    4.91425   4.94639   4.95720   4.96709   4.97230
 Alpha virt. eigenvalues --    4.97379   4.98606   5.00277   5.01650   5.02261
 Alpha virt. eigenvalues --    5.02589   5.02766   5.03265   5.03999   5.04127
 Alpha virt. eigenvalues --    5.05877   5.06209   5.08037   5.08910   5.09114
 Alpha virt. eigenvalues --    5.09635   5.10291   5.10719   5.11194   5.11519
 Alpha virt. eigenvalues --    5.13460   5.14064   5.15828   5.16499   5.17381
 Alpha virt. eigenvalues --    5.19507   5.20024   5.22255   5.22561   5.22755
 Alpha virt. eigenvalues --    5.23770   5.28156   5.29149   5.31152   5.31578
 Alpha virt. eigenvalues --    5.32967   5.33110   5.35087   5.35630   5.36919
 Alpha virt. eigenvalues --    5.37978   5.40571   5.41087   5.41334   5.42057
 Alpha virt. eigenvalues --    5.44009   5.44756   5.46161   5.47597   5.48106
 Alpha virt. eigenvalues --    5.48356   5.49256   5.50228   5.53706   5.55347
 Alpha virt. eigenvalues --    5.55382   5.55489   5.58481   5.58605   5.59454
 Alpha virt. eigenvalues --    5.60303   5.61229   5.62903   5.63076   5.66267
 Alpha virt. eigenvalues --    5.67146   5.68162   5.70618   5.70973   5.72989
 Alpha virt. eigenvalues --    5.75807   5.77042   5.77915   5.78872   5.80185
 Alpha virt. eigenvalues --    5.82175   5.84838   5.91888   5.96934   5.98683
 Alpha virt. eigenvalues --    6.02829   6.03273   6.15903   6.16654   6.22824
 Alpha virt. eigenvalues --    6.32247   6.33135   6.35986   6.63533   6.73560
 Alpha virt. eigenvalues --    6.93689   6.97605   6.97987   7.53073   7.59601
 Alpha virt. eigenvalues --   22.06201  22.09786  22.31086  22.39190  22.41252
 Alpha virt. eigenvalues --   22.50251  22.53429  22.65433  22.65456  22.66352
 Alpha virt. eigenvalues --   22.68998  22.69004  22.72815  22.77672  22.78832
 Alpha virt. eigenvalues --   22.79494  22.81847  22.81915  22.82957  22.84548
 Alpha virt. eigenvalues --   22.84719  22.86714  22.87366  22.87624  22.87878
 Alpha virt. eigenvalues --   22.91939  22.92513  22.92537  22.95722  22.96957
 Alpha virt. eigenvalues --   22.98045  23.01611  23.02527  23.05011  23.11676
 Alpha virt. eigenvalues --   23.15545  23.16827  23.20564  23.32207  23.32843
 Alpha virt. eigenvalues --   23.34243  23.49692  23.53391  23.60260  23.68608
 Alpha virt. eigenvalues --   23.75269  33.42003  44.56449
          Condensed to atoms (all electrons):
 Mulliken charges:
               1
     1  C   -0.255158
     2  C   -0.204758
     3  C    0.017607
     4  C    0.224456
     5  C   -0.336220
     6  C    0.153817
     7  C    0.223078
     8  C    0.019648
     9  C   -0.200235
    10  H    0.187183
    11  C   -0.259545
    12  C    0.158711
    13  C   -0.342707
    14  H    0.187589
    15  H    0.161394
    16  H    0.167944
    17  N    0.010003
    18  C    0.094175
    19  C   -0.034769
    20  C   -0.180890
    21  C   -0.254820
    22  C    0.101810
    23  C   -0.124161
    24  H    0.162060
    25  C   -0.139856
    26  H    0.181276
    27  C   -0.181031
    28  C   -0.214976
    29  H    0.165645
    30  C   -0.167488
    31  H    0.167073
    32  H    0.162768
    33  H    0.163148
    34  H    0.166508
    35  H    0.160926
    36  H    0.167781
    37  C    0.111931
    38  C   -0.227076
    39  C   -0.231387
    40  C   -0.231138
    41  H    0.168026
    42  C   -0.228253
    43  H    0.167822
    44  C    0.146447
    45  H    0.168674
    46  H    0.168524
    47  C    0.106555
    48  C   -0.230915
    49  C   -0.231693
    50  C   -0.175249
    51  H    0.170593
    52  C   -0.175014
    53  H    0.170536
    54  C   -0.163493
    55  H    0.164133
    56  H    0.164108
    57  H    0.165499
    58  C    0.109130
    59  C   -0.228885
    60  C   -0.230703
    61  C   -0.228796
    62  H    0.168309
    63  C   -0.228486
    64  H    0.168239
    65  C    0.145782
    66  H    0.168685
    67  H    0.168542
    68  C    0.107218
    69  C   -0.231730
    70  C   -0.231384
    71  C   -0.174972
    72  H    0.170552
    73  C   -0.175440
    74  H    0.170662
    75  C   -0.163265
    76  H    0.164120
    77  H    0.164156
    78  H    0.165494
    79  O   -0.263846
 Sum of Mulliken charges =  -0.00000
 Mulliken charges with hydrogens summed into heavy atoms:
               1
     1  C   -0.087377
     2  C   -0.017168
     3  C    0.017607
     4  C    0.224456
     5  C   -0.174827
     6  C    0.153817
     7  C    0.223078
     8  C    0.019648
     9  C   -0.013052
    11  C   -0.091602
    12  C    0.158711
    13  C   -0.181780
    17  N    0.010003
    18  C    0.094175
    19  C   -0.034769
    20  C   -0.018830
    21  C   -0.073545
    22  C    0.101810
    23  C    0.041484
    25  C    0.027217
    27  C   -0.018263
    28  C   -0.051828
    30  C   -0.000980
    37  C    0.111931
    38  C   -0.059050
    39  C   -0.063565
    40  C   -0.062463
    42  C   -0.059729
    44  C    0.146447
    47  C    0.106555
    48  C   -0.060322
    49  C   -0.061157
    50  C   -0.011116
    52  C   -0.010906
    54  C    0.002007
    58  C    0.109130
    59  C   -0.060576
    60  C   -0.062463
    61  C   -0.060111
    63  C   -0.059943
    65  C    0.145782
    68  C    0.107218
    69  C   -0.061178
    70  C   -0.060722
    71  C   -0.010852
    73  C   -0.011284
    75  C    0.002228
    79  O   -0.263846
 Electronic spatial extent (au):  <R**2>=          54839.7173
 Charge=             -0.0000 electrons
 Dipole moment (field-independent basis, Debye):
    X=              0.0011    Y=              3.6875    Z=              0.1622  Tot=              3.6910
 Quadrupole moment (field-independent basis, Debye-Ang):
   XX=           -261.0557   YY=           -236.4390   ZZ=           -261.9827
   XY=              0.4330   XZ=             -7.4594   YZ=             -2.9584
 Traceless Quadrupole moment (field-independent basis, Debye-Ang):
   XX=             -7.8965   YY=             16.7201   ZZ=             -8.8236
   XY=              0.4330   XZ=             -7.4594   YZ=             -2.9584
 Octapole moment (field-independent basis, Debye-Ang**2):
  XXX=             24.7919  YYY=            232.9512  ZZZ=             22.2950  XYY=            -12.6439
  XXY=           -198.0532  XXZ=             11.2475  XZZ=              1.4605  YZZ=             23.5269
  YYZ=             -8.1709  XYZ=            -71.8737
 Hexadecapole moment (field-independent basis, Debye-Ang**3):
 XXXX=         -53170.6053 YYYY=         -16331.0724 ZZZZ=          -2059.1681 XXXY=              5.5075
 XXXZ=          -1377.7177 YYYX=            102.8333 YYYZ=             15.0874 ZZZX=            -19.9156
 ZZZY=             26.0003 XXYY=         -11526.7477 XXZZ=          -9419.1360 YYZZ=          -2989.6566
 XXYZ=           -123.1592 YYXZ=            433.3256 ZZXY=            -28.0814
 N-N= 4.905760622373D+03 E-N=-1.422909316001D+04  KE= 1.893237056194D+03
 Leave Link  601 at Sun Mar 28 11:57:33 2021, MaxMem=  5242880000 cpu:        10.7
 (Enter /opt/nce/packages/global/g09/l9999.exe)
 1\1\GINC-CN065\SP\RCAM-B3LYP TD-FC\Gen\C46H31N1O1\PNG4RJV\28-Mar-2021\
 0\\#p cam-b3lyp chkbasis geom=allcheck Guess=Read int=ultrafine scrf=(
 SMD,solvent=n,n-dimethylacetamide) td=(NStates=30) EmpiricalDispersion
 =GD3BJ\\Title\\0,1\C,3.607535,1.459031,-0.43817\C,2.439589,2.192873,-0
 .569775\C,1.20372,1.565482,-0.613276\C,1.179569,0.173653,-0.513597\C,2
 .335813,-0.554381,-0.375915\C,3.581358,0.075073,-0.338206\C,-1.176908,
 0.173741,-0.533303\C,-1.199238,1.565955,-0.627227\C,-2.434865,2.194405
 ,-0.592442\H,-2.486998,3.270178,-0.675604\C,-3.60412,1.46164,-0.466077
 \C,-3.579294,0.077686,-0.36707\C,-2.334637,-0.553375,-0.402927\H,2.492
 354,3.269738,-0.636519\H,2.253237,-1.631584,-0.323039\H,-4.548545,1.98
 8312,-0.462962\N,0.003212,2.26251,-0.748603\C,0.004052,3.6863,-0.81699
 3\C,-0.003065,4.44445,0.38297\C,0.012045,4.300132,-2.033292\C,-0.01108
 1,3.844215,1.6623\C,-0.001668,5.857582,0.285008\C,0.013356,5.704932,-2
 .123952\H,0.017291,3.695185,-2.930519\C,-0.017365,4.614555,2.787875\H,
 -0.012029,2.765917,1.7412\C,-0.008418,6.625812,1.471918\C,0.00666,6.46
 3857,-0.992182\H,0.01973,6.174229,-3.098666\C,-0.016026,6.020602,2.693
 514\H,-0.023353,4.145367,3.763123\H,-0.007272,7.70567,1.390065\H,0.007
 633,7.545042,-1.053192\H,-0.020988,6.616967,3.596572\H,-2.251909,-1.62
 8288,-0.315148\H,4.549138,1.988555,-0.392314\C,4.823033,-0.712325,-0.1
 92353\C,4.850093,-1.886928,0.556493\C,6.009704,-0.303649,-0.797462\C,6
 .013395,-2.619493,0.695896\H,3.950555,-2.230749,1.049971\C,7.172726,-1
 .036199,-0.657805\H,6.024089,0.596446,-1.397796\C,7.199473,-2.209564,0
 .091983\H,5.994122,-3.531709,1.277678\H,8.077795,-0.682139,-1.133591\C
 ,8.445555,-2.99333,0.241101\C,8.740371,-3.646904,1.436249\C,9.355171,-
 3.096628,-0.809852\C,9.906631,-4.379227,1.576422\H,8.058406,-3.567355,
 2.272651\C,10.521453,-3.829041,-0.670326\H,9.140756,-2.612601,-1.75370
 4\C,10.802753,-4.474053,0.523571\H,10.119009,-4.873196,2.516043\H,11.2
 10796,-3.901494,-1.501922\H,11.714663,-5.046638,0.632875\C,-4.822279,-
 0.709335,-0.231171\C,-4.942886,-1.973975,-0.80312\C,-5.915523,-0.21108
 1,0.47446\C,-6.107073,-2.707615,-0.676828\H,-4.118237,-2.390027,-1.366
 942\C,-7.078981,-0.945317,0.601558\H,-5.853659,0.762348,0.942963\C,-7.
 199523,-2.208942,0.028432\H,-6.160942,-3.6905,-1.126275\H,-7.911172,-0
 .522549,1.149018\C,-8.445796,-2.994426,0.166274\C,-8.902897,-3.800062,
 -0.875054\C,-9.193249,-2.946952,1.3416\C,-10.069272,-4.534206,-0.74556
 1\H,-8.349254,-3.839834,-1.80392\C,-10.359366,-3.681336,1.471954\H,-8.
 849618,-2.341974,2.170388\C,-10.803052,-4.478486,0.428751\H,-10.409775
 ,-5.148057,-1.569704\H,-10.920741,-3.635276,2.396435\H,-11.714993,-5.0
 52464,0.530165\O,0.001733,-0.528543,-0.581815\\Version=ES64L-G09RevE.0
 1\State=1-A\HF=-1901.3371799\RMSD=7.406e-09\PG=C01 [X(C46H31N1O1)]\\@


 ONE THORN OF EXPERIENCE IS WORTH A WHOLE WILDERNESS OF
 WARNING....  LOWELL - AMONG MY BOOKS
 Job cpu time:       5 days  1 hours  9 minutes 58.6 seconds.
 File lengths (MBytes):  RWF=  12442 Int=      0 D2E=      0 Chk=   2432 Scr=      1
 Normal termination of Gaussian 09 at Sun Mar 28 11:57:37 2021.
