
                                 *****************
                                 * O   R   C   A *
                                 *****************

                                            #,                                       
                                            ###                                      
                                            ####                                     
                                            #####                                    
                                            ######                                   
                                           ########,                                 
                                     ,,################,,,,,                         
                               ,,#################################,,                 
                          ,,##########################################,,             
                       ,#########################################, ''#####,          
                    ,#############################################,,   '####,        
                  ,##################################################,,,,####,       
                ,###########''''           ''''###############################       
              ,#####''   ,,,,##########,,,,          '''####'''          '####       
            ,##' ,,,,###########################,,,                        '##       
           ' ,,###''''                  '''############,,,                           
         ,,##''                                '''############,,,,        ,,,,,,###''
      ,#''                                            '''#######################'''  
     '                                                          ''''####''''         
             ,#######,   #######,   ,#######,      ##                                
            ,#'     '#,  ##    ##  ,#'     '#,    #''#        ######   ,####,        
            ##       ##  ##   ,#'  ##            #'  '#       #        #'  '#        
            ##       ##  #######   ##           ,######,      #####,   #    #        
            '#,     ,#'  ##    ##  '#,     ,#' ,#      #,         ##   #,  ,#        
             '#######'   ##     ##  '#######'  #'      '#     #####' # '####'        



                  #######################################################
                  #                        -***-                        #
                  #          Department of theory and spectroscopy      #
                  #    Directorship and core code : Frank Neese         #
                  #        Max Planck Institute fuer Kohlenforschung    #
                  #                Kaiser Wilhelm Platz 1               #
                  #                 D-45470 Muelheim/Ruhr               #
                  #                      Germany                        #
                  #                                                     #
                  #                  All rights reserved                #
                  #                        -***-                        #
                  #######################################################


                         Program Version 5.0.2 -  RELEASE  -


 With contributions from (in alphabetic order):
   Daniel Aravena         : Magnetic Suceptibility
   Michael Atanasov       : Ab Initio Ligand Field Theory (pilot matlab implementation)
   Alexander A. Auer      : GIAO ZORA, VPT2 properties, NMR spectrum
   Ute Becker             : Parallelization
   Giovanni Bistoni       : ED, misc. LED, open-shell LED, HFLD
   Martin Brehm           : Molecular dynamics
   Dmytro Bykov           : SCF Hessian
   Vijay G. Chilkuri      : MRCI spin determinant printing, contributions to CSF-ICE
   Dipayan Datta          : RHF DLPNO-CCSD density
   Achintya Kumar Dutta   : EOM-CC, STEOM-CC
   Dmitry Ganyushin       : Spin-Orbit,Spin-Spin,Magnetic field MRCI
   Miquel Garcia          : C-PCM and meta-GGA Hessian, CC/C-PCM, Gaussian charge scheme
   Yang Guo               : DLPNO-NEVPT2, F12-NEVPT2, CIM, IAO-localization
   Andreas Hansen         : Spin unrestricted coupled pair/coupled cluster methods
   Benjamin Helmich-Paris : MC-RPA, TRAH-SCF, COSX integrals
   Lee Huntington         : MR-EOM, pCC
   Robert Izsak           : Overlap fitted RIJCOSX, COSX-SCS-MP3, EOM
   Marcus Kettner         : VPT2
   Christian Kollmar      : KDIIS, OOCD, Brueckner-CCSD(T), CCSD density, CASPT2, CASPT2-K
   Simone Kossmann        : Meta GGA functionals, TD-DFT gradient, OOMP2, MP2 Hessian
   Martin Krupicka        : Initial AUTO-CI
   Lucas Lang             : DCDCAS
   Marvin Lechner         : AUTO-CI (C++ implementation), FIC-MRCC
   Dagmar Lenk            : GEPOL surface, SMD
   Dimitrios Liakos       : Extrapolation schemes; Compound Job, initial MDCI parallelization
   Dimitrios Manganas     : Further ROCIS development; embedding schemes
   Dimitrios Pantazis     : SARC Basis sets
   Anastasios Papadopoulos: AUTO-CI, single reference methods and gradients
   Taras Petrenko         : DFT Hessian,TD-DFT gradient, ASA, ECA, R-Raman, ABS, FL, XAS/XES, NRVS
   Peter Pinski           : DLPNO-MP2, DLPNO-MP2 Gradient
   Christoph Reimann      : Effective Core Potentials
   Marius Retegan         : Local ZFS, SOC
   Christoph Riplinger    : Optimizer, TS searches, QM/MM, DLPNO-CCSD(T), (RO)-DLPNO pert. Triples
   Tobias Risthaus        : Range-separated hybrids, TD-DFT gradient, RPA, STAB
   Michael Roemelt        : Original ROCIS implementation
   Masaaki Saitow         : Open-shell DLPNO-CCSD energy and density
   Barbara Sandhoefer     : DKH picture change effects
   Avijit Sen             : IP-ROCIS
   Kantharuban Sivalingam : CASSCF convergence, NEVPT2, FIC-MRCI
   Bernardo de Souza      : ESD, SOC TD-DFT
   Georgi Stoychev        : AutoAux, RI-MP2 NMR, DLPNO-MP2 response
   Willem Van den Heuvel  : Paramagnetic NMR
   Boris Wezisla          : Elementary symmetry handling
   Frank Wennmohs         : Technical directorship


 We gratefully acknowledge several colleagues who have allowed us to
 interface, adapt or use parts of their codes:
   Stefan Grimme, W. Hujo, H. Kruse, P. Pracht,  : VdW corrections, initial TS optimization,
                  C. Bannwarth, S. Ehlert          DFT functionals, gCP, sTDA/sTD-DF
   Ed Valeev, F. Pavosevic, A. Kumar             : LibInt (2-el integral package), F12 methods
   Garnet Chan, S. Sharma, J. Yang, R. Olivares  : DMRG
   Ulf Ekstrom                                   : XCFun DFT Library
   Mihaly Kallay                                 : mrcc  (arbitrary order and MRCC methods)
   Jiri Pittner, Ondrej Demel                    : Mk-CCSD
   Frank Weinhold                                : gennbo (NPA and NBO analysis)
   Christopher J. Cramer and Donald G. Truhlar   : smd solvation model
   Lars Goerigk                                  : TD-DFT with DH, B97 family of functionals
   V. Asgeirsson, H. Jonsson                     : NEB implementation
   FAccTs GmbH                                   : IRC, NEB, NEB-TS, DLPNO-Multilevel, CI-OPT
                                                   MM, QMMM, 2- and 3-layer-ONIOM, Crystal-QMMM,
                                                   LR-CPCM, SF, NACMEs, symmetry and pop. for TD-DFT,
                                                   nearIR, NL-DFT gradient (VV10), updates on ESD,
                                                   ML-optimized integration grids
   S Lehtola, MJT Oliveira, MAL Marques          : LibXC Library
   Liviu Ungur et al                             : ANISO software


 Your calculation uses the libint2 library for the computation of 2-el integrals
 For citations please refer to: http://libint.valeyev.net

 Your ORCA version has been built with support for libXC version: 5.1.0
 For citations please refer to: https://tddft.org/programs/libxc/

 This ORCA versions uses:
   CBLAS   interface :  Fast vector & matrix operations
   LAPACKE interface :  Fast linear algebra routines
   SCALAPACK package :  Parallel linear algebra routines
   Shared memory     :  Shared parallel matrices
   BLAS/LAPACK       :  OpenBLAS 0.3.15  USE64BITINT DYNAMIC_ARCH NO_AFFINITY Zen SINGLE_THREADED
        Core in use  :  Zen
   Copyright (c) 2011-2014, The OpenBLAS Project


Your calculation utilizes the atom-pairwise dispersion correction
with the Becke-Johnson damping scheme (D3BJ)
Cite in your paper:
S.Grimme, S.Ehrlich, L.Goerigk, J Comput Chem, (2011), 32, 1456–1465 
S.Grimme, J.Antony, S.Ehrlich and H.Krieg, J.Chem.Phys., 132, (2010), 154104 
   

Your calculation utilizes the SMD solvation module
Please cite in your paper:
A.V. Marenich, C.J. Cramer, D.G. Truhlar J. Phys. Chem. B, 113, (2009), 6378 

================================================================================

----- Orbital basis set information -----
Your calculation utilizes the basis: def2-TZVP
   F. Weigend and R. Ahlrichs, Phys. Chem. Chem. Phys. 7, 3297 (2005).

----- AuxJ basis set information -----
Your calculation utilizes the auxiliary basis: def2/J
   F. Weigend, Phys. Chem. Chem. Phys. 8, 1057 (2006).

----- AuxC basis set information -----
Your calculation utilizes the auxiliary basis: def2-TZVP/C
  H-La, Hf-Rn : A. Hellweg, C. Hattig, S. Hofener and W. Klopper, Theor. Chem. Acc. 117, 587 (2007).
        Ce-Lu : J. Chmela and M. E. Harding, Mol. Phys. (2018).

================================================================================
                                        WARNINGS
                       Please study these warnings very carefully!
================================================================================

INFO   : Checking CIS options ...
  ===> : (D) CORRECTION FOUND - SETTING MODE=3
  ===> : JK MODE FOUND - ACTIVATING RI-MP2 CODE
  ===> : MP2 AND CIS FOUND - CHECKING
WARNING: CIS(D) and MP2 runs must have the same orbital window
  ===> : adjusting orbital windows

WARNING: No MP2 level density has been requested!
         To caclulate MP2 level properties use
         %mp2 Density relaxed end
         or
         %mp2 Density unrelaxed end
         Otherwise for double-hybrid DFT only the energy is correct!

WARNING: The frozen-core approximation is turned on by default for 
         the MP2 part of double-hybrid DFT.

WARNING: CIS/ROCIS methods need fully converged wavefunctions
  ===> : Setting SCFConvForced true
         You can overwrite this default with %scf ConvForced false 


INFO   : the flag for use of the SHARK integral package has been found!

================================================================================
                                       INPUT FILE
================================================================================
NAME = POZ_1_M06L_def2TZVP_coords.inp
|  1> %maxcore 3200
|  2> %pal
|  3>  nprocs= 8
|  4> end
|  5> ! RI-B2PLYP D3BJ def2-TZVP def2/J def2-TZVP/C RIJCOSX CPCM TightSCF
|  6> %TDDFT DCORR 4
|  7>    NROOTS   30
|  8> 
|  9>    TDA      FALSE
| 10> END
| 11> 
| 12> %CPCM
| 13>    SMD          TRUE
| 14>    SMDsolvent   "N,N-DIMETHYLACETAMIDE"
| 15> END
| 16>    
| 17> 
| 18> * xyz 0 1
| 19> C                   3.61765600    1.45129200   -0.41710800
| 20> C                   2.44517500    2.18143900   -0.52558900
| 21> C                   1.20333900    1.55532600   -0.48552500
| 22> C                   1.18228700    0.16538700   -0.32119200
| 23> C                   2.34675200   -0.55878600   -0.21041400
| 24> C                   3.60126000    0.06610900   -0.25821900
| 25> C                  -1.17577200    0.16028500   -0.34751100
| 26> C                  -1.19916600    1.55107000   -0.50445000
| 27> C                  -2.44211400    2.17400900   -0.55758300
| 28> H                  -2.48898600    3.24685300   -0.69037300
| 29> C                  -3.61362200    1.44116500   -0.45677800
| 30> C                  -3.59444600    0.05559400   -0.30227300
| 31> C                  -2.33941600   -0.56755200   -0.25157400
| 32> H                   2.49034800    3.25650000   -0.63969400
| 33> H                   2.26194200   -1.63305300   -0.10958300
| 34> H                  -4.55793100    1.96513400   -0.52506800
| 35> N                   0.00174200    2.24955900   -0.59693700
| 36> C                   0.00056200    3.66933500   -0.75726300
| 37> C                  -0.01257000    4.49792300    0.39277600
| 38> C                   0.01230200    4.20580600   -2.01807600
| 39> C                  -0.02431100    3.98392000    1.70735200
| 40> C                  -0.01360100    5.91252700    0.20200000
| 41> C                   0.01123100    5.59906000   -2.19624600
| 42> H                   0.02223200    3.54255500   -2.87410700
| 43> C                  -0.03664200    4.82859300    2.78568100
| 44> H                  -0.02340800    2.91104100    1.85507100
| 45> C                  -0.02656500    6.75075800    1.33821000
| 46> C                  -0.00154100    6.43210700   -1.11033800
| 47> H                   0.02049300    6.00674200   -3.19874000
| 48> C                  -0.03783300    6.22286100    2.60113500
| 49> H                  -0.04550000    4.42197900    3.78909000
| 50> H                  -0.02731400    7.82390600    1.18779900
| 51> H                  -0.00254300    7.50773000   -1.24113500
| 52> H                  -0.04762900    6.87718600    3.46363800
| 53> H                  -2.25341000   -1.63725400   -0.11096500
| 54> H                   4.55950900    1.98342300   -0.43475900
| 55> C                   4.84078100   -0.71276500   -0.14102100
| 56> C                   4.86923200   -1.95495900    0.50335400
| 57> C                   6.04922900   -0.24468200   -0.67036200
| 58> C                   6.03685000   -2.68544600    0.61210500
| 59> H                   3.96230800   -2.35379600    0.94081200
| 60> C                   7.21561100   -0.97650100   -0.56340900
| 61> H                   6.07437000    0.70556800   -1.18913500
| 62> C                   7.24251000   -2.21808800    0.08007100
| 63> H                   6.00838000   -3.64756400    1.10890300
| 64> H                   8.12914900   -0.56883700   -0.97882500
| 65> C                   8.48500700   -2.99905500    0.18939000
| 66> C                   8.69575200   -3.87865400    1.25699800
| 67> C                   9.49513700   -2.88708900   -0.77242100
| 68> C                   9.86576100   -4.61291700    1.35865300
| 69> H                   7.94181600   -3.97236900    2.02898800
| 70> C                  10.66473600   -3.62185200   -0.67084500
| 71> H                   9.35319700   -2.23121800   -1.62254300
| 72> C                  10.85740600   -4.48917500    0.39541600
| 73> H                  10.00665100   -5.28064900    2.19971700
| 74> H                  11.42706600   -3.52191500   -1.43373300
| 75> H                  11.77175500   -5.06351900    0.47480300
| 76> C                  -4.83306400   -0.72638000   -0.19976900
| 77> C                  -4.88328100   -2.07478100   -0.57130100
| 78> C                  -6.01848200   -0.15322100    0.27511300
| 79> C                  -6.05175900   -2.80607500   -0.47613000
| 80> H                  -3.99412900   -2.55906400   -0.95592400
| 81> C                  -7.18513600   -0.88568100    0.37337600
| 82> H                  -6.02355900    0.88365100    0.58764600
| 83> C                  -7.23473800   -2.23287900    0.00039400
| 84> H                  -6.04192000   -3.85004800   -0.76476200
| 85> H                  -8.08117500   -0.39762400    0.73700900
| 86> C                  -8.47747600   -3.01352100    0.10930100
| 87> C                  -8.73236700   -4.09330900   -0.74326900
| 88> C                  -9.44350500   -2.70019400    1.07186600
| 89> C                  -9.90257400   -4.82687200   -0.63782200
| 90> H                  -8.01349600   -4.34802500   -1.51238900
| 91> C                 -10.61287300   -3.43453800    1.17790300
| 92> H                  -9.26604400   -1.88310400    1.76027200
| 93> C                 -10.84975200   -4.50232700    0.32350500
| 94> H                 -10.07880000   -5.65279100   -1.31598500
| 95> H                 -11.34011200   -3.17583000    1.93767700
| 96> H                 -11.76406500   -5.07633400    0.40567900
| 97> O                   0.00409900   -0.53872400   -0.27868500
| 98> *
| 99> 
|100> 
|101>                          ****END OF INPUT****
================================================================================

                       ****************************
                       * Single Point Calculation *
                       ****************************

---------------------------------
CARTESIAN COORDINATES (ANGSTROEM)
---------------------------------
  C      3.617656    1.451292   -0.417108
  C      2.445175    2.181439   -0.525589
  C      1.203339    1.555326   -0.485525
  C      1.182287    0.165387   -0.321192
  C      2.346752   -0.558786   -0.210414
  C      3.601260    0.066109   -0.258219
  C     -1.175772    0.160285   -0.347511
  C     -1.199166    1.551070   -0.504450
  C     -2.442114    2.174009   -0.557583
  H     -2.488986    3.246853   -0.690373
  C     -3.613622    1.441165   -0.456778
  C     -3.594446    0.055594   -0.302273
  C     -2.339416   -0.567552   -0.251574
  H      2.490348    3.256500   -0.639694
  H      2.261942   -1.633053   -0.109583
  H     -4.557931    1.965134   -0.525068
  N      0.001742    2.249559   -0.596937
  C      0.000562    3.669335   -0.757263
  C     -0.012570    4.497923    0.392776
  C      0.012302    4.205806   -2.018076
  C     -0.024311    3.983920    1.707352
  C     -0.013601    5.912527    0.202000
  C      0.011231    5.599060   -2.196246
  H      0.022232    3.542555   -2.874107
  C     -0.036642    4.828593    2.785681
  H     -0.023408    2.911041    1.855071
  C     -0.026565    6.750758    1.338210
  C     -0.001541    6.432107   -1.110338
  H      0.020493    6.006742   -3.198740
  C     -0.037833    6.222861    2.601135
  H     -0.045500    4.421979    3.789090
  H     -0.027314    7.823906    1.187799
  H     -0.002543    7.507730   -1.241135
  H     -0.047629    6.877186    3.463638
  H     -2.253410   -1.637254   -0.110965
  H      4.559509    1.983423   -0.434759
  C      4.840781   -0.712765   -0.141021
  C      4.869232   -1.954959    0.503354
  C      6.049229   -0.244682   -0.670362
  C      6.036850   -2.685446    0.612105
  H      3.962308   -2.353796    0.940812
  C      7.215611   -0.976501   -0.563409
  H      6.074370    0.705568   -1.189135
  C      7.242510   -2.218088    0.080071
  H      6.008380   -3.647564    1.108903
  H      8.129149   -0.568837   -0.978825
  C      8.485007   -2.999055    0.189390
  C      8.695752   -3.878654    1.256998
  C      9.495137   -2.887089   -0.772421
  C      9.865761   -4.612917    1.358653
  H      7.941816   -3.972369    2.028988
  C     10.664736   -3.621852   -0.670845
  H      9.353197   -2.231218   -1.622543
  C     10.857406   -4.489175    0.395416
  H     10.006651   -5.280649    2.199717
  H     11.427066   -3.521915   -1.433733
  H     11.771755   -5.063519    0.474803
  C     -4.833064   -0.726380   -0.199769
  C     -4.883281   -2.074781   -0.571301
  C     -6.018482   -0.153221    0.275113
  C     -6.051759   -2.806075   -0.476130
  H     -3.994129   -2.559064   -0.955924
  C     -7.185136   -0.885681    0.373376
  H     -6.023559    0.883651    0.587646
  C     -7.234738   -2.232879    0.000394
  H     -6.041920   -3.850048   -0.764762
  H     -8.081175   -0.397624    0.737009
  C     -8.477476   -3.013521    0.109301
  C     -8.732367   -4.093309   -0.743269
  C     -9.443505   -2.700194    1.071866
  C     -9.902574   -4.826872   -0.637822
  H     -8.013496   -4.348025   -1.512389
  C    -10.612873   -3.434538    1.177903
  H     -9.266044   -1.883104    1.760272
  C    -10.849752   -4.502327    0.323505
  H    -10.078800   -5.652791   -1.315985
  H    -11.340112   -3.175830    1.937677
  H    -11.764065   -5.076334    0.405679
  O      0.004099   -0.538724   -0.278685

----------------------------
CARTESIAN COORDINATES (A.U.)
----------------------------
  NO LB      ZA    FRAG     MASS         X           Y           Z
   0 C     6.0000    0    12.011    6.836379    2.742544   -0.788220
   1 C     6.0000    0    12.011    4.620711    4.122322   -0.993219
   2 C     6.0000    0    12.011    2.273981    2.939140   -0.917509
   3 C     6.0000    0    12.011    2.234199    0.312536   -0.606965
   4 C     6.0000    0    12.011    4.434719   -1.055953   -0.397625
   5 C     6.0000    0    12.011    6.805395    0.124928   -0.487963
   6 C     6.0000    0    12.011   -2.221887    0.302895   -0.656701
   7 C     6.0000    0    12.011   -2.266095    2.931098   -0.953272
   8 C     6.0000    0    12.011   -4.614927    4.108282   -1.053679
   9 H     1.0000    0     1.008   -4.703502    6.135663   -1.304616
  10 C     6.0000    0    12.011   -6.828756    2.723407   -0.863185
  11 C     6.0000    0    12.011   -6.792519    0.105057   -0.571213
  12 C     6.0000    0    12.011   -4.420856   -1.072518   -0.475406
  13 H     1.0000    0     1.008    4.706076    6.153893   -1.208846
  14 H     1.0000    0     1.008    4.274451   -3.086023   -0.207082
  15 H     1.0000    0     1.008   -8.613241    3.713565   -0.992235
  16 N     7.0000    0    14.007    0.003292    4.251050   -1.128047
  17 C     6.0000    0    12.011    0.001062    6.934038   -1.431020
  18 C     6.0000    0    12.011   -0.023754    8.499843    0.742239
  19 C     6.0000    0    12.011    0.023247    7.947822   -3.813611
  20 C     6.0000    0    12.011   -0.045941    7.528518    3.226428
  21 C     6.0000    0    12.011   -0.025702   11.173057    0.381725
  22 C     6.0000    0    12.011    0.021224   10.580690   -4.150303
  23 H     1.0000    0     1.008    0.042012    6.694459   -5.431275
  24 C     6.0000    0    12.011   -0.069243    9.124718    5.264174
  25 H     1.0000    0     1.008   -0.044235    5.501070    3.505576
  26 C     6.0000    0    12.011   -0.050201   12.757084    2.528850
  27 C     6.0000    0    12.011   -0.002912   12.154921   -2.098235
  28 H     1.0000    0     1.008    0.038726   11.351097   -6.044743
  29 C     6.0000    0    12.011   -0.071494   11.759503    4.915433
  30 H     1.0000    0     1.008   -0.085983    8.356329    7.160342
  31 H     1.0000    0     1.008   -0.051616   14.785040    2.244615
  32 H     1.0000    0     1.008   -0.004806   14.187554   -2.345405
  33 H     1.0000    0     1.008   -0.090006   12.995998    6.545327
  34 H     1.0000    0     1.008   -4.258328   -3.093962   -0.209693
  35 H     1.0000    0     1.008    8.616223    3.748126   -0.821575
  36 C     6.0000    0    12.011    9.147750   -1.346931   -0.266491
  37 C     6.0000    0    12.011    9.201515   -3.694337    0.951201
  38 C     6.0000    0    12.011   11.431386   -0.462382   -1.266801
  39 C     6.0000    0    12.011   11.407993   -5.074757    1.156711
  40 H     1.0000    0     1.008    7.487677   -4.448030    1.777877
  41 C     6.0000    0    12.011   13.635529   -1.845319   -1.064689
  42 H     1.0000    0     1.008   11.478896    1.333330   -2.247139
  43 C     6.0000    0    12.011   13.686360   -4.191579    0.151312
  44 H     1.0000    0     1.008   11.354193   -6.892897    2.095523
  45 H     1.0000    0     1.008   15.361865   -1.074946   -1.849711
  46 C     6.0000    0    12.011   16.034339   -5.667393    0.357895
  47 C     6.0000    0    12.011   16.432590   -7.329594    2.375382
  48 C     6.0000    0    12.011   17.943209   -5.455808   -1.459664
  49 C     6.0000    0    12.011   18.643586   -8.717150    2.567482
  50 H     1.0000    0     1.008   15.007857   -7.506690    3.834232
  51 C     6.0000    0    12.011   20.153430   -6.844308   -1.267713
  52 H     1.0000    0     1.008   17.674981   -4.216391   -3.066162
  53 C     6.0000    0    12.011   20.517524   -8.483311    0.747228
  54 H     1.0000    0     1.008   18.909830   -9.978980    4.156863
  55 H     1.0000    0     1.008   21.594025   -6.655455   -2.709363
  56 H     1.0000    0     1.008   22.245393   -9.568664    0.897248
  57 C     6.0000    0    12.011   -9.133167   -1.372659   -0.377509
  58 C     6.0000    0    12.011   -9.228064   -3.920768   -1.079602
  59 C     6.0000    0    12.011  -11.373283   -0.289546    0.519888
  60 C     6.0000    0    12.011  -11.436167   -5.302713   -0.899755
  61 H     1.0000    0     1.008   -7.547810   -4.835930   -1.806435
  62 C     6.0000    0    12.011  -13.577939   -1.673695    0.705578
  63 H     1.0000    0     1.008  -11.382877    1.669858    1.110490
  64 C     6.0000    0    12.011  -13.671673   -4.219530    0.000745
  65 H     1.0000    0     1.008  -11.417574   -7.275536   -1.445191
  66 H     1.0000    0     1.008  -15.271208   -0.751400    1.392745
  67 C     6.0000    0    12.011  -16.020108   -5.694729    0.206549
  68 C     6.0000    0    12.011  -16.501782   -7.735233   -1.404575
  69 C     6.0000    0    12.011  -17.845638   -5.102627    2.025533
  70 C     6.0000    0    12.011  -18.713153   -9.121466   -1.205309
  71 H     1.0000    0     1.008  -15.143313   -8.216576   -2.858001
  72 C     6.0000    0    12.011  -20.055423   -6.490336    2.225914
  73 H     1.0000    0     1.008  -17.510286   -3.558551    3.326432
  74 C     6.0000    0    12.011  -20.503060   -8.508165    0.611336
  75 H     1.0000    0     1.008  -19.046172  -10.682227   -2.486851
  76 H     1.0000    0     1.008  -21.429706   -6.001449    3.661679
  77 H     1.0000    0     1.008  -22.230861   -9.592881    0.766622
  78 O     8.0000    0    15.999    0.007746   -1.018041   -0.526638

--------------------------------
INTERNAL COORDINATES (ANGSTROEM)
--------------------------------
 C      0   0   0     0.000000000000     0.00000000     0.00000000
 C      1   0   0     1.385494303247     0.00000000     0.00000000
 C      2   1   0     1.391322846704   121.05914102     0.00000000
 C      3   2   1     1.399778177182   117.62313195     0.50130147
 C      4   3   2     1.375745992339   121.29262293   359.65001087
 C      1   2   3     1.394362394296   121.49980942   359.71778936
 C      4   3   2     2.358211391637    90.90970076   179.08191780
 C      7   4   3     1.399807145710    90.90605177   359.67473411
 C      8   7   4     1.391328805177   117.64909951   181.44220101
 H      9   8   7     1.082046402341   119.16370034   180.73080406
 C      9   8   7     1.385515416885   121.04882029     0.07797513
 C     11   9   8     1.394290683481   121.47039687   359.82778861
 C      7   4   3     1.375869894021   147.78601947   181.78788235
 H      2   1   3     1.082042838651   119.77008818   179.76526395
 H      5   4   3     1.082316595988   117.62268152   181.46611635
 H     11   9   8     1.082093584004   118.50044623   181.32454896
 N      3   2   1     1.392195188342   122.93274886   180.30313780
 C     17   3   2     1.428800094083   120.34487976   359.82872067
 C     18  17   3     1.417504929335   119.32862102   270.98250554
 C     18  17   3     1.370251211424   119.49064077    90.97402680
 C     19  18  17     1.411540645843   122.87449087     0.00000000
 C     19  18  17     1.427410600336   118.09069954   180.00754434
 C     20  18  17     1.404600442993   120.33534777   179.99411050
 H     20  18  17     1.082954092684   119.18462476     0.00000000
 C     21  19  18     1.369824062692   120.57461158   179.99350116
 H     21  19  18     1.083000954298   119.19352879     0.00000000
 C     22  19  18     1.412010070345   118.73622387   180.00234305
 C     23  20  18     1.368695222706   120.20492439     0.00000000
 H     23  20  18     1.082259034522   119.41582828   180.00679373
 C     27  22  19     1.368861485344   120.89993794     0.00000000
 H     25  21  19     1.082701727366   119.87085042   180.00447913
 H     27  22  19     1.083637697677   118.43836378   180.00138717
 H     28  23  20     1.083546813637   120.55926696   180.00653635
 H     30  27  22     1.082658114203   120.13250854   179.99487084
 H     13   7   4     1.082326333284   117.68969919   358.75717461
 H      1   2   3     1.081925151095   118.43889107   181.14162658
 C      6   1   2     1.468602188655   121.73748293   180.07800696
 C     37   6   1     1.399669437282   121.63975327   155.32206723
 C     37   6   1     1.399875050808   121.40518040   335.31028878
 C     38  37   6     1.381582364933   121.51100927   180.00133203
 H     38  37   6     1.083028899018   119.72001515   359.18187315
 C     39  37   6     1.381102806779   121.50561663   180.11621194
 H     39  37   6     1.082927771326   119.64292941   359.22907246
 C     40  38  37     1.398248802224   121.46979618   359.83151193
 H     40  38  37     1.083185044038   118.91588832   180.74137826
 H     42  39  37     1.083195304364   118.89018429   180.67288326
 C     44  40  38     1.471617781171   121.49142500   180.32898543
 C     47  44  40     1.399247904229   121.16091213   331.43415898
 C     47  44  40     1.399278171693   121.06266211   151.38430392
 C     48  47  44     1.385062075242   121.09631601   180.00807139
 H     48  47  44     1.083129979929   119.56191560   358.67507869
 C     49  47  44     1.384975151671   121.11581084   180.02004979
 H     49  47  44     1.083061008035   119.56276116   358.70459076
 C     52  49  47     1.387906133479   120.33864574     0.00000000
 H     50  48  47     1.083099565146   119.58418516   179.50502149
 H     52  49  47     1.083112428796   119.58880305   179.50952906
 H     54  52  49     1.082685282022   120.33623598   180.00232352
 C     12  11   9     1.468388557779   121.69132485   180.22211625
 C     58  12  11     1.399551010472   121.65550883   154.14836385
 C     58  12  11     1.399728540800   121.33167537   334.16134749
 C     59  58  12     1.381734153215   121.46471345   180.15202098
 H     59  58  12     1.083077169606   119.71000301   359.27913345
 C     60  58  12     1.381026728375   121.49296240   180.02499351
 H     60  58  12     1.082961770517   119.59931182   359.11603872
 C     61  59  58     1.398237494646   121.46515856   359.75252420
 H     61  59  58     1.083182746389   118.95120077   180.65894015
 H     63  60  58     1.083196419611   118.92903590   180.61581598
 C     65  61  59     1.471618294075   121.48165758   180.36224513
 C     68  65  61     1.399209473855   121.20550336   331.40758698
 C     68  65  61     1.399255951209   121.00660633   151.32860957
 C     69  68  65     1.385141930499   121.07830843   179.95447847
 H     69  68  65     1.083144186938   119.55404129   358.64955430
 C     70  68  65     1.384892225095   121.12324741   180.10519997
 H     70  68  65     1.083065693048   119.54163727   358.78899597
 C     73  70  68     1.387905238684   120.32669989   359.94386974
 H     71  69  68     1.083098726897   119.57980708   179.48024862
 H     73  70  68     1.083080294097   119.60464185   179.47014526
 H     75  73  70     1.082684101802   120.35104930   180.03550116
 O      7   4   3     1.373115500240    30.83262681   177.78352436

---------------------------
INTERNAL COORDINATES (A.U.)
---------------------------
 C      0   0   0     0.000000000000     0.00000000     0.00000000
 C      1   0   0     2.618204793246     0.00000000     0.00000000
 C      2   1   0     2.629219144139   121.05914102     0.00000000
 C      3   2   1     2.645197403113   117.62313195     0.50130147
 C      4   3   2     2.599783155361   121.29262293   359.65001087
 C      1   2   3     2.634963056658   121.49980942   359.71778936
 C      4   3   2     4.456373696087    90.90970076   179.08191780
 C      7   4   3     2.645252145699    90.90605177   359.67473411
 C      8   7   4     2.629230404020   117.64909951   181.44220101
 H      9   8   7     2.044771364620   119.16370034   180.73080406
 C      9   8   7     2.618244692238   121.04882029     0.07797513
 C     11   9   8     2.634827542857   121.47039687   359.82778861
 C      7   4   3     2.600017295607   147.78601947   181.78788235
 H      2   1   3     2.044764630220   119.77008818   179.76526395
 H      5   4   3     2.045281956614   117.62268152   181.46611635
 H     11   9   8     2.044860525040   118.50044623   181.32454896
 N      3   2   1     2.630867630929   122.93274886   180.30313780
 C     17   3   2     2.700040877938   120.34487976   359.82872067
 C     18  17   3     2.678696109927   119.32862102   270.98250554
 C     18  17   3     2.589399524266   119.49064077    90.97402680
 C     19  18  17     2.667425247541   122.87449087     0.00000000
 C     19  18  17     2.697415115292   118.09069954   180.00754434
 C     20  18  17     2.654310164842   120.33534777   179.99411050
 H     20  18  17     2.046486650783   119.18462476     0.00000000
 C     21  19  18     2.588592330144   120.57461158   179.99350116
 H     21  19  18     2.046575206399   119.19352879     0.00000000
 C     22  19  18     2.668312331292   118.73622387   180.00234305
 C     23  20  18     2.586459131720   120.20492439     0.00000000
 H     23  20  18     2.045173181208   119.41582828   180.00679373
 C     27  22  19     2.586773322573   120.89993794     0.00000000
 H     25  21  19     2.046009749445   119.87085042   180.00447913
 H     27  22  19     2.047778477002   118.43836378   180.00138717
 H     28  23  20     2.047606731056   120.55926696   180.00653635
 H     30  27  22     2.045927332512   120.13250854   179.99487084
 H     13   7   4     2.045300357439   117.68969919   358.75717461
 H      1   2   3     2.044542232970   118.43889107   181.14162658
 C      6   1   2     2.775255936234   121.73748293   180.07800696
 C     37   6   1     2.644991914483   121.63975327   155.32206723
 C     37   6   1     2.645380467736   121.40518040   335.31028878
 C     38  37   6     2.610812301179   121.51100927   180.00133203
 H     38  37   6     2.046628014267   119.72001515   359.18187315
 C     39  37   6     2.609906067603   121.50561663   180.11621194
 H     39  37   6     2.046436910625   119.64292941   359.22907246
 C     40  38  37     2.642307303286   121.46979618   359.83151193
 H     40  38  37     2.046923085592   118.91588832   180.74137826
 H     42  39  37     2.046942474797   118.89018429   180.67288326
 C     44  40  38     2.780954580222   121.49142500   180.32898543
 C     47  44  40     2.644195332457   121.16091213   331.43415898
 C     47  44  40     2.644252529674   121.06266211   151.38430392
 C     48  47  44     2.617388000689   121.09631601   180.00807139
 H     48  47  44     2.046819029505   119.56191560   358.67507869
 C     49  47  44     2.617223738944   121.11581084   180.02004979
 H     49  47  44     2.046688691514   119.56276116   358.70459076
 C     52  49  47     2.622762491866   120.33864574     0.00000000
 H     50  48  47     2.046761553896   119.58418516   179.50502149
 H     52  49  47     2.046785862671   119.58880305   179.50952906
 H     54  52  49     2.045978672248   120.33623598   180.00232352
 C     12  11   9     2.774852232386   121.69132485   180.22211625
 C     58  12  11     2.644768120245   121.65550883   154.14836385
 C     58  12  11     2.645103603944   121.33167537   334.16134749
 C     59  58  12     2.611099139462   121.46471345   180.15202098
 H     59  58  12     2.046719232458   119.71000301   359.27913345
 C     60  58  12     2.609762300253   121.49296240   180.02499351
 H     60  58  12     2.046501159784   119.59931182   359.11603872
 C     61  59  58     2.642285935060   121.46515856   359.75252420
 H     61  59  58     2.046918743663   118.95120077   180.65894015
 H     63  60  58     2.046944582310   118.92903590   180.61581598
 C     65  61  59     2.780955549471   121.48165758   180.36224513
 C     68  65  61     2.644122709574   121.20550336   331.40758698
 C     68  65  61     2.644210539045   121.00660633   151.32860957
 C     69  68  65     2.617538905254   121.07830843   179.95447847
 H     69  68  65     2.046845876861   119.55404129   358.64955430
 C     70  68  65     2.617067030427   121.12324741   180.10519997
 H     70  68  65     2.046697544906   119.54163727   358.78899597
 C     73  70  68     2.622760800947   120.32669989   359.94386974
 H     71  69  68     2.046759969834   119.57980708   179.48024862
 H     73  70  68     2.046725136890   119.60464185   179.47014526
 H     75  73  70     2.045976441956   120.35104930   180.03550116
 O      7   4   3     2.594812245695    30.83262681   177.78352436

---------------------
BASIS SET INFORMATION
---------------------
There are 4 groups of distinct atoms

 Group   1 Type C   : 11s6p2d1f contracted to 5s3p2d1f pattern {62111/411/11/1}
 Group   2 Type H   : 5s1p contracted to 3s1p pattern {311/1}
 Group   3 Type N   : 11s6p2d1f contracted to 5s3p2d1f pattern {62111/411/11/1}
 Group   4 Type O   : 11s6p2d1f contracted to 5s3p2d1f pattern {62111/411/11/1}

Atom   0C    basis set group =>   1
Atom   1C    basis set group =>   1
Atom   2C    basis set group =>   1
Atom   3C    basis set group =>   1
Atom   4C    basis set group =>   1
Atom   5C    basis set group =>   1
Atom   6C    basis set group =>   1
Atom   7C    basis set group =>   1
Atom   8C    basis set group =>   1
Atom   9H    basis set group =>   2
Atom  10C    basis set group =>   1
Atom  11C    basis set group =>   1
Atom  12C    basis set group =>   1
Atom  13H    basis set group =>   2
Atom  14H    basis set group =>   2
Atom  15H    basis set group =>   2
Atom  16N    basis set group =>   3
Atom  17C    basis set group =>   1
Atom  18C    basis set group =>   1
Atom  19C    basis set group =>   1
Atom  20C    basis set group =>   1
Atom  21C    basis set group =>   1
Atom  22C    basis set group =>   1
Atom  23H    basis set group =>   2
Atom  24C    basis set group =>   1
Atom  25H    basis set group =>   2
Atom  26C    basis set group =>   1
Atom  27C    basis set group =>   1
Atom  28H    basis set group =>   2
Atom  29C    basis set group =>   1
Atom  30H    basis set group =>   2
Atom  31H    basis set group =>   2
Atom  32H    basis set group =>   2
Atom  33H    basis set group =>   2
Atom  34H    basis set group =>   2
Atom  35H    basis set group =>   2
Atom  36C    basis set group =>   1
Atom  37C    basis set group =>   1
Atom  38C    basis set group =>   1
Atom  39C    basis set group =>   1
Atom  40H    basis set group =>   2
Atom  41C    basis set group =>   1
Atom  42H    basis set group =>   2
Atom  43C    basis set group =>   1
Atom  44H    basis set group =>   2
Atom  45H    basis set group =>   2
Atom  46C    basis set group =>   1
Atom  47C    basis set group =>   1
Atom  48C    basis set group =>   1
Atom  49C    basis set group =>   1
Atom  50H    basis set group =>   2
Atom  51C    basis set group =>   1
Atom  52H    basis set group =>   2
Atom  53C    basis set group =>   1
Atom  54H    basis set group =>   2
Atom  55H    basis set group =>   2
Atom  56H    basis set group =>   2
Atom  57C    basis set group =>   1
Atom  58C    basis set group =>   1
Atom  59C    basis set group =>   1
Atom  60C    basis set group =>   1
Atom  61H    basis set group =>   2
Atom  62C    basis set group =>   1
Atom  63H    basis set group =>   2
Atom  64C    basis set group =>   1
Atom  65H    basis set group =>   2
Atom  66H    basis set group =>   2
Atom  67C    basis set group =>   1
Atom  68C    basis set group =>   1
Atom  69C    basis set group =>   1
Atom  70C    basis set group =>   1
Atom  71H    basis set group =>   2
Atom  72C    basis set group =>   1
Atom  73H    basis set group =>   2
Atom  74C    basis set group =>   1
Atom  75H    basis set group =>   2
Atom  76H    basis set group =>   2
Atom  77H    basis set group =>   2
Atom  78O    basis set group =>   4
---------------------------------
AUXILIARY/J BASIS SET INFORMATION
---------------------------------
There are 4 groups of distinct atoms

 Group   1 Type C   : 12s5p4d2f1g contracted to 6s4p3d1f1g pattern {711111/2111/211/2/1}
 Group   2 Type H   : 5s2p1d contracted to 3s1p1d pattern {311/2/1}
 Group   3 Type N   : 12s5p4d2f1g contracted to 6s4p3d1f1g pattern {711111/2111/211/2/1}
 Group   4 Type O   : 12s5p4d2f1g contracted to 6s4p3d1f1g pattern {711111/2111/211/2/1}

Atom   0C    basis set group =>   1
Atom   1C    basis set group =>   1
Atom   2C    basis set group =>   1
Atom   3C    basis set group =>   1
Atom   4C    basis set group =>   1
Atom   5C    basis set group =>   1
Atom   6C    basis set group =>   1
Atom   7C    basis set group =>   1
Atom   8C    basis set group =>   1
Atom   9H    basis set group =>   2
Atom  10C    basis set group =>   1
Atom  11C    basis set group =>   1
Atom  12C    basis set group =>   1
Atom  13H    basis set group =>   2
Atom  14H    basis set group =>   2
Atom  15H    basis set group =>   2
Atom  16N    basis set group =>   3
Atom  17C    basis set group =>   1
Atom  18C    basis set group =>   1
Atom  19C    basis set group =>   1
Atom  20C    basis set group =>   1
Atom  21C    basis set group =>   1
Atom  22C    basis set group =>   1
Atom  23H    basis set group =>   2
Atom  24C    basis set group =>   1
Atom  25H    basis set group =>   2
Atom  26C    basis set group =>   1
Atom  27C    basis set group =>   1
Atom  28H    basis set group =>   2
Atom  29C    basis set group =>   1
Atom  30H    basis set group =>   2
Atom  31H    basis set group =>   2
Atom  32H    basis set group =>   2
Atom  33H    basis set group =>   2
Atom  34H    basis set group =>   2
Atom  35H    basis set group =>   2
Atom  36C    basis set group =>   1
Atom  37C    basis set group =>   1
Atom  38C    basis set group =>   1
Atom  39C    basis set group =>   1
Atom  40H    basis set group =>   2
Atom  41C    basis set group =>   1
Atom  42H    basis set group =>   2
Atom  43C    basis set group =>   1
Atom  44H    basis set group =>   2
Atom  45H    basis set group =>   2
Atom  46C    basis set group =>   1
Atom  47C    basis set group =>   1
Atom  48C    basis set group =>   1
Atom  49C    basis set group =>   1
Atom  50H    basis set group =>   2
Atom  51C    basis set group =>   1
Atom  52H    basis set group =>   2
Atom  53C    basis set group =>   1
Atom  54H    basis set group =>   2
Atom  55H    basis set group =>   2
Atom  56H    basis set group =>   2
Atom  57C    basis set group =>   1
Atom  58C    basis set group =>   1
Atom  59C    basis set group =>   1
Atom  60C    basis set group =>   1
Atom  61H    basis set group =>   2
Atom  62C    basis set group =>   1
Atom  63H    basis set group =>   2
Atom  64C    basis set group =>   1
Atom  65H    basis set group =>   2
Atom  66H    basis set group =>   2
Atom  67C    basis set group =>   1
Atom  68C    basis set group =>   1
Atom  69C    basis set group =>   1
Atom  70C    basis set group =>   1
Atom  71H    basis set group =>   2
Atom  72C    basis set group =>   1
Atom  73H    basis set group =>   2
Atom  74C    basis set group =>   1
Atom  75H    basis set group =>   2
Atom  76H    basis set group =>   2
Atom  77H    basis set group =>   2
Atom  78O    basis set group =>   4
---------------------------------
AUXILIARY/C BASIS SET INFORMATION
---------------------------------
There are 4 groups of distinct atoms

 Group   1 Type C   : 8s6p5d3f1g contracted to 8s6p4d3f1g pattern {11111111/111111/2111/111/1}
 Group   2 Type H   : 4s3p2d contracted to 4s2p1d pattern {1111/21/2}
 Group   3 Type N   : 8s6p5d3f1g contracted to 8s6p4d3f1g pattern {11111111/111111/2111/111/1}
 Group   4 Type O   : 8s6p5d3f1g contracted to 8s6p4d3f1g pattern {11111111/111111/2111/111/1}

Atom   0C    basis set group =>   1
Atom   1C    basis set group =>   1
Atom   2C    basis set group =>   1
Atom   3C    basis set group =>   1
Atom   4C    basis set group =>   1
Atom   5C    basis set group =>   1
Atom   6C    basis set group =>   1
Atom   7C    basis set group =>   1
Atom   8C    basis set group =>   1
Atom   9H    basis set group =>   2
Atom  10C    basis set group =>   1
Atom  11C    basis set group =>   1
Atom  12C    basis set group =>   1
Atom  13H    basis set group =>   2
Atom  14H    basis set group =>   2
Atom  15H    basis set group =>   2
Atom  16N    basis set group =>   3
Atom  17C    basis set group =>   1
Atom  18C    basis set group =>   1
Atom  19C    basis set group =>   1
Atom  20C    basis set group =>   1
Atom  21C    basis set group =>   1
Atom  22C    basis set group =>   1
Atom  23H    basis set group =>   2
Atom  24C    basis set group =>   1
Atom  25H    basis set group =>   2
Atom  26C    basis set group =>   1
Atom  27C    basis set group =>   1
Atom  28H    basis set group =>   2
Atom  29C    basis set group =>   1
Atom  30H    basis set group =>   2
Atom  31H    basis set group =>   2
Atom  32H    basis set group =>   2
Atom  33H    basis set group =>   2
Atom  34H    basis set group =>   2
Atom  35H    basis set group =>   2
Atom  36C    basis set group =>   1
Atom  37C    basis set group =>   1
Atom  38C    basis set group =>   1
Atom  39C    basis set group =>   1
Atom  40H    basis set group =>   2
Atom  41C    basis set group =>   1
Atom  42H    basis set group =>   2
Atom  43C    basis set group =>   1
Atom  44H    basis set group =>   2
Atom  45H    basis set group =>   2
Atom  46C    basis set group =>   1
Atom  47C    basis set group =>   1
Atom  48C    basis set group =>   1
Atom  49C    basis set group =>   1
Atom  50H    basis set group =>   2
Atom  51C    basis set group =>   1
Atom  52H    basis set group =>   2
Atom  53C    basis set group =>   1
Atom  54H    basis set group =>   2
Atom  55H    basis set group =>   2
Atom  56H    basis set group =>   2
Atom  57C    basis set group =>   1
Atom  58C    basis set group =>   1
Atom  59C    basis set group =>   1
Atom  60C    basis set group =>   1
Atom  61H    basis set group =>   2
Atom  62C    basis set group =>   1
Atom  63H    basis set group =>   2
Atom  64C    basis set group =>   1
Atom  65H    basis set group =>   2
Atom  66H    basis set group =>   2
Atom  67C    basis set group =>   1
Atom  68C    basis set group =>   1
Atom  69C    basis set group =>   1
Atom  70C    basis set group =>   1
Atom  71H    basis set group =>   2
Atom  72C    basis set group =>   1
Atom  73H    basis set group =>   2
Atom  74C    basis set group =>   1
Atom  75H    basis set group =>   2
Atom  76H    basis set group =>   2
Atom  77H    basis set group =>   2
Atom  78O    basis set group =>   4


           ************************************************************
           *        Program running with 8 parallel MPI-processes     *
           *              working on a common directory               *
           ************************************************************
------------------------------------------------------------------------------
                           ORCA GTO INTEGRAL CALCULATION
                           -- RI-GTO INTEGRALS CHOSEN --
------------------------------------------------------------------------------
------------------------------------------------------------------------------
                   ___                                                        
                  /   \      - P O W E R E D   B Y -                         
                 /     \                                                     
                 |  |  |   _    _      __       _____    __    __             
                 |  |  |  | |  | |    /  \     |  _  \  |  |  /  |          
                  \  \/   | |  | |   /    \    | | | |  |  | /  /          
                 / \  \   | |__| |  /  /\  \   | |_| |  |  |/  /          
                |  |  |   |  __  | /  /__\  \  |    /   |      \           
                |  |  |   | |  | | |   __   |  |    \   |  |\   \          
                \     /   | |  | | |  |  |  |  | |\  \  |  | \   \       
                 \___/    |_|  |_| |__|  |__|  |_| \__\ |__|  \__/        
                                                                              
                      - O R C A' S   B I G   F R I E N D -                    
                                      &                                       
                       - I N T E G R A L  F E E D E R -                       
                                                                              
 v1 FN, 2020, v2 2021                                                         
------------------------------------------------------------------------------


Reading SHARK input file POZ_1_M06L_def2TZVP_coords.SHARKINP.tmp ... ok
----------------------
SHARK INTEGRAL PACKAGE
----------------------

Number of atoms                             ...     79
Number of basis functions                   ...   1674
Number of shells                            ...    652
Maximum angular momentum                    ...      3
Integral batch strategy                     ... SHARK/LIBINT Hybrid
RI-J (if used) integral strategy            ... SPLIT-RIJ (Revised 2003 algorithm where possible)
Printlevel                                  ...      1
Contraction scheme used                     ... SEGMENTED contraction
Coulomb Range Separation                    ... NOT USED
Exchange Range Separation                   ... NOT USED
Finite Nucleus Model                        ... NOT USED
Auxiliary Coulomb fitting basis             ... AVAILABLE
   # of basis functions in Aux-J            ...   2693
   # of shells in Aux-J                     ...    875
   Maximum angular momentum in Aux-J        ...      4
Auxiliary J/K fitting basis                 ... NOT available
Auxiliary Correlation fitting basis         ... AVAILABLE
   # of basis functions in Aux-C            ...   4113
   # of shells in Aux-C                     ...   1273
   Maximum angular momentum in Aux-C        ...      4
Auxiliary 'external' fitting basis          ... NOT available
Integral threshold                          ...     2.500000e-11
Primitive cut-off                           ...     2.500000e-12
Primitive pair pre-selection threshold      ...     2.500000e-12

Calculating pre-screening integrals         ... done (  0.1 sec) Dimension = 652
Organizing shell pair data                  ... done (  1.1 sec)
Shell pair information
Total number of shell pairs                 ...    212878
Shell pairs after pre-screening             ...     84915
Total number of primitive shell pairs       ...    658380
Primitive shell pairs kept                  ...    167897
          la=0 lb=0:  21136 shell pairs
          la=1 lb=0:  24854 shell pairs
          la=1 lb=1:   7315 shell pairs
          la=2 lb=0:  11940 shell pairs
          la=2 lb=1:   7125 shell pairs
          la=2 lb=2:   1719 shell pairs
          la=3 lb=0:   5560 shell pairs
          la=3 lb=1:   3352 shell pairs
          la=3 lb=2:   1531 shell pairs
          la=3 lb=3:    383 shell pairs

Calculating one electron integrals          ... done (  0.1 sec)
Calculating RI/J V-Matrix + Cholesky decomp.... done (  0.3 sec)
Calculating RI/C V-Matrix + Cholesky decomp.... done (  0.6 sec)
Calculating Nuclear repulsion               ... done (  0.0 sec) ENN=   4892.596552707744 Eh

SHARK setup successfully completed in   3.1 seconds

Maximum memory used throughout the entire GTOINT-calculation: 173.1 MB


           ************************************************************
           *        Program running with 8 parallel MPI-processes     *
           *              working on a common directory               *
           ************************************************************
-------------------------------------------------------------------------------
                                 ORCA SCF
-------------------------------------------------------------------------------

------------
SCF SETTINGS
------------
Hamiltonian:
 Density Functional     Method          .... DFT(GTOs)
 Exchange Functional    Exchange        .... B88
   X-Alpha parameter    XAlpha          ....  0.666667
   Becke's b parameter  XBeta           ....  0.004200
 Correlation Functional Correlation     .... LYP
 LDA part of GGA corr.  LDAOpt          .... VWN-3
 Gradients option       PostSCFGGA      .... off
 Hybrid DFT is turned on
   Fraction HF Exchange ScalHFX         ....  0.530000
   Scaling of DF-GGA-X  ScalDFX         ....  0.470000
   Scaling of DF-GGA-C  ScalDFC         ....  0.730000
   Scaling of DF-LDA-C  ScalLDAC        ....  0.730000
   Perturbative correction              ....  0.270000
   Density functional embedding theory  .... OFF
   NL short-range parameter             ....  7.800000
 RI-approximation to the Coulomb term is turned on
   Number of AuxJ basis functions       .... 2693
   RIJ-COSX (HFX calculated with COS-X)).... on


General Settings:
 Integral files         IntName         .... POZ_1_M06L_def2TZVP_coords
 Hartree-Fock type      HFTyp           .... RHF
 Total Charge           Charge          ....    0
 Multiplicity           Mult            ....    1
 Number of Electrons    NEL             ....  322
 Basis Dimension        Dim             .... 1674
 Nuclear Repulsion      ENuc            ....   4892.5965527077 Eh

Convergence Acceleration:
 DIIS                   CNVDIIS         .... on
   Start iteration      DIISMaxIt       ....    12
   Startup error        DIISStart       ....  0.200000
   # of expansion vecs  DIISMaxEq       ....     5
   Bias factor          DIISBfac        ....   1.050
   Max. coefficient     DIISMaxC        ....  10.000
 Trust-Rad. Augm. Hess. CNVTRAH         .... auto
   Auto Start mean grad. ratio tolernc. ....  1.125000
   Auto Start start iteration           ....    20
   Auto Start num. interpolation iter.  ....    10
   Max. Number of Micro iterations      ....    16
   Max. Number of Macro iterations      .... Maxiter - #DIIS iter
   Number of Davidson start vectors     ....     2
   Converg. threshold I  (grad. norm)   ....   1.000e-05
   Converg. threshold II (energy diff.) ....   1.000e-08
   Grad. Scal. Fac. for Micro threshold ....   0.100
   Minimum threshold for Micro iter.    ....   0.010
   NR start threshold (gradient norm)   ....   0.001
   Initial trust radius                 ....   0.400
   Minimum AH scaling param. (alpha)    ....   1.000
   Maximum AH scaling param. (alpha)    .... 1000.000
   Orbital update algorithm             .... Taylor
   White noise on init. David. guess    .... on
   Maximum white noise                  ....   0.010
   Quad. conv. algorithm                .... NR
 SOSCF                  CNVSOSCF        .... on
   Start iteration      SOSCFMaxIt      ....   150
   Startup grad/error   SOSCFStart      ....  0.003300
 Level Shifting         CNVShift        .... on
   Level shift para.    LevelShift      ....    0.2500
   Turn off err/grad.   ShiftErr        ....    0.0010
 Zerner damping         CNVZerner       .... off
 Static damping         CNVDamp         .... on
   Fraction old density DampFac         ....    0.7000
   Max. Damping (<1)    DampMax         ....    0.9800
   Min. Damping (>=0)   DampMin         ....    0.0000
   Turn off err/grad.   DampErr         ....    0.1000
 Fernandez-Rico         CNVRico         .... off

SCF Procedure:
 Maximum # iterations   MaxIter         ....   125
 SCF integral mode      SCFMode         .... Direct
   Integral package                     .... SHARK and LIBINT hybrid scheme
 Reset frequency        DirectResetFreq ....    20
 Integral Threshold     Thresh          ....  2.500e-11 Eh
 Primitive CutOff       TCut            ....  2.500e-12 Eh

Convergence Tolerance:
 Convergence Check Mode ConvCheckMode   .... Total+1el-Energy
 Convergence forced     ConvForced      .... 1
 Energy Change          TolE            ....  1.000e-08 Eh
 1-El. energy change                    ....  1.000e-05 Eh
 Orbital Gradient       TolG            ....  1.000e-05
 Orbital Rotation angle TolX            ....  1.000e-05
 DIIS Error             TolErr          ....  5.000e-07


Diagonalization of the overlap matrix:
Smallest eigenvalue                        ... 4.003e-06
Time for diagonalization                   ...    0.404 sec
Threshold for overlap eigenvalues          ... 1.000e-08
Number of eigenvalues below threshold      ... 0
Time for construction of square roots      ...    0.209 sec
Total time needed                          ...    0.621 sec

Time for model grid setup =    0.743 sec

------------------------------
INITIAL GUESS: MODEL POTENTIAL
------------------------------
Loading Hartree-Fock densities                     ... done
Calculating cut-offs                               ... done
Initializing the effective Hamiltonian             ... done
Setting up the integral package (SHARK)            ... done
Starting the Coulomb interaction                   ... done (   1.7 sec)
Reading the grid                                   ... done
Mapping shells                                     ... done
Starting the XC term evaluation                    ... done (   0.5 sec)
  promolecular density results
     # of electrons  =    321.990258375
     EX              =   -260.771112322
     EC              =     -3.661048010
     EX+EC           =   -264.432160332
Transforming the Hamiltonian                       ... done (   0.2 sec)
Diagonalizing the Hamiltonian                      ... done (   0.3 sec)
Back transforming the eigenvectors                 ... done (   0.1 sec)
Now organizing SCF variables                       ... done
                      ------------------
                      INITIAL GUESS DONE (   3.5 sec)
                      ------------------
-------------------
DFT GRID GENERATION
-------------------

General Integration Accuracy     IntAcc      ... 4.388
Radial Grid Type                 RadialGrid  ... OptM3 with GC (2021)
Angular Grid (max. ang.)         AngularGrid ... 4 (Lebedev-302)
Angular grid pruning method      GridPruning ... 4 (adaptive)
Weight generation scheme         WeightScheme... Becke
Basis function cutoff            BFCut       ... 1.0000e-11
Integration weight cutoff        WCut        ... 1.0000e-14
Angular grids for H and He will be reduced by one unit
Partially contracted basis set               ... off
Rotationally invariant grid construction     ... off

Total number of grid points                  ...   384041
Total number of batches                      ...     6048
Average number of points per batch           ...       63
Average number of grid points per atom       ...     4861
Time for grid setup =    2.870 sec

--------------------
COSX GRID GENERATION
--------------------

GRIDX 1
-------
General Integration Accuracy     IntAcc      ... 3.816
Radial Grid Type                 RadialGrid  ... OptM3 with GC (2021)
Angular Grid (max. ang.)         AngularGrid ... 1 (Lebedev-50)
Angular grid pruning method      GridPruning ... 4 (adaptive)
Weight generation scheme         WeightScheme... Becke
Basis function cutoff            BFCut       ... 1.0000e-11
Integration weight cutoff        WCut        ... 1.0000e-14
Angular grids for H and He will be reduced by one unit
Partially contracted basis set               ... on
Rotationally invariant grid construction     ... off

Total number of grid points                  ...    48766
Total number of batches                      ...      787
Average number of points per batch           ...       61
Average number of grid points per atom       ...      617
UseSFitting                                  ... on

GRIDX 2
-------
General Integration Accuracy     IntAcc      ... 4.020
Radial Grid Type                 RadialGrid  ... OptM3 with GC (2021)
Angular Grid (max. ang.)         AngularGrid ... 2 (Lebedev-110)
Angular grid pruning method      GridPruning ... 4 (adaptive)
Weight generation scheme         WeightScheme... Becke
Basis function cutoff            BFCut       ... 1.0000e-11
Integration weight cutoff        WCut        ... 1.0000e-14
Angular grids for H and He will be reduced by one unit
Partially contracted basis set               ... on
Rotationally invariant grid construction     ... off

Total number of grid points                  ...   106025
Total number of batches                      ...     1697
Average number of points per batch           ...       62
Average number of grid points per atom       ...     1342
UseSFitting                                  ... on

GRIDX 3
-------
General Integration Accuracy     IntAcc      ... 4.338
Radial Grid Type                 RadialGrid  ... OptM3 with GC (2021)
Angular Grid (max. ang.)         AngularGrid ... 3 (Lebedev-194)
Angular grid pruning method      GridPruning ... 4 (adaptive)
Weight generation scheme         WeightScheme... Becke
Basis function cutoff            BFCut       ... 1.0000e-11
Integration weight cutoff        WCut        ... 1.0000e-14
Angular grids for H and He will be reduced by one unit
Partially contracted basis set               ... on
Rotationally invariant grid construction     ... off

Total number of grid points                  ...   231991
Total number of batches                      ...     3665
Average number of points per batch           ...       63
Average number of grid points per atom       ...     2937
UseSFitting                                  ... on

Time for X-Grid setup             =    4.157 sec


--------------------
CPCM SOLVATION MODEL
--------------------
CPCM parameters:
  Epsilon                                         ...      37.7810
  Refrac                                          ...       1.4380
  Rsolv                                           ...       1.3000
  Surface type                                    ... GAUSSIAN VDW
  Epsilon function type                           ...         CPCM
Solvent:                                     ... N,N-DIMETHYLACETAMIDE
SMD-CDS solvent descriptors:
  Soln                                       ...    1.4380
  Soln25                                     ...    1.4358
  Sola                                       ...    0.0000
  Solb                                       ...    0.7800
  Solg                                       ...   47.6200
  Solc                                       ...    0.0000
  Solh                                       ...    0.0000
Radii:
 Radius for C  used is    3.4960 Bohr (=   1.8500 Ang.)
 Radius for H  used is    2.2677 Bohr (=   1.2000 Ang.)
 Radius for N  used is    3.5716 Bohr (=   1.8900 Ang.)
 Radius for O  used is    4.3350 Bohr (=   2.2940 Ang.)
Calculating surface                               ...        done! (  0.0s)
GEPOL surface points                              ...         4316
GEPOL Volume                                      ...    4249.6849
GEPOL Surface-area                                ...    2229.2559
Calculating surface distance matrix               ...        done! (  0.1s)
Performing Cholesky decomposition & store         ...        done! (  0.5s)
Overall time for CPCM initialization              ...                 0.6s
--------------
SCF ITERATIONS
--------------
ITER       Energy         Delta-E        Max-DP      RMS-DP      [F,P]     Damp
               ***  Starting incremental Fock matrix formation  ***
  0  -1896.9862260941   0.000000000000 0.05697337  0.00045342  0.1547603 0.7000
  1  -1897.4318623810  -0.445636286914 0.05223841  0.00040131  0.0922287 0.7000
                               ***Turning on DIIS***
  2  -1897.6786523995  -0.246790018504 0.14282308  0.00095235  0.0532735 0.0000
  3  -1898.0988849755  -0.420232575945 0.02158738  0.00022311  0.0317706 0.0000
  4  -1898.1481515265  -0.049266550980 0.01785877  0.00011158  0.0086774 0.0000
                      *** Initiating the SOSCF procedure ***
                           *** Shutting down DIIS ***
                      *** Re-Reading the Fockian *** 
                      *** Removing any level shift *** 
ITER      Energy       Delta-E        Grad      Rot      Max-DP    RMS-DP
  5  -1898.14981878  -0.0016672560  0.001524  0.001524  0.003830  0.000039
               *** Restarting incremental Fock matrix formation ***
  6  -1898.14976386   0.0000549264  0.001319  0.006320  0.017254  0.000179
  7  -1898.14982482  -0.0000609600  0.000278  0.003343  0.007079  0.000074
  8  -1898.14983619  -0.0000113736  0.000179  0.000840  0.006091  0.000062
  9  -1898.14984165  -0.0000054590  0.000041  0.000288  0.001161  0.000012
 10  -1898.14984202  -0.0000003718  0.000028  0.000162  0.000570  0.000006
 11  -1898.14984212  -0.0000000984  0.000007  0.000040  0.000327  0.000002
 12  -1898.14984216  -0.0000000413  0.000003  0.000015  0.000194  0.000001
                  ***Gradient check signals convergence***
              ***Rediagonalizing the Fockian in SOSCF/NRSCF***

               *****************************************************
               *                     SUCCESS                       *
               *           SCF CONVERGED AFTER  13 CYCLES          *
               *****************************************************

Old exchange energy                            =   -140.507743949 Eh
New exchange energy                            =   -140.507625200 Eh
Exchange energy change after final integration =      0.000118749 Eh
Total energy after final integration           =  -1898.149723549 Eh
Final COS-X integration done in                =    89.304 sec

SMD CDS free energy correction energy :                -7.90873     Kcal/mol
Total Energy after SMD CDS correction =             -1898.162326914 Eh

----------------
TOTAL SCF ENERGY
----------------

Total Energy       :        -1898.16232691 Eh          -51651.62283 eV

Components:
Nuclear Repulsion  :         4892.59655271 Eh          133134.32062 eV
Electronic Energy  :        -6790.75887962 Eh         -184785.94345 eV
One Electron Energy:       -12307.20645320 Eh         -334896.11338 eV
Two Electron Energy:         5516.44757358 Eh          150110.16993 eV
Max COSX asymmetry :            0.00000470 Eh               0.00013 eV
CPCM Dielectric    :           -0.03948127 Eh              -1.07434 eV
SMD CDS (Gcds)     :           -0.01260336 Eh              -0.34295 eV

Virial components:
Potential Energy   :        -3790.29607058 Eh         -103139.19958 eV
Kinetic Energy     :         1892.13374367 Eh           51487.57674 eV
Virial Ratio       :            2.00318613


DFT components:
N(Alpha)           :      160.999814895667 electrons
N(Beta)            :      160.999814895667 electrons
N(Total)           :      321.999629791334 electrons
E(X)               :     -124.818476141862 Eh       
E(C)               :       -8.013632115459 Eh       
E(XC)              :     -132.832108257320 Eh       
DFET-embed. en.    :        0.000000000000 Eh       
CPCM Solvation Model Properties:
Surface-charge          :           -0.10128560
Charge-correction       :            0.00052649 Eh               0.01433 eV
Free-energy (cav+disp)  :           -0.01260336 Eh              -0.34295 eV

---------------
SCF CONVERGENCE
---------------

  Last Energy change         ...   -1.3874e-07  Tolerance :   1.0000e-08
  Last MAX-Density change    ...    2.2204e-15  Tolerance :   1.0000e-07
  Last RMS-Density change    ...    1.0827e-17  Tolerance :   5.0000e-09
  Last Orbital Gradient      ...    7.6254e-07  Tolerance :   1.0000e-05
  Last Orbital Rotation      ...    4.3443e-06  Tolerance :   1.0000e-05

             **** THE GBW FILE WAS UPDATED (POZ_1_M06L_def2TZVP_coords.gbw) ****
             **** DENSITY POZ_1_M06L_def2TZVP_coords.scfp WAS UPDATED ****
             **** ENERGY FILE WAS UPDATED (POZ_1_M06L_def2TZVP_coords.en.tmp) ****
             **** THE GBW FILE WAS UPDATED (POZ_1_M06L_def2TZVP_coords.gbw) ****
             **** DENSITY POZ_1_M06L_def2TZVP_coords.scfp WAS UPDATED ****
----------------
ORBITAL ENERGIES
----------------

  NO   OCC          E(Eh)            E(eV) 
   0   2.0000     -19.773501      -538.0643 
   1   2.0000     -14.877279      -404.8313 
   2   2.0000     -10.685158      -290.7579 
   3   2.0000     -10.685065      -290.7554 
   4   2.0000     -10.670620      -290.3623 
   5   2.0000     -10.670590      -290.3615 
   6   2.0000     -10.660896      -290.0977 
   7   2.0000     -10.632433      -289.3232 
   8   2.0000     -10.630902      -289.2816 
   9   2.0000     -10.628472      -289.2154 
  10   2.0000     -10.628454      -289.2149 
  11   2.0000     -10.628301      -289.2108 
  12   2.0000     -10.628227      -289.2088 
  13   2.0000     -10.626598      -289.1644 
  14   2.0000     -10.626510      -289.1620 
  15   2.0000     -10.626318      -289.1568 
  16   2.0000     -10.626292      -289.1561 
  17   2.0000     -10.622743      -289.0595 
  18   2.0000     -10.621564      -289.0275 
  19   2.0000     -10.619570      -288.9732 
  20   2.0000     -10.619129      -288.9612 
  21   2.0000     -10.618951      -288.9563 
  22   2.0000     -10.618140      -288.9343 
  23   2.0000     -10.617431      -288.9150 
  24   2.0000     -10.617382      -288.9137 
  25   2.0000     -10.617091      -288.9057 
  26   2.0000     -10.617047      -288.9045 
  27   2.0000     -10.616969      -288.9024 
  28   2.0000     -10.615056      -288.8504 
  29   2.0000     -10.614946      -288.8474 
  30   2.0000     -10.614918      -288.8466 
  31   2.0000     -10.614862      -288.8451 
  32   2.0000     -10.614828      -288.8442 
  33   2.0000     -10.614766      -288.8425 
  34   2.0000     -10.614718      -288.8412 
  35   2.0000     -10.614640      -288.8390 
  36   2.0000     -10.614636      -288.8389 
  37   2.0000     -10.614527      -288.8360 
  38   2.0000     -10.614001      -288.8216 
  39   2.0000     -10.613945      -288.8201 
  40   2.0000     -10.613861      -288.8178 
  41   2.0000     -10.613855      -288.8177 
  42   2.0000     -10.613843      -288.8173 
  43   2.0000     -10.613784      -288.8157 
  44   2.0000     -10.613713      -288.8138 
  45   2.0000     -10.613709      -288.8137 
  46   2.0000     -10.612967      -288.7935 
  47   2.0000     -10.612864      -288.7907 
  48   2.0000      -1.241532       -33.7838 
  49   2.0000      -1.115703       -30.3598 
  50   2.0000      -1.008852       -27.4523 
  51   2.0000      -1.008286       -27.4368 
  52   2.0000      -1.002032       -27.2667 
  53   2.0000      -0.995936       -27.1008 
  54   2.0000      -0.984356       -26.7857 
  55   2.0000      -0.974593       -26.5200 
  56   2.0000      -0.964007       -26.2320 
  57   2.0000      -0.948899       -25.8209 
  58   2.0000      -0.915455       -24.9108 
  59   2.0000      -0.906642       -24.6710 
  60   2.0000      -0.893328       -24.3087 
  61   2.0000      -0.887587       -24.1525 
  62   2.0000      -0.874125       -23.7862 
  63   2.0000      -0.865866       -23.5614 
  64   2.0000      -0.864693       -23.5295 
  65   2.0000      -0.860709       -23.4211 
  66   2.0000      -0.858381       -23.3577 
  67   2.0000      -0.855695       -23.2846 
  68   2.0000      -0.855511       -23.2796 
  69   2.0000      -0.846526       -23.0351 
  70   2.0000      -0.834603       -22.7107 
  71   2.0000      -0.825588       -22.4654 
  72   2.0000      -0.801719       -21.8159 
  73   2.0000      -0.755810       -20.5666 
  74   2.0000      -0.753728       -20.5100 
  75   2.0000      -0.726718       -19.7750 
  76   2.0000      -0.721729       -19.6392 
  77   2.0000      -0.721391       -19.6300 
  78   2.0000      -0.716099       -19.4860 
  79   2.0000      -0.711717       -19.3668 
  80   2.0000      -0.711425       -19.3589 
  81   2.0000      -0.696326       -18.9480 
  82   2.0000      -0.685297       -18.6479 
  83   2.0000      -0.674984       -18.3672 
  84   2.0000      -0.674731       -18.3604 
  85   2.0000      -0.672681       -18.3046 
  86   2.0000      -0.669655       -18.2222 
  87   2.0000      -0.651543       -17.7294 
  88   2.0000      -0.643223       -17.5030 
  89   2.0000      -0.617076       -16.7915 
  90   2.0000      -0.610047       -16.6002 
  91   2.0000      -0.609228       -16.5779 
  92   2.0000      -0.600880       -16.3508 
  93   2.0000      -0.585929       -15.9439 
  94   2.0000      -0.584857       -15.9148 
  95   2.0000      -0.578783       -15.7495 
  96   2.0000      -0.572159       -15.5692 
  97   2.0000      -0.565832       -15.3971 
  98   2.0000      -0.550946       -14.9920 
  99   2.0000      -0.549353       -14.9486 
 100   2.0000      -0.546074       -14.8594 
 101   2.0000      -0.542985       -14.7754 
 102   2.0000      -0.542320       -14.7573 
 103   2.0000      -0.536169       -14.5899 
 104   2.0000      -0.522787       -14.2257 
 105   2.0000      -0.522154       -14.2085 
 106   2.0000      -0.517478       -14.0813 
 107   2.0000      -0.513360       -13.9692 
 108   2.0000      -0.511818       -13.9273 
 109   2.0000      -0.507344       -13.8055 
 110   2.0000      -0.504722       -13.7342 
 111   2.0000      -0.503394       -13.6980 
 112   2.0000      -0.501950       -13.6588 
 113   2.0000      -0.499433       -13.5903 
 114   2.0000      -0.497486       -13.5373 
 115   2.0000      -0.496696       -13.5158 
 116   2.0000      -0.492994       -13.4151 
 117   2.0000      -0.492537       -13.4026 
 118   2.0000      -0.480944       -13.0871 
 119   2.0000      -0.480406       -13.0725 
 120   2.0000      -0.473916       -12.8959 
 121   2.0000      -0.472943       -12.8694 
 122   2.0000      -0.460524       -12.5315 
 123   2.0000      -0.457483       -12.4487 
 124   2.0000      -0.456060       -12.4100 
 125   2.0000      -0.455859       -12.4045 
 126   2.0000      -0.451870       -12.2960 
 127   2.0000      -0.447548       -12.1784 
 128   2.0000      -0.443177       -12.0595 
 129   2.0000      -0.440399       -11.9839 
 130   2.0000      -0.431203       -11.7336 
 131   2.0000      -0.430122       -11.7042 
 132   2.0000      -0.425798       -11.5865 
 133   2.0000      -0.420376       -11.4390 
 134   2.0000      -0.419651       -11.4193 
 135   2.0000      -0.414645       -11.2831 
 136   2.0000      -0.408670       -11.1205 
 137   2.0000      -0.407881       -11.0990 
 138   2.0000      -0.405903       -11.0452 
 139   2.0000      -0.402319       -10.9477 
 140   2.0000      -0.401585       -10.9277 
 141   2.0000      -0.394253       -10.7282 
 142   2.0000      -0.389319       -10.5939 
 143   2.0000      -0.386887       -10.5277 
 144   2.0000      -0.386108       -10.5065 
 145   2.0000      -0.384892       -10.4735 
 146   2.0000      -0.343946        -9.3592 
 147   2.0000      -0.336995        -9.1701 
 148   2.0000      -0.324038        -8.8175 
 149   2.0000      -0.307480        -8.3670 
 150   2.0000      -0.298455        -8.1214 
 151   2.0000      -0.296759        -8.0752 
 152   2.0000      -0.296427        -8.0662 
 153   2.0000      -0.293585        -7.9889 
 154   2.0000      -0.293409        -7.9841 
 155   2.0000      -0.286124        -7.7858 
 156   2.0000      -0.279331        -7.6010 
 157   2.0000      -0.259915        -7.0727 
 158   2.0000      -0.257163        -6.9978 
 159   2.0000      -0.245706        -6.6860 
 160   2.0000      -0.206756        -5.6261 
 161   0.0000      -0.008448        -0.2299 
 162   0.0000      -0.002816        -0.0766 
 163   0.0000       0.002777         0.0756 
 164   0.0000       0.023513         0.6398 
 165   0.0000       0.032060         0.8724 
 166   0.0000       0.033356         0.9077 
 167   0.0000       0.041695         1.1346 
 168   0.0000       0.043336         1.1792 
 169   0.0000       0.044985         1.2241 
 170   0.0000       0.052834         1.4377 
 171   0.0000       0.055468         1.5094 
 172   0.0000       0.063904         1.7389 
 173   0.0000       0.073089         1.9888 
 174   0.0000       0.093150         2.5347 
 175   0.0000       0.095716         2.6046 
 176   0.0000       0.102312         2.7840 
 177   0.0000       0.105287         2.8650 
 178   0.0000       0.105410         2.8684 
 179   0.0000       0.109880         2.9900 
 180   0.0000       0.111234         3.0268 
 181   0.0000       0.112949         3.0735 
 182   0.0000       0.113924         3.1000 
 183   0.0000       0.116494         3.1700 
 184   0.0000       0.119788         3.2596 
 185   0.0000       0.121073         3.2946 
 186   0.0000       0.129043         3.5114 
 187   0.0000       0.131485         3.5779 
 188   0.0000       0.136739         3.7208 
 189   0.0000       0.138281         3.7628 
 190   0.0000       0.138440         3.7672 
 191   0.0000       0.145004         3.9458 
 192   0.0000       0.146071         3.9748 
 193   0.0000       0.150275         4.0892 
 194   0.0000       0.154025         4.1912 
 195   0.0000       0.158397         4.3102 
 196   0.0000       0.159429         4.3383 
 197   0.0000       0.159933         4.3520 
 198   0.0000       0.162022         4.4088 
 199   0.0000       0.163839         4.4583 
 200   0.0000       0.165550         4.5048 
 201   0.0000       0.169973         4.6252 
 202   0.0000       0.171357         4.6629 
 203   0.0000       0.172644         4.6979 
 204   0.0000       0.175872         4.7857 
 205   0.0000       0.178669         4.8618 
 206   0.0000       0.180364         4.9080 
 207   0.0000       0.182320         4.9612 
 208   0.0000       0.184273         5.0143 
 209   0.0000       0.187272         5.0959 
 210   0.0000       0.193097         5.2544 
 211   0.0000       0.195787         5.3276 
 212   0.0000       0.196612         5.3501 
 213   0.0000       0.203495         5.5374 
 214   0.0000       0.206675         5.6239 
 215   0.0000       0.209594         5.7033 
 216   0.0000       0.214253         5.8301 
 217   0.0000       0.218010         5.9323 
 218   0.0000       0.219148         5.9633 
 219   0.0000       0.223440         6.0801 
 220   0.0000       0.226175         6.1545 
 221   0.0000       0.229062         6.2331 
 222   0.0000       0.232978         6.3397 
 223   0.0000       0.235128         6.3982 
 224   0.0000       0.237774         6.4702 
 225   0.0000       0.239522         6.5177 
 226   0.0000       0.245202         6.6723 
 227   0.0000       0.247624         6.7382 
 228   0.0000       0.248834         6.7711 
 229   0.0000       0.249821         6.7980 
 230   0.0000       0.250397         6.8137 
 231   0.0000       0.251765         6.8509 
 232   0.0000       0.252670         6.8755 
 233   0.0000       0.254433         6.9235 
 234   0.0000       0.256522         6.9803 
 235   0.0000       0.258192         7.0258 
 236   0.0000       0.259567         7.0632 
 237   0.0000       0.263395         7.1673 
 238   0.0000       0.263840         7.1794 
 239   0.0000       0.265195         7.2163 
 240   0.0000       0.268997         7.3198 
 241   0.0000       0.270149         7.3511 
 242   0.0000       0.272236         7.4079 
 243   0.0000       0.275294         7.4911 
 244   0.0000       0.276405         7.5214 
 245   0.0000       0.278603         7.5812 
 246   0.0000       0.280039         7.6202 
 247   0.0000       0.282510         7.6875 
 248   0.0000       0.286123         7.7858 
 249   0.0000       0.286895         7.8068 
 250   0.0000       0.289213         7.8699 
 251   0.0000       0.290721         7.9109 
 252   0.0000       0.294221         8.0062 
 253   0.0000       0.295961         8.0535 
 254   0.0000       0.297261         8.0889 
 255   0.0000       0.300399         8.1743 
 256   0.0000       0.300728         8.1832 
 257   0.0000       0.302020         8.2184 
 258   0.0000       0.303654         8.2628 
 259   0.0000       0.304768         8.2932 
 260   0.0000       0.308383         8.3915 
 261   0.0000       0.309222         8.4144 
 262   0.0000       0.310338         8.4447 
 263   0.0000       0.313060         8.5188 
 264   0.0000       0.314319         8.5530 
 265   0.0000       0.316761         8.6195 
 266   0.0000       0.320037         8.7087 
 267   0.0000       0.321200         8.7403 
 268   0.0000       0.326403         8.8819 
 269   0.0000       0.327542         8.9129 
 270   0.0000       0.330150         8.9838 
 271   0.0000       0.333410         9.0725 
[...]
   159a -> 162a  :     0.449998 
   160a -> 165a  :     0.046393 
   160a -> 170a  :     0.016457 

STATE 19:  E=   0.175925 au      4.787 eV    38611.1 cm**-1 <S**2> =   0.000000
   150a -> 162a  :     0.017423 
   151a -> 163a  :     0.037472 
   152a -> 161a  :     0.052626 
   153a -> 161a  :     0.015752 
   153a -> 163a  :     0.055487 
   154a -> 161a  :     0.075790 
   156a -> 163a  :     0.033152 
   157a -> 163a  :     0.011425 
   158a -> 161a  :     0.057788 
   158a -> 162a  :     0.017056 
   159a -> 162a  :     0.301939 
   160a -> 165a  :     0.144059 
   160a -> 168a  :     0.015730 
   160a -> 170a  :     0.036626 

STATE 20:  E=   0.178882 au      4.868 eV    39260.2 cm**-1 <S**2> =   0.000000
   150a -> 161a  :     0.012342 
   151a -> 163a  :     0.013507 
   152a -> 161a  :     0.019396 
   153a -> 163a  :     0.025479 
   154a -> 161a  :     0.038035 
   155a -> 162a  :     0.013740 
   156a -> 163a  :     0.023546 
   158a -> 161a  :     0.510152 
   158a -> 162a  :     0.014525 
   158a -> 167a  :     0.041045 
   159a -> 162a  :     0.065777 
   160a -> 165a  :     0.064700 
   160a -> 172a  :     0.036189 

STATE 21:  E=   0.179629 au      4.888 eV    39424.0 cm**-1 <S**2> =   0.000000
   151a -> 161a  :     0.090961 
   152a -> 163a  :     0.049379 
   153a -> 161a  :     0.118484 
   153a -> 163a  :     0.012176 
   154a -> 161a  :     0.021410 
   154a -> 163a  :     0.107937 
   156a -> 161a  :     0.014609 
   157a -> 166a  :     0.011428 
   157a -> 167a  :     0.017344 
   157a -> 171a  :     0.012908 
   159a -> 162a  :     0.010491 
   160a -> 164a  :     0.019983 
   160a -> 166a  :     0.179179 
   160a -> 169a  :     0.053037 
   160a -> 171a  :     0.133639 
   160a -> 175a  :     0.023071 

STATE 22:  E=   0.196671 au      5.352 eV    43164.4 cm**-1 <S**2> =   0.000000
   150a -> 162a  :     0.016899 
   155a -> 162a  :     0.302150 
   157a -> 165a  :     0.027302 
   157a -> 168a  :     0.010060 
   158a -> 161a  :     0.039827 
   158a -> 164a  :     0.244597 
   158a -> 166a  :     0.043148 
   158a -> 167a  :     0.020233 
   159a -> 162a  :     0.042756 
   159a -> 164a  :     0.119826 

STATE 23:  E=   0.192493 au      5.238 eV    42247.2 cm**-1 <S**2> =   0.000000
   148a -> 161a  :     0.020212 
   149a -> 161a  :     0.021293 
   150a -> 163a  :     0.106306 
   152a -> 165a  :     0.011803 
   153a -> 161a  :     0.026019 
   153a -> 163a  :     0.013963 
   154a -> 163a  :     0.011406 
   156a -> 161a  :     0.046718 
   156a -> 163a  :     0.019479 
   156a -> 164a  :     0.018249 
   157a -> 161a  :     0.056752 
   157a -> 163a  :     0.038370 
   157a -> 164a  :     0.043376 
   157a -> 166a  :     0.022725 
   157a -> 169a  :     0.021535 
   158a -> 163a  :     0.017710 
   159a -> 161a  :     0.010325 
   159a -> 163a  :     0.100841 
   159a -> 165a  :     0.070838 
   159a -> 168a  :     0.036907 
   159a -> 170a  :     0.015250 
   160a -> 167a  :     0.017087 
   160a -> 168a  :     0.019981 
   160a -> 174a  :     0.011451 
   160a -> 175a  :     0.019805 

STATE 24:  E=   0.186028 au      5.062 eV    40828.5 cm**-1 <S**2> =   0.000000
   149a -> 161a  :     0.107682 
   150a -> 161a  :     0.013896 
   150a -> 163a  :     0.026291 
   153a -> 163a  :     0.018500 
   154a -> 161a  :     0.015748 
   156a -> 163a  :     0.109330 
   156a -> 168a  :     0.012121 
   156a -> 170a  :     0.011506 
   157a -> 161a  :     0.015129 
   157a -> 163a  :     0.228341 
   159a -> 161a  :     0.055156 
   159a -> 163a  :     0.021682 
   159a -> 165a  :     0.011167 
   160a -> 168a  :     0.105954 
   160a -> 170a  :     0.016724 

STATE 25:  E=   0.175204 au      4.768 eV    38452.7 cm**-1 <S**2> =   0.000000
   156a -> 162a  :     0.360981 
   157a -> 162a  :     0.555215 
   160a -> 173a  :     0.037100 

STATE 26:  E=   0.195532 au      5.321 eV    42914.3 cm**-1 <S**2> =   0.000000
   153a -> 161a  :     0.042742 
   153a -> 163a  :     0.024668 
   154a -> 163a  :     0.014938 
   155a -> 162a  :     0.015082 
   157a -> 163a  :     0.030250 
   157a -> 165a  :     0.040878 
   157a -> 175a  :     0.013795 
   158a -> 164a  :     0.021560 
   159a -> 163a  :     0.010893 
   159a -> 164a  :     0.067278 
   159a -> 166a  :     0.027790 
   159a -> 169a  :     0.011349 
   160a -> 165a  :     0.013509 
   160a -> 169a  :     0.019641 
   160a -> 170a  :     0.013995 
   160a -> 171a  :     0.013391 
   160a -> 174a  :     0.035352 
   160a -> 175a  :     0.263680 
   160a -> 176a  :     0.062997 
   160a -> 182a  :     0.012146 
   160a -> 183a  :     0.016700 

STATE 27:  E=   0.181061 au      4.927 eV    39738.3 cm**-1 <S**2> =   0.000000
   154a -> 161a  :     0.010418 
   157a -> 162a  :     0.058754 
   157a -> 173a  :     0.011804 
   159a -> 164a  :     0.010681 
   160a -> 162a  :     0.019862 
   160a -> 171a  :     0.017579 
   160a -> 173a  :     0.692347 

STATE 28:  E=   0.192806 au      5.247 eV    42315.9 cm**-1 <S**2> =   0.000000
   153a -> 163a  :     0.024847 
   154a -> 161a  :     0.058880 
   154a -> 163a  :     0.026086 
   155a -> 162a  :     0.048702 
   157a -> 162a  :     0.011557 
   157a -> 165a  :     0.069945 
   158a -> 164a  :     0.066403 
   159a -> 164a  :     0.115730 
   159a -> 166a  :     0.060315 
   159a -> 169a  :     0.014353 
   160a -> 165a  :     0.020054 
   160a -> 170a  :     0.016457 
   160a -> 173a  :     0.099677 
   160a -> 174a  :     0.012333 
   160a -> 175a  :     0.105255 
   160a -> 176a  :     0.025909 

STATE 29:  E=   0.196131 au      5.337 eV    43045.8 cm**-1 <S**2> =   0.000000
   148a -> 161a  :     0.022032 
   150a -> 163a  :     0.014428 
   151a -> 161a  :     0.036255 
   152a -> 161a  :     0.039968 
   152a -> 163a  :     0.060465 
   154a -> 161a  :     0.010689 
   156a -> 161a  :     0.018100 
   156a -> 164a  :     0.011675 
   157a -> 164a  :     0.077313 
   157a -> 166a  :     0.015377 
   157a -> 167a  :     0.019234 
   157a -> 169a  :     0.012948 
   159a -> 165a  :     0.027237 
   159a -> 168a  :     0.012291 
   159a -> 169a  :     0.012438 
   159a -> 170a  :     0.020406 
   159a -> 172a  :     0.035013 
   160a -> 166a  :     0.042020 
   160a -> 167a  :     0.034141 
   160a -> 168a  :     0.021684 
   160a -> 169a  :     0.109182 
   160a -> 170a  :     0.063247 
   160a -> 171a  :     0.030683 
   160a -> 173a  :     0.010040 
   160a -> 174a  :     0.017168 

STATE 30:  E=   0.192141 au      5.228 eV    42170.0 cm**-1 <S**2> =   0.000000
   150a -> 161a  :     0.015350 
   151a -> 161a  :     0.042708 
   151a -> 163a  :     0.085664 
   152a -> 161a  :     0.063521 
   153a -> 161a  :     0.016108 
   153a -> 163a  :     0.038153 
   154a -> 161a  :     0.014927 
   157a -> 164a  :     0.010528 
   157a -> 168a  :     0.013005 
   159a -> 164a  :     0.020162 
   159a -> 169a  :     0.043392 
   160a -> 165a  :     0.021075 
   160a -> 168a  :     0.083375 
   160a -> 169a  :     0.042285 
   160a -> 170a  :     0.259600 
   160a -> 171a  :     0.017780 


-------------------------
TD-DFT-EXCITATION SPECTRA
-------------------------

Center of mass = (  0.0001,  0.0175, -0.0088)
Calculating the Dipole integrals                  ... done
Transforming integrals                            ... done
Calculating the Linear Momentum integrals         ... done
Transforming integrals                            ... done
Calculating angular momentum integrals            ... done
Transforming integrals                            ... done

-----------------------------------------------------------------------------
         ABSORPTION SPECTRUM VIA TRANSITION ELECTRIC DIPOLE MOMENTS
-----------------------------------------------------------------------------
State   Energy    Wavelength  fosc         T2        TX        TY        TZ  
        (cm-1)      (nm)                 (au**2)    (au)      (au)      (au) 
-----------------------------------------------------------------------------
   1   24166.6    413.8   1.049028732  14.29051  -3.78017   0.02002  -0.02097
   2   24116.8    414.6   0.000212936   0.00291   0.02763   0.04611  -0.00410
   3   29436.1    339.7   0.712812732   7.97207   0.00528   2.81493  -0.21958
   4   29259.1    341.8   0.320582968   3.60707   1.89852   0.02539   0.04542
   5   32088.4    311.6   0.106660098   1.09428   0.05361  -1.03670   0.12907
   6   35545.2    281.3   0.096473048   0.89351   0.02432  -0.94248   0.06825
   7   34586.3    289.1   0.863379941   8.21815  -2.86666  -0.01944  -0.00184
   8   34782.1    287.5   0.000567085   0.00537   0.00852   0.01090  -0.07195
   9   33410.1    299.3   0.000838917   0.00827  -0.08730   0.02295  -0.01089
  10   34486.4    290.0   0.033872928   0.32336   0.00975   0.55966  -0.10020
  11   33999.5    294.1   0.013184523   0.12766  -0.35670  -0.01642  -0.01258
  12   34159.3    292.7   0.010674269   0.10287   0.00175   0.31434  -0.06372
  13   38550.6    259.4   0.000180130   0.00154  -0.00682  -0.02739  -0.02723
  14   38563.9    259.3   0.000091798   0.00078  -0.00945   0.02271  -0.01336
  15   35283.3    283.4   0.071291115   0.66518   0.81440   0.01008   0.04287
  16   38314.5    261.0   0.202603407   1.74084   1.31562   0.00533   0.09985
  17   41446.5    241.3   0.023815122   0.18916  -0.04278  -0.17506  -0.39584
  18   38522.2    259.6   0.100907977   0.86236   0.09830   0.39675   0.83384
  19   38611.1    259.0   0.011867225   0.10118   0.05809  -0.22827   0.21378
  20   39260.2    254.7   0.028811513   0.24160   0.02118   0.19769  -0.44952
  21   39424.0    253.7   0.113491148   0.94771  -0.95194   0.01168   0.20345
  22   43164.4    231.7   0.924504874   7.05114  -0.14264   1.06944   2.42633
  23   42247.2    236.7   0.122045152   0.95104   0.86044  -0.16144   0.42967
  24   40828.5    244.9   0.068036357   0.54860  -0.34332  -0.64945   0.09458
  25   38452.7    260.1   0.011387651   0.09750  -0.21750   0.00514   0.22397
  26   42914.3    233.0   0.017250297   0.13233  -0.00581   0.32415  -0.16500
  27   39738.3    251.6   0.059510232   0.49301  -0.40972   0.00917  -0.57014
  28   42315.9    236.3   0.264754667   2.05975   0.15715   0.15090  -1.41855
  29   43045.8    232.3   0.163878425   1.25333  -0.97142  -0.22676   0.50819
  30   42170.0    237.1   0.144473294   1.12787   0.48709  -0.58929  -0.73712

-----------------------------------------------------------------------------
         ABSORPTION SPECTRUM VIA TRANSITION VELOCITY DIPOLE MOMENTS
-----------------------------------------------------------------------------
State   Energy    Wavelength   fosc        P2         PX        PY        PZ  
        (cm-1)      (nm)                 (au**2)     (au)      (au)      (au) 
-----------------------------------------------------------------------------
   1   24166.6    413.8   1.393248674   0.23012   0.47969  -0.00250   0.00260
   2   24116.8    414.6   0.000320460   0.00005  -0.00328  -0.00646   0.00056
   3   29436.1    339.7   0.884077674   0.17786  -0.00075  -0.42045   0.03289
   4   29259.1    341.8   0.444968386   0.08898  -0.29818  -0.00400  -0.00732
   5   32088.4    311.6   0.133654725   0.02931  -0.00879   0.16970  -0.02092
   6   35545.2    281.3   0.105197170   0.02556  -0.00405   0.15937  -0.01189
   7   34586.3    289.1   0.998893203   0.23612   0.48591   0.00329   0.00029
   8   34782.1    287.5   0.000567017   0.00013  -0.00148  -0.00219   0.01130
   9   33410.1    299.3   0.000918537   0.00021   0.01380  -0.00402   0.00178
  10   34486.4    290.0   0.044110325   0.01040  -0.00182  -0.10036   0.01795
  11   33999.5    294.1   0.017896059   0.00416   0.06437   0.00293   0.00257
  12   34159.3    292.7   0.014744601   0.00344  -0.00032  -0.05745   0.01189
  13   38550.6    259.4   0.000235730   0.00006   0.00127   0.00533   0.00566
  14   38563.9    259.3   0.000115529   0.00003   0.00188  -0.00425   0.00298
  15   35283.3    283.4   0.108366456   0.02613  -0.16140  -0.00201  -0.00876
  16   38314.5    261.0   0.258763373   0.06776  -0.25957  -0.00110  -0.01949
  17   41446.5    241.3   0.026687150   0.00756   0.00848   0.03483   0.07921
  18   38522.2    259.6   0.137658649   0.03624  -0.02015  -0.08094  -0.17113
  19   38611.1    259.0   0.016418138   0.00433  -0.01181   0.04664  -0.04492
  20   39260.2    254.7   0.037961571   0.01019  -0.00433  -0.04140   0.09194
  21   39424.0    253.7   0.149992741   0.04041   0.19703  -0.00249  -0.03985
  22   43164.4    231.7   1.083116790   0.31953   0.03042  -0.22737  -0.51663
  23   42247.2    236.7   0.149467534   0.04316  -0.18406   0.03422  -0.09005
  24   40828.5    244.9   0.088916287   0.02481   0.07340   0.13806  -0.01908
  25   38452.7    260.1   0.016935731   0.00445   0.04649  -0.00115  -0.04784
  26   42914.3    233.0   0.022502029   0.00660   0.00053  -0.06949   0.04208
  27   39738.3    251.6   0.083497585   0.02268   0.08800  -0.00161   0.12219
  28   42315.9    236.3   0.323695535   0.09362  -0.03333  -0.03221   0.30243
  29   43045.8    232.3   0.205682187   0.06051   0.21329   0.04988  -0.11194
  30   42170.0    237.1   0.190183911   0.05481  -0.10694   0.12971   0.16296

-------------------------------------------------------------------
                             CD SPECTRUM
-------------------------------------------------------------------
State  Energy     Wavelength     R         MX        MY        MZ   
       (cm-1)       (nm)     (1e40*cgs)   (au)      (au)      (au)  
-------------------------------------------------------------------
   1   24166.6    413.8     63.68025  -0.04266   0.32961   1.56302
   2   24116.8    414.6     -2.98534   0.00457  -0.14183  -0.01992
   3   29436.1    339.7     25.91335   0.18120   0.01857  -0.00793
   4   29259.1    341.8     -2.05604   0.00152  -0.10227  -0.10255
   5   32088.4    311.6     -8.78338  -0.06105   0.01431  -0.00408
   6   35545.2    281.3     -1.13720   0.16197   0.00679   0.00073
   7   34586.3    289.1     57.57896  -0.04432   0.20594   0.49841
   8   34782.1    287.5     -0.26104  -0.08088  -0.00163  -0.00212
   9   33410.1    299.3      1.18588  -0.05178   0.03900   0.26632
  10   34486.4    290.0    -24.91165  -0.00999  -0.09472  -0.00267
  11   33999.5    294.1    -13.49504   0.07880   0.02526   0.00816
  12   34159.3    292.7     22.09152  -0.00162   0.14617  -0.01433
  13   38550.6    259.4     -4.75780   0.08476   0.17277   0.17559
  14   38563.9    259.3     -3.27066   0.10963  -0.14474   0.19566
  15   35283.3    283.4    -14.77152  -0.01216  -0.10979  -0.47408
  16   38314.5    261.0    -39.83330  -0.05844  -0.09838  -0.07091
  17   41446.5    241.3      8.67472  -0.44061   0.01576  -0.00583
  18   38522.2    259.6     88.91760   1.00545   0.02485   0.09583
  19   38611.1    259.0     17.17415   0.31584  -0.00636   0.07779
  20   39260.2    254.7     -6.54254  -0.34745  -0.04803  -0.00662
  21   39424.0    253.7    -157.58613   0.16947  -0.02298  -0.84870
  22   43164.4    231.7    -45.67777   2.86279   0.03781   0.11171
  23   42247.2    236.7     10.61400   0.21175   0.06424  -0.34750
  24   40828.5    244.9    -128.40713  -0.02046   0.44545   0.10473
  25   38452.7    260.1    -20.62726   0.29540   0.11750   0.08882
  26   42914.3    233.0     60.19191  -0.95957   0.17038  -0.40526
  27   39738.3    251.6     -3.34306  -0.35367   0.30499   0.27149
  28   42315.9    236.3    -126.74713  -1.01431   0.63743   0.14496
  29   43045.8    232.3    146.28685  -0.56421  -1.10395  -0.96050
  30   42170.0    237.1    155.28790  -0.00317  -1.89592   1.06674

Total run time:    40672.558 sec

           *** ORCA-CIS/TD-DFT FINISHED WITHOUT ERROR ***

Maximum memory used throughout the entire CIS-calculation: 5959.1 MB

-----------------------
CIS/TD-DFT TOTAL ENERGY
-----------------------

    E(SCF)  =  -1898.162326914 Eh
    DE(CIS) =      0.110111056 Eh (Root  1)
    ----------------------------- ---------
    E(tot)  =  -1898.052215858 Eh



-------------------------------------------------------------------------------
                          DFT DISPERSION CORRECTION                            
                                                                               
                              DFTD3 V3.1  Rev 1                                
                          USING Becke-Johnson damping                          
-------------------------------------------------------------------------------
The B2PLYP functional is recognized
Active option DFTDOPT                   ...         4   

molecular C6(AA) [au] = 85023.816271 


            DFT-D V3
 parameters
 s6 scaling factor         :     0.6400 
 a1 scaling factor         :     0.3065 
 s8 scaling factor         :     0.9147 
 a2 scaling factor         :     5.0570 
 ad hoc parameters k1-k3   :    16.0000     1.3333    -4.0000 

 Edisp/kcal,au: -61.174721841319  -0.097488114274 
 E6   /kcal   : -34.129562687 
 E8   /kcal   : -27.045159154 
 % E8         :  44.209696979 

-------------------------   ----------------
Dispersion correction           -0.097488114
-------------------------   ----------------


-------------------------   --------------------
FINAL SINGLE POINT ENERGY     -1898.149703972069
-------------------------   --------------------


                            ***************************************
                            *     ORCA property calculations      *
                            ***************************************


  WARNING: The energy has been calculated at the MP2 level but the densities
           used in the property calculations are still SCF densities
           MP2 response densities have not been calculated 
           use %mp2 Density relaxed end
           or  %mp2 Density unrelaxed end

                                    ---------------------
                                    Active property flags
                                    ---------------------
   (+) Dipole Moment


------------------------------------------------------------------------------
                       ORCA ELECTRIC PROPERTIES CALCULATION
------------------------------------------------------------------------------

Dipole Moment Calculation                       ... on
Quadrupole Moment Calculation                   ... off
Polarizability Calculation                      ... off
GBWName                                         ... POZ_1_M06L_def2TZVP_coords.gbw
Electron density                                ... POZ_1_M06L_def2TZVP_coords.scfp
The origin for moment calculation is the CENTER OF MASS  = ( 0.000063,  0.017491 -0.008787)

-------------
DIPOLE MOMENT
-------------
                                X             Y             Z
Electronic contribution:      0.01912       7.14504      -2.91741
Nuclear contribution   :     -0.02043      -5.63200       2.82928
                        -----------------------------------------
Total Dipole Moment    :     -0.00131       1.51304      -0.08813
                        -----------------------------------------
Magnitude (a.u.)       :      1.51560
Magnitude (Debye)      :      3.85235



--------------------
Rotational spectrum 
--------------------
 
Rotational constants in cm-1:     0.002297     0.000767     0.000599 
Rotational constants in MHz :    68.851724    22.987264    17.972395 

 Dipole components along the rotational axes: 
x,y,z [a.u.] :    -0.001269    -1.513020    -0.088416 
x,y,z [Debye]:    -0.003225    -3.845791    -0.224736 

 

Timings for individual modules:

Sum of individual times         ...    42846.650 sec (= 714.111 min)
GTO integral calculation        ...        3.564 sec (=   0.059 min)   0.0 %
SCF iterations                  ...      647.785 sec (=  10.796 min)   1.5 %
MP2 module                      ...     1522.182 sec (=  25.370 min)   3.6 %
CIS module                      ...    40673.119 sec (= 677.885 min)  94.9 %
                             ****ORCA TERMINATED NORMALLY****
TOTAL RUN TIME: 0 days 11 hours 54 minutes 14 seconds 301 msec
