
                                 *****************
                                 * O   R   C   A *
                                 *****************

                                            #,                                       
                                            ###                                      
                                            ####                                     
                                            #####                                    
                                            ######                                   
                                           ########,                                 
                                     ,,################,,,,,                         
                               ,,#################################,,                 
                          ,,##########################################,,             
                       ,#########################################, ''#####,          
                    ,#############################################,,   '####,        
                  ,##################################################,,,,####,       
                ,###########''''           ''''###############################       
              ,#####''   ,,,,##########,,,,          '''####'''          '####       
            ,##' ,,,,###########################,,,                        '##       
           ' ,,###''''                  '''############,,,                           
         ,,##''                                '''############,,,,        ,,,,,,###''
      ,#''                                            '''#######################'''  
     '                                                          ''''####''''         
             ,#######,   #######,   ,#######,      ##                                
            ,#'     '#,  ##    ##  ,#'     '#,    #''#        ######   ,####,        
            ##       ##  ##   ,#'  ##            #'  '#       #        #'  '#        
            ##       ##  #######   ##           ,######,      #####,   #    #        
            '#,     ,#'  ##    ##  '#,     ,#' ,#      #,         ##   #,  ,#        
             '#######'   ##     ##  '#######'  #'      '#     #####' # '####'        



                  #######################################################
                  #                        -***-                        #
                  #          Department of theory and spectroscopy      #
                  #    Directorship and core code : Frank Neese         #
                  #        Max Planck Institute fuer Kohlenforschung    #
                  #                Kaiser Wilhelm Platz 1               #
                  #                 D-45470 Muelheim/Ruhr               #
                  #                      Germany                        #
                  #                                                     #
                  #                  All rights reserved                #
                  #                        -***-                        #
                  #######################################################


                         Program Version 5.0.2 -  RELEASE  -


 With contributions from (in alphabetic order):
   Daniel Aravena         : Magnetic Suceptibility
   Michael Atanasov       : Ab Initio Ligand Field Theory (pilot matlab implementation)
   Alexander A. Auer      : GIAO ZORA, VPT2 properties, NMR spectrum
   Ute Becker             : Parallelization
   Giovanni Bistoni       : ED, misc. LED, open-shell LED, HFLD
   Martin Brehm           : Molecular dynamics
   Dmytro Bykov           : SCF Hessian
   Vijay G. Chilkuri      : MRCI spin determinant printing, contributions to CSF-ICE
   Dipayan Datta          : RHF DLPNO-CCSD density
   Achintya Kumar Dutta   : EOM-CC, STEOM-CC
   Dmitry Ganyushin       : Spin-Orbit,Spin-Spin,Magnetic field MRCI
   Miquel Garcia          : C-PCM and meta-GGA Hessian, CC/C-PCM, Gaussian charge scheme
   Yang Guo               : DLPNO-NEVPT2, F12-NEVPT2, CIM, IAO-localization
   Andreas Hansen         : Spin unrestricted coupled pair/coupled cluster methods
   Benjamin Helmich-Paris : MC-RPA, TRAH-SCF, COSX integrals
   Lee Huntington         : MR-EOM, pCC
   Robert Izsak           : Overlap fitted RIJCOSX, COSX-SCS-MP3, EOM
   Marcus Kettner         : VPT2
   Christian Kollmar      : KDIIS, OOCD, Brueckner-CCSD(T), CCSD density, CASPT2, CASPT2-K
   Simone Kossmann        : Meta GGA functionals, TD-DFT gradient, OOMP2, MP2 Hessian
   Martin Krupicka        : Initial AUTO-CI
   Lucas Lang             : DCDCAS
   Marvin Lechner         : AUTO-CI (C++ implementation), FIC-MRCC
   Dagmar Lenk            : GEPOL surface, SMD
   Dimitrios Liakos       : Extrapolation schemes; Compound Job, initial MDCI parallelization
   Dimitrios Manganas     : Further ROCIS development; embedding schemes
   Dimitrios Pantazis     : SARC Basis sets
   Anastasios Papadopoulos: AUTO-CI, single reference methods and gradients
   Taras Petrenko         : DFT Hessian,TD-DFT gradient, ASA, ECA, R-Raman, ABS, FL, XAS/XES, NRVS
   Peter Pinski           : DLPNO-MP2, DLPNO-MP2 Gradient
   Christoph Reimann      : Effective Core Potentials
   Marius Retegan         : Local ZFS, SOC
   Christoph Riplinger    : Optimizer, TS searches, QM/MM, DLPNO-CCSD(T), (RO)-DLPNO pert. Triples
   Tobias Risthaus        : Range-separated hybrids, TD-DFT gradient, RPA, STAB
   Michael Roemelt        : Original ROCIS implementation
   Masaaki Saitow         : Open-shell DLPNO-CCSD energy and density
   Barbara Sandhoefer     : DKH picture change effects
   Avijit Sen             : IP-ROCIS
   Kantharuban Sivalingam : CASSCF convergence, NEVPT2, FIC-MRCI
   Bernardo de Souza      : ESD, SOC TD-DFT
   Georgi Stoychev        : AutoAux, RI-MP2 NMR, DLPNO-MP2 response
   Willem Van den Heuvel  : Paramagnetic NMR
   Boris Wezisla          : Elementary symmetry handling
   Frank Wennmohs         : Technical directorship


 We gratefully acknowledge several colleagues who have allowed us to
 interface, adapt or use parts of their codes:
   Stefan Grimme, W. Hujo, H. Kruse, P. Pracht,  : VdW corrections, initial TS optimization,
                  C. Bannwarth, S. Ehlert          DFT functionals, gCP, sTDA/sTD-DF
   Ed Valeev, F. Pavosevic, A. Kumar             : LibInt (2-el integral package), F12 methods
   Garnet Chan, S. Sharma, J. Yang, R. Olivares  : DMRG
   Ulf Ekstrom                                   : XCFun DFT Library
   Mihaly Kallay                                 : mrcc  (arbitrary order and MRCC methods)
   Jiri Pittner, Ondrej Demel                    : Mk-CCSD
   Frank Weinhold                                : gennbo (NPA and NBO analysis)
   Christopher J. Cramer and Donald G. Truhlar   : smd solvation model
   Lars Goerigk                                  : TD-DFT with DH, B97 family of functionals
   V. Asgeirsson, H. Jonsson                     : NEB implementation
   FAccTs GmbH                                   : IRC, NEB, NEB-TS, DLPNO-Multilevel, CI-OPT
                                                   MM, QMMM, 2- and 3-layer-ONIOM, Crystal-QMMM,
                                                   LR-CPCM, SF, NACMEs, symmetry and pop. for TD-DFT,
                                                   nearIR, NL-DFT gradient (VV10), updates on ESD,
                                                   ML-optimized integration grids
   S Lehtola, MJT Oliveira, MAL Marques          : LibXC Library
   Liviu Ungur et al                             : ANISO software


 Your calculation uses the libint2 library for the computation of 2-el integrals
 For citations please refer to: http://libint.valeyev.net

 Your ORCA version has been built with support for libXC version: 5.1.0
 For citations please refer to: https://tddft.org/programs/libxc/

 This ORCA versions uses:
   CBLAS   interface :  Fast vector & matrix operations
   LAPACKE interface :  Fast linear algebra routines
   SCALAPACK package :  Parallel linear algebra routines
   Shared memory     :  Shared parallel matrices
   BLAS/LAPACK       :  OpenBLAS 0.3.15  USE64BITINT DYNAMIC_ARCH NO_AFFINITY Zen SINGLE_THREADED
        Core in use  :  Zen
   Copyright (c) 2011-2014, The OpenBLAS Project


Your calculation utilizes the SMD solvation module
Please cite in your paper:
A.V. Marenich, C.J. Cramer, D.G. Truhlar J. Phys. Chem. B, 113, (2009), 6378 

================================================================================

----- Orbital basis set information -----
Your calculation utilizes the basis: def2-TZVP
   F. Weigend and R. Ahlrichs, Phys. Chem. Chem. Phys. 7, 3297 (2005).

----- AuxJ basis set information -----
Your calculation utilizes the auxiliary basis: def2/J
   F. Weigend, Phys. Chem. Chem. Phys. 8, 1057 (2006).

----- AuxC basis set information -----
Your calculation utilizes the auxiliary basis: def2-TZVP/C
  H-La, Hf-Rn : A. Hellweg, C. Hattig, S. Hofener and W. Klopper, Theor. Chem. Acc. 117, 587 (2007).
        Ce-Lu : J. Chmela and M. E. Harding, Mol. Phys. (2018).

================================================================================
                                        WARNINGS
                       Please study these warnings very carefully!
================================================================================

INFO   : Checking CIS options ...
  ===> : (D) CORRECTION FOUND - SETTING MODE=3
  ===> : JK MODE FOUND - ACTIVATING RI-MP2 CODE
  ===> : MP2 AND CIS FOUND - CHECKING
WARNING: CIS(D) and MP2 runs must have the same orbital window
  ===> : adjusting orbital windows

WARNING: No MP2 level density has been requested!
         To caclulate MP2 level properties use
         %mp2 Density relaxed end
         or
         %mp2 Density unrelaxed end
         Otherwise for double-hybrid DFT only the energy is correct!

WARNING: The frozen-core approximation is turned on by default for 
         the MP2 part of double-hybrid DFT.

WARNING:  You are using a Range-Separated Double Hybrid functional with Doubles Correction 
          Changing Mode to RPA_AOINTS 


WARNING: CIS/ROCIS methods need fully converged wavefunctions
  ===> : Setting SCFConvForced true
         You can overwrite this default with %scf ConvForced false 


INFO   : the flag for use of the SHARK integral package has been found!

================================================================================
                                       INPUT FILE
================================================================================
NAME = POZ_1_M06L_def2TZVP_coords.inp
|  1> %maxcore 20000
|  2> %pal
|  3>  nprocs= 4
|  4> end
|  5> ! RI-wPBEPP86   def2-TZVP def2/J def2-TZVP/C RIJCOSX CPCM TightSCF
|  6> %TDDFT  
|  7>    NROOTS   30
|  8>    dcorr 1
|  9>    TDA      FALSE
| 10> END
| 11> 
| 12> %CPCM
| 13>    SMD          TRUE
| 14>    SMDsolvent   "N,N-DIMETHYLACETAMIDE"
| 15> END
| 16>    
| 17> 
| 18> * xyz 0 1
| 19> C                   3.61765600    1.45129200   -0.41710800
| 20> C                   2.44517500    2.18143900   -0.52558900
| 21> C                   1.20333900    1.55532600   -0.48552500
| 22> C                   1.18228700    0.16538700   -0.32119200
| 23> C                   2.34675200   -0.55878600   -0.21041400
| 24> C                   3.60126000    0.06610900   -0.25821900
| 25> C                  -1.17577200    0.16028500   -0.34751100
| 26> C                  -1.19916600    1.55107000   -0.50445000
| 27> C                  -2.44211400    2.17400900   -0.55758300
| 28> H                  -2.48898600    3.24685300   -0.69037300
| 29> C                  -3.61362200    1.44116500   -0.45677800
| 30> C                  -3.59444600    0.05559400   -0.30227300
| 31> C                  -2.33941600   -0.56755200   -0.25157400
| 32> H                   2.49034800    3.25650000   -0.63969400
| 33> H                   2.26194200   -1.63305300   -0.10958300
| 34> H                  -4.55793100    1.96513400   -0.52506800
| 35> N                   0.00174200    2.24955900   -0.59693700
| 36> C                   0.00056200    3.66933500   -0.75726300
| 37> C                  -0.01257000    4.49792300    0.39277600
| 38> C                   0.01230200    4.20580600   -2.01807600
| 39> C                  -0.02431100    3.98392000    1.70735200
| 40> C                  -0.01360100    5.91252700    0.20200000
| 41> C                   0.01123100    5.59906000   -2.19624600
| 42> H                   0.02223200    3.54255500   -2.87410700
| 43> C                  -0.03664200    4.82859300    2.78568100
| 44> H                  -0.02340800    2.91104100    1.85507100
| 45> C                  -0.02656500    6.75075800    1.33821000
| 46> C                  -0.00154100    6.43210700   -1.11033800
| 47> H                   0.02049300    6.00674200   -3.19874000
| 48> C                  -0.03783300    6.22286100    2.60113500
| 49> H                  -0.04550000    4.42197900    3.78909000
| 50> H                  -0.02731400    7.82390600    1.18779900
| 51> H                  -0.00254300    7.50773000   -1.24113500
| 52> H                  -0.04762900    6.87718600    3.46363800
| 53> H                  -2.25341000   -1.63725400   -0.11096500
| 54> H                   4.55950900    1.98342300   -0.43475900
| 55> C                   4.84078100   -0.71276500   -0.14102100
| 56> C                   4.86923200   -1.95495900    0.50335400
| 57> C                   6.04922900   -0.24468200   -0.67036200
| 58> C                   6.03685000   -2.68544600    0.61210500
| 59> H                   3.96230800   -2.35379600    0.94081200
| 60> C                   7.21561100   -0.97650100   -0.56340900
| 61> H                   6.07437000    0.70556800   -1.18913500
| 62> C                   7.24251000   -2.21808800    0.08007100
| 63> H                   6.00838000   -3.64756400    1.10890300
| 64> H                   8.12914900   -0.56883700   -0.97882500
| 65> C                   8.48500700   -2.99905500    0.18939000
| 66> C                   8.69575200   -3.87865400    1.25699800
| 67> C                   9.49513700   -2.88708900   -0.77242100
| 68> C                   9.86576100   -4.61291700    1.35865300
| 69> H                   7.94181600   -3.97236900    2.02898800
| 70> C                  10.66473600   -3.62185200   -0.67084500
| 71> H                   9.35319700   -2.23121800   -1.62254300
| 72> C                  10.85740600   -4.48917500    0.39541600
| 73> H                  10.00665100   -5.28064900    2.19971700
| 74> H                  11.42706600   -3.52191500   -1.43373300
| 75> H                  11.77175500   -5.06351900    0.47480300
| 76> C                  -4.83306400   -0.72638000   -0.19976900
| 77> C                  -4.88328100   -2.07478100   -0.57130100
| 78> C                  -6.01848200   -0.15322100    0.27511300
| 79> C                  -6.05175900   -2.80607500   -0.47613000
| 80> H                  -3.99412900   -2.55906400   -0.95592400
| 81> C                  -7.18513600   -0.88568100    0.37337600
| 82> H                  -6.02355900    0.88365100    0.58764600
| 83> C                  -7.23473800   -2.23287900    0.00039400
| 84> H                  -6.04192000   -3.85004800   -0.76476200
| 85> H                  -8.08117500   -0.39762400    0.73700900
| 86> C                  -8.47747600   -3.01352100    0.10930100
| 87> C                  -8.73236700   -4.09330900   -0.74326900
| 88> C                  -9.44350500   -2.70019400    1.07186600
| 89> C                  -9.90257400   -4.82687200   -0.63782200
| 90> H                  -8.01349600   -4.34802500   -1.51238900
| 91> C                 -10.61287300   -3.43453800    1.17790300
| 92> H                  -9.26604400   -1.88310400    1.76027200
| 93> C                 -10.84975200   -4.50232700    0.32350500
| 94> H                 -10.07880000   -5.65279100   -1.31598500
| 95> H                 -11.34011200   -3.17583000    1.93767700
| 96> H                 -11.76406500   -5.07633400    0.40567900
| 97> O                   0.00409900   -0.53872400   -0.27868500
| 98> *
| 99> 
|100> 
|101>                          ****END OF INPUT****
================================================================================

                       ****************************
                       * Single Point Calculation *
                       ****************************

---------------------------------
CARTESIAN COORDINATES (ANGSTROEM)
---------------------------------
  C      3.617656    1.451292   -0.417108
  C      2.445175    2.181439   -0.525589
  C      1.203339    1.555326   -0.485525
  C      1.182287    0.165387   -0.321192
  C      2.346752   -0.558786   -0.210414
  C      3.601260    0.066109   -0.258219
  C     -1.175772    0.160285   -0.347511
  C     -1.199166    1.551070   -0.504450
  C     -2.442114    2.174009   -0.557583
  H     -2.488986    3.246853   -0.690373
  C     -3.613622    1.441165   -0.456778
  C     -3.594446    0.055594   -0.302273
  C     -2.339416   -0.567552   -0.251574
  H      2.490348    3.256500   -0.639694
  H      2.261942   -1.633053   -0.109583
  H     -4.557931    1.965134   -0.525068
  N      0.001742    2.249559   -0.596937
  C      0.000562    3.669335   -0.757263
  C     -0.012570    4.497923    0.392776
  C      0.012302    4.205806   -2.018076
  C     -0.024311    3.983920    1.707352
  C     -0.013601    5.912527    0.202000
  C      0.011231    5.599060   -2.196246
  H      0.022232    3.542555   -2.874107
  C     -0.036642    4.828593    2.785681
  H     -0.023408    2.911041    1.855071
  C     -0.026565    6.750758    1.338210
  C     -0.001541    6.432107   -1.110338
  H      0.020493    6.006742   -3.198740
  C     -0.037833    6.222861    2.601135
  H     -0.045500    4.421979    3.789090
  H     -0.027314    7.823906    1.187799
  H     -0.002543    7.507730   -1.241135
  H     -0.047629    6.877186    3.463638
  H     -2.253410   -1.637254   -0.110965
  H      4.559509    1.983423   -0.434759
  C      4.840781   -0.712765   -0.141021
  C      4.869232   -1.954959    0.503354
  C      6.049229   -0.244682   -0.670362
  C      6.036850   -2.685446    0.612105
  H      3.962308   -2.353796    0.940812
  C      7.215611   -0.976501   -0.563409
  H      6.074370    0.705568   -1.189135
  C      7.242510   -2.218088    0.080071
  H      6.008380   -3.647564    1.108903
  H      8.129149   -0.568837   -0.978825
  C      8.485007   -2.999055    0.189390
  C      8.695752   -3.878654    1.256998
  C      9.495137   -2.887089   -0.772421
  C      9.865761   -4.612917    1.358653
  H      7.941816   -3.972369    2.028988
  C     10.664736   -3.621852   -0.670845
  H      9.353197   -2.231218   -1.622543
  C     10.857406   -4.489175    0.395416
  H     10.006651   -5.280649    2.199717
  H     11.427066   -3.521915   -1.433733
  H     11.771755   -5.063519    0.474803
  C     -4.833064   -0.726380   -0.199769
  C     -4.883281   -2.074781   -0.571301
  C     -6.018482   -0.153221    0.275113
  C     -6.051759   -2.806075   -0.476130
  H     -3.994129   -2.559064   -0.955924
  C     -7.185136   -0.885681    0.373376
  H     -6.023559    0.883651    0.587646
  C     -7.234738   -2.232879    0.000394
  H     -6.041920   -3.850048   -0.764762
  H     -8.081175   -0.397624    0.737009
  C     -8.477476   -3.013521    0.109301
  C     -8.732367   -4.093309   -0.743269
  C     -9.443505   -2.700194    1.071866
  C     -9.902574   -4.826872   -0.637822
  H     -8.013496   -4.348025   -1.512389
  C    -10.612873   -3.434538    1.177903
  H     -9.266044   -1.883104    1.760272
  C    -10.849752   -4.502327    0.323505
  H    -10.078800   -5.652791   -1.315985
  H    -11.340112   -3.175830    1.937677
  H    -11.764065   -5.076334    0.405679
  O      0.004099   -0.538724   -0.278685

----------------------------
CARTESIAN COORDINATES (A.U.)
----------------------------
  NO LB      ZA    FRAG     MASS         X           Y           Z
   0 C     6.0000    0    12.011    6.836379    2.742544   -0.788220
   1 C     6.0000    0    12.011    4.620711    4.122322   -0.993219
   2 C     6.0000    0    12.011    2.273981    2.939140   -0.917509
   3 C     6.0000    0    12.011    2.234199    0.312536   -0.606965
   4 C     6.0000    0    12.011    4.434719   -1.055953   -0.397625
   5 C     6.0000    0    12.011    6.805395    0.124928   -0.487963
   6 C     6.0000    0    12.011   -2.221887    0.302895   -0.656701
   7 C     6.0000    0    12.011   -2.266095    2.931098   -0.953272
   8 C     6.0000    0    12.011   -4.614927    4.108282   -1.053679
   9 H     1.0000    0     1.008   -4.703502    6.135663   -1.304616
  10 C     6.0000    0    12.011   -6.828756    2.723407   -0.863185
  11 C     6.0000    0    12.011   -6.792519    0.105057   -0.571213
  12 C     6.0000    0    12.011   -4.420856   -1.072518   -0.475406
  13 H     1.0000    0     1.008    4.706076    6.153893   -1.208846
  14 H     1.0000    0     1.008    4.274451   -3.086023   -0.207082
  15 H     1.0000    0     1.008   -8.613241    3.713565   -0.992235
  16 N     7.0000    0    14.007    0.003292    4.251050   -1.128047
  17 C     6.0000    0    12.011    0.001062    6.934038   -1.431020
  18 C     6.0000    0    12.011   -0.023754    8.499843    0.742239
  19 C     6.0000    0    12.011    0.023247    7.947822   -3.813611
  20 C     6.0000    0    12.011   -0.045941    7.528518    3.226428
  21 C     6.0000    0    12.011   -0.025702   11.173057    0.381725
  22 C     6.0000    0    12.011    0.021224   10.580690   -4.150303
  23 H     1.0000    0     1.008    0.042012    6.694459   -5.431275
  24 C     6.0000    0    12.011   -0.069243    9.124718    5.264174
  25 H     1.0000    0     1.008   -0.044235    5.501070    3.505576
  26 C     6.0000    0    12.011   -0.050201   12.757084    2.528850
  27 C     6.0000    0    12.011   -0.002912   12.154921   -2.098235
  28 H     1.0000    0     1.008    0.038726   11.351097   -6.044743
  29 C     6.0000    0    12.011   -0.071494   11.759503    4.915433
  30 H     1.0000    0     1.008   -0.085983    8.356329    7.160342
  31 H     1.0000    0     1.008   -0.051616   14.785040    2.244615
  32 H     1.0000    0     1.008   -0.004806   14.187554   -2.345405
  33 H     1.0000    0     1.008   -0.090006   12.995998    6.545327
  34 H     1.0000    0     1.008   -4.258328   -3.093962   -0.209693
  35 H     1.0000    0     1.008    8.616223    3.748126   -0.821575
  36 C     6.0000    0    12.011    9.147750   -1.346931   -0.266491
  37 C     6.0000    0    12.011    9.201515   -3.694337    0.951201
  38 C     6.0000    0    12.011   11.431386   -0.462382   -1.266801
  39 C     6.0000    0    12.011   11.407993   -5.074757    1.156711
  40 H     1.0000    0     1.008    7.487677   -4.448030    1.777877
  41 C     6.0000    0    12.011   13.635529   -1.845319   -1.064689
  42 H     1.0000    0     1.008   11.478896    1.333330   -2.247139
  43 C     6.0000    0    12.011   13.686360   -4.191579    0.151312
  44 H     1.0000    0     1.008   11.354193   -6.892897    2.095523
  45 H     1.0000    0     1.008   15.361865   -1.074946   -1.849711
  46 C     6.0000    0    12.011   16.034339   -5.667393    0.357895
  47 C     6.0000    0    12.011   16.432590   -7.329594    2.375382
  48 C     6.0000    0    12.011   17.943209   -5.455808   -1.459664
  49 C     6.0000    0    12.011   18.643586   -8.717150    2.567482
  50 H     1.0000    0     1.008   15.007857   -7.506690    3.834232
  51 C     6.0000    0    12.011   20.153430   -6.844308   -1.267713
  52 H     1.0000    0     1.008   17.674981   -4.216391   -3.066162
  53 C     6.0000    0    12.011   20.517524   -8.483311    0.747228
  54 H     1.0000    0     1.008   18.909830   -9.978980    4.156863
  55 H     1.0000    0     1.008   21.594025   -6.655455   -2.709363
  56 H     1.0000    0     1.008   22.245393   -9.568664    0.897248
  57 C     6.0000    0    12.011   -9.133167   -1.372659   -0.377509
  58 C     6.0000    0    12.011   -9.228064   -3.920768   -1.079602
  59 C     6.0000    0    12.011  -11.373283   -0.289546    0.519888
  60 C     6.0000    0    12.011  -11.436167   -5.302713   -0.899755
  61 H     1.0000    0     1.008   -7.547810   -4.835930   -1.806435
  62 C     6.0000    0    12.011  -13.577939   -1.673695    0.705578
  63 H     1.0000    0     1.008  -11.382877    1.669858    1.110490
  64 C     6.0000    0    12.011  -13.671673   -4.219530    0.000745
  65 H     1.0000    0     1.008  -11.417574   -7.275536   -1.445191
  66 H     1.0000    0     1.008  -15.271208   -0.751400    1.392745
  67 C     6.0000    0    12.011  -16.020108   -5.694729    0.206549
  68 C     6.0000    0    12.011  -16.501782   -7.735233   -1.404575
  69 C     6.0000    0    12.011  -17.845638   -5.102627    2.025533
  70 C     6.0000    0    12.011  -18.713153   -9.121466   -1.205309
  71 H     1.0000    0     1.008  -15.143313   -8.216576   -2.858001
  72 C     6.0000    0    12.011  -20.055423   -6.490336    2.225914
  73 H     1.0000    0     1.008  -17.510286   -3.558551    3.326432
  74 C     6.0000    0    12.011  -20.503060   -8.508165    0.611336
  75 H     1.0000    0     1.008  -19.046172  -10.682227   -2.486851
  76 H     1.0000    0     1.008  -21.429706   -6.001449    3.661679
  77 H     1.0000    0     1.008  -22.230861   -9.592881    0.766622
  78 O     8.0000    0    15.999    0.007746   -1.018041   -0.526638

--------------------------------
INTERNAL COORDINATES (ANGSTROEM)
--------------------------------
 C      0   0   0     0.000000000000     0.00000000     0.00000000
 C      1   0   0     1.385494303247     0.00000000     0.00000000
 C      2   1   0     1.391322846704   121.05914102     0.00000000
 C      3   2   1     1.399778177182   117.62313195     0.50130147
 C      4   3   2     1.375745992339   121.29262293   359.65001087
 C      1   2   3     1.394362394296   121.49980942   359.71778936
 C      4   3   2     2.358211391637    90.90970076   179.08191780
 C      7   4   3     1.399807145710    90.90605177   359.67473411
 C      8   7   4     1.391328805177   117.64909951   181.44220101
 H      9   8   7     1.082046402341   119.16370034   180.73080406
 C      9   8   7     1.385515416885   121.04882029     0.07797513
 C     11   9   8     1.394290683481   121.47039687   359.82778861
 C      7   4   3     1.375869894021   147.78601947   181.78788235
 H      2   1   3     1.082042838651   119.77008818   179.76526395
 H      5   4   3     1.082316595988   117.62268152   181.46611635
 H     11   9   8     1.082093584004   118.50044623   181.32454896
 N      3   2   1     1.392195188342   122.93274886   180.30313780
 C     17   3   2     1.428800094083   120.34487976   359.82872067
 C     18  17   3     1.417504929335   119.32862102   270.98250554
 C     18  17   3     1.370251211424   119.49064077    90.97402680
 C     19  18  17     1.411540645843   122.87449087     0.00000000
 C     19  18  17     1.427410600336   118.09069954   180.00754434
 C     20  18  17     1.404600442993   120.33534777   179.99411050
 H     20  18  17     1.082954092684   119.18462476     0.00000000
 C     21  19  18     1.369824062692   120.57461158   179.99350116
 H     21  19  18     1.083000954298   119.19352879     0.00000000
 C     22  19  18     1.412010070345   118.73622387   180.00234305
 C     23  20  18     1.368695222706   120.20492439     0.00000000
 H     23  20  18     1.082259034522   119.41582828   180.00679373
 C     27  22  19     1.368861485344   120.89993794     0.00000000
 H     25  21  19     1.082701727366   119.87085042   180.00447913
 H     27  22  19     1.083637697677   118.43836378   180.00138717
 H     28  23  20     1.083546813637   120.55926696   180.00653635
 H     30  27  22     1.082658114203   120.13250854   179.99487084
 H     13   7   4     1.082326333284   117.68969919   358.75717461
 H      1   2   3     1.081925151095   118.43889107   181.14162658
 C      6   1   2     1.468602188655   121.73748293   180.07800696
 C     37   6   1     1.399669437282   121.63975327   155.32206723
 C     37   6   1     1.399875050808   121.40518040   335.31028878
 C     38  37   6     1.381582364933   121.51100927   180.00133203
 H     38  37   6     1.083028899018   119.72001515   359.18187315
 C     39  37   6     1.381102806779   121.50561663   180.11621194
 H     39  37   6     1.082927771326   119.64292941   359.22907246
 C     40  38  37     1.398248802224   121.46979618   359.83151193
 H     40  38  37     1.083185044038   118.91588832   180.74137826
 H     42  39  37     1.083195304364   118.89018429   180.67288326
 C     44  40  38     1.471617781171   121.49142500   180.32898543
 C     47  44  40     1.399247904229   121.16091213   331.43415898
 C     47  44  40     1.399278171693   121.06266211   151.38430392
 C     48  47  44     1.385062075242   121.09631601   180.00807139
 H     48  47  44     1.083129979929   119.56191560   358.67507869
 C     49  47  44     1.384975151671   121.11581084   180.02004979
 H     49  47  44     1.083061008035   119.56276116   358.70459076
 C     52  49  47     1.387906133479   120.33864574     0.00000000
 H     50  48  47     1.083099565146   119.58418516   179.50502149
 H     52  49  47     1.083112428796   119.58880305   179.50952906
 H     54  52  49     1.082685282022   120.33623598   180.00232352
 C     12  11   9     1.468388557779   121.69132485   180.22211625
 C     58  12  11     1.399551010472   121.65550883   154.14836385
 C     58  12  11     1.399728540800   121.33167537   334.16134749
 C     59  58  12     1.381734153215   121.46471345   180.15202098
 H     59  58  12     1.083077169606   119.71000301   359.27913345
 C     60  58  12     1.381026728375   121.49296240   180.02499351
 H     60  58  12     1.082961770517   119.59931182   359.11603872
 C     61  59  58     1.398237494646   121.46515856   359.75252420
 H     61  59  58     1.083182746389   118.95120077   180.65894015
 H     63  60  58     1.083196419611   118.92903590   180.61581598
 C     65  61  59     1.471618294075   121.48165758   180.36224513
 C     68  65  61     1.399209473855   121.20550336   331.40758698
 C     68  65  61     1.399255951209   121.00660633   151.32860957
 C     69  68  65     1.385141930499   121.07830843   179.95447847
 H     69  68  65     1.083144186938   119.55404129   358.64955430
 C     70  68  65     1.384892225095   121.12324741   180.10519997
 H     70  68  65     1.083065693048   119.54163727   358.78899597
 C     73  70  68     1.387905238684   120.32669989   359.94386974
 H     71  69  68     1.083098726897   119.57980708   179.48024862
 H     73  70  68     1.083080294097   119.60464185   179.47014526
 H     75  73  70     1.082684101802   120.35104930   180.03550116
 O      7   4   3     1.373115500240    30.83262681   177.78352436

---------------------------
INTERNAL COORDINATES (A.U.)
---------------------------
 C      0   0   0     0.000000000000     0.00000000     0.00000000
 C      1   0   0     2.618204793246     0.00000000     0.00000000
 C      2   1   0     2.629219144139   121.05914102     0.00000000
 C      3   2   1     2.645197403113   117.62313195     0.50130147
 C      4   3   2     2.599783155361   121.29262293   359.65001087
 C      1   2   3     2.634963056658   121.49980942   359.71778936
 C      4   3   2     4.456373696087    90.90970076   179.08191780
 C      7   4   3     2.645252145699    90.90605177   359.67473411
 C      8   7   4     2.629230404020   117.64909951   181.44220101
 H      9   8   7     2.044771364620   119.16370034   180.73080406
 C      9   8   7     2.618244692238   121.04882029     0.07797513
 C     11   9   8     2.634827542857   121.47039687   359.82778861
 C      7   4   3     2.600017295607   147.78601947   181.78788235
 H      2   1   3     2.044764630220   119.77008818   179.76526395
 H      5   4   3     2.045281956614   117.62268152   181.46611635
 H     11   9   8     2.044860525040   118.50044623   181.32454896
 N      3   2   1     2.630867630929   122.93274886   180.30313780
 C     17   3   2     2.700040877938   120.34487976   359.82872067
 C     18  17   3     2.678696109927   119.32862102   270.98250554
 C     18  17   3     2.589399524266   119.49064077    90.97402680
 C     19  18  17     2.667425247541   122.87449087     0.00000000
 C     19  18  17     2.697415115292   118.09069954   180.00754434
 C     20  18  17     2.654310164842   120.33534777   179.99411050
 H     20  18  17     2.046486650783   119.18462476     0.00000000
 C     21  19  18     2.588592330144   120.57461158   179.99350116
 H     21  19  18     2.046575206399   119.19352879     0.00000000
 C     22  19  18     2.668312331292   118.73622387   180.00234305
 C     23  20  18     2.586459131720   120.20492439     0.00000000
 H     23  20  18     2.045173181208   119.41582828   180.00679373
 C     27  22  19     2.586773322573   120.89993794     0.00000000
 H     25  21  19     2.046009749445   119.87085042   180.00447913
 H     27  22  19     2.047778477002   118.43836378   180.00138717
 H     28  23  20     2.047606731056   120.55926696   180.00653635
 H     30  27  22     2.045927332512   120.13250854   179.99487084
 H     13   7   4     2.045300357439   117.68969919   358.75717461
 H      1   2   3     2.044542232970   118.43889107   181.14162658
 C      6   1   2     2.775255936234   121.73748293   180.07800696
 C     37   6   1     2.644991914483   121.63975327   155.32206723
 C     37   6   1     2.645380467736   121.40518040   335.31028878
 C     38  37   6     2.610812301179   121.51100927   180.00133203
 H     38  37   6     2.046628014267   119.72001515   359.18187315
 C     39  37   6     2.609906067603   121.50561663   180.11621194
 H     39  37   6     2.046436910625   119.64292941   359.22907246
 C     40  38  37     2.642307303286   121.46979618   359.83151193
 H     40  38  37     2.046923085592   118.91588832   180.74137826
 H     42  39  37     2.046942474797   118.89018429   180.67288326
 C     44  40  38     2.780954580222   121.49142500   180.32898543
 C     47  44  40     2.644195332457   121.16091213   331.43415898
 C     47  44  40     2.644252529674   121.06266211   151.38430392
 C     48  47  44     2.617388000689   121.09631601   180.00807139
 H     48  47  44     2.046819029505   119.56191560   358.67507869
 C     49  47  44     2.617223738944   121.11581084   180.02004979
 H     49  47  44     2.046688691514   119.56276116   358.70459076
 C     52  49  47     2.622762491866   120.33864574     0.00000000
 H     50  48  47     2.046761553896   119.58418516   179.50502149
 H     52  49  47     2.046785862671   119.58880305   179.50952906
 H     54  52  49     2.045978672248   120.33623598   180.00232352
 C     12  11   9     2.774852232386   121.69132485   180.22211625
 C     58  12  11     2.644768120245   121.65550883   154.14836385
 C     58  12  11     2.645103603944   121.33167537   334.16134749
 C     59  58  12     2.611099139462   121.46471345   180.15202098
 H     59  58  12     2.046719232458   119.71000301   359.27913345
 C     60  58  12     2.609762300253   121.49296240   180.02499351
 H     60  58  12     2.046501159784   119.59931182   359.11603872
 C     61  59  58     2.642285935060   121.46515856   359.75252420
 H     61  59  58     2.046918743663   118.95120077   180.65894015
 H     63  60  58     2.046944582310   118.92903590   180.61581598
 C     65  61  59     2.780955549471   121.48165758   180.36224513
 C     68  65  61     2.644122709574   121.20550336   331.40758698
 C     68  65  61     2.644210539045   121.00660633   151.32860957
 C     69  68  65     2.617538905254   121.07830843   179.95447847
 H     69  68  65     2.046845876861   119.55404129   358.64955430
 C     70  68  65     2.617067030427   121.12324741   180.10519997
 H     70  68  65     2.046697544906   119.54163727   358.78899597
 C     73  70  68     2.622760800947   120.32669989   359.94386974
 H     71  69  68     2.046759969834   119.57980708   179.48024862
 H     73  70  68     2.046725136890   119.60464185   179.47014526
 H     75  73  70     2.045976441956   120.35104930   180.03550116
 O      7   4   3     2.594812245695    30.83262681   177.78352436

---------------------
BASIS SET INFORMATION
---------------------
There are 4 groups of distinct atoms

 Group   1 Type C   : 11s6p2d1f contracted to 5s3p2d1f pattern {62111/411/11/1}
 Group   2 Type H   : 5s1p contracted to 3s1p pattern {311/1}
 Group   3 Type N   : 11s6p2d1f contracted to 5s3p2d1f pattern {62111/411/11/1}
 Group   4 Type O   : 11s6p2d1f contracted to 5s3p2d1f pattern {62111/411/11/1}

Atom   0C    basis set group =>   1
Atom   1C    basis set group =>   1
Atom   2C    basis set group =>   1
Atom   3C    basis set group =>   1
Atom   4C    basis set group =>   1
Atom   5C    basis set group =>   1
Atom   6C    basis set group =>   1
Atom   7C    basis set group =>   1
Atom   8C    basis set group =>   1
Atom   9H    basis set group =>   2
Atom  10C    basis set group =>   1
Atom  11C    basis set group =>   1
Atom  12C    basis set group =>   1
Atom  13H    basis set group =>   2
Atom  14H    basis set group =>   2
Atom  15H    basis set group =>   2
Atom  16N    basis set group =>   3
Atom  17C    basis set group =>   1
Atom  18C    basis set group =>   1
Atom  19C    basis set group =>   1
Atom  20C    basis set group =>   1
Atom  21C    basis set group =>   1
Atom  22C    basis set group =>   1
Atom  23H    basis set group =>   2
Atom  24C    basis set group =>   1
Atom  25H    basis set group =>   2
Atom  26C    basis set group =>   1
Atom  27C    basis set group =>   1
Atom  28H    basis set group =>   2
Atom  29C    basis set group =>   1
Atom  30H    basis set group =>   2
Atom  31H    basis set group =>   2
Atom  32H    basis set group =>   2
Atom  33H    basis set group =>   2
Atom  34H    basis set group =>   2
Atom  35H    basis set group =>   2
Atom  36C    basis set group =>   1
Atom  37C    basis set group =>   1
Atom  38C    basis set group =>   1
Atom  39C    basis set group =>   1
Atom  40H    basis set group =>   2
Atom  41C    basis set group =>   1
Atom  42H    basis set group =>   2
Atom  43C    basis set group =>   1
Atom  44H    basis set group =>   2
Atom  45H    basis set group =>   2
Atom  46C    basis set group =>   1
Atom  47C    basis set group =>   1
Atom  48C    basis set group =>   1
Atom  49C    basis set group =>   1
Atom  50H    basis set group =>   2
Atom  51C    basis set group =>   1
Atom  52H    basis set group =>   2
Atom  53C    basis set group =>   1
Atom  54H    basis set group =>   2
Atom  55H    basis set group =>   2
Atom  56H    basis set group =>   2
Atom  57C    basis set group =>   1
Atom  58C    basis set group =>   1
Atom  59C    basis set group =>   1
Atom  60C    basis set group =>   1
Atom  61H    basis set group =>   2
Atom  62C    basis set group =>   1
Atom  63H    basis set group =>   2
Atom  64C    basis set group =>   1
Atom  65H    basis set group =>   2
Atom  66H    basis set group =>   2
Atom  67C    basis set group =>   1
Atom  68C    basis set group =>   1
Atom  69C    basis set group =>   1
Atom  70C    basis set group =>   1
Atom  71H    basis set group =>   2
Atom  72C    basis set group =>   1
Atom  73H    basis set group =>   2
Atom  74C    basis set group =>   1
Atom  75H    basis set group =>   2
Atom  76H    basis set group =>   2
Atom  77H    basis set group =>   2
Atom  78O    basis set group =>   4
---------------------------------
AUXILIARY/J BASIS SET INFORMATION
---------------------------------
There are 4 groups of distinct atoms

 Group   1 Type C   : 12s5p4d2f1g contracted to 6s4p3d1f1g pattern {711111/2111/211/2/1}
 Group   2 Type H   : 5s2p1d contracted to 3s1p1d pattern {311/2/1}
 Group   3 Type N   : 12s5p4d2f1g contracted to 6s4p3d1f1g pattern {711111/2111/211/2/1}
 Group   4 Type O   : 12s5p4d2f1g contracted to 6s4p3d1f1g pattern {711111/2111/211/2/1}

Atom   0C    basis set group =>   1
Atom   1C    basis set group =>   1
Atom   2C    basis set group =>   1
Atom   3C    basis set group =>   1
Atom   4C    basis set group =>   1
Atom   5C    basis set group =>   1
Atom   6C    basis set group =>   1
Atom   7C    basis set group =>   1
Atom   8C    basis set group =>   1
Atom   9H    basis set group =>   2
Atom  10C    basis set group =>   1
Atom  11C    basis set group =>   1
Atom  12C    basis set group =>   1
Atom  13H    basis set group =>   2
Atom  14H    basis set group =>   2
Atom  15H    basis set group =>   2
Atom  16N    basis set group =>   3
Atom  17C    basis set group =>   1
Atom  18C    basis set group =>   1
Atom  19C    basis set group =>   1
Atom  20C    basis set group =>   1
Atom  21C    basis set group =>   1
Atom  22C    basis set group =>   1
Atom  23H    basis set group =>   2
Atom  24C    basis set group =>   1
Atom  25H    basis set group =>   2
Atom  26C    basis set group =>   1
Atom  27C    basis set group =>   1
Atom  28H    basis set group =>   2
Atom  29C    basis set group =>   1
Atom  30H    basis set group =>   2
Atom  31H    basis set group =>   2
Atom  32H    basis set group =>   2
Atom  33H    basis set group =>   2
Atom  34H    basis set group =>   2
Atom  35H    basis set group =>   2
Atom  36C    basis set group =>   1
Atom  37C    basis set group =>   1
Atom  38C    basis set group =>   1
Atom  39C    basis set group =>   1
Atom  40H    basis set group =>   2
Atom  41C    basis set group =>   1
Atom  42H    basis set group =>   2
Atom  43C    basis set group =>   1
Atom  44H    basis set group =>   2
Atom  45H    basis set group =>   2
Atom  46C    basis set group =>   1
Atom  47C    basis set group =>   1
Atom  48C    basis set group =>   1
Atom  49C    basis set group =>   1
Atom  50H    basis set group =>   2
Atom  51C    basis set group =>   1
Atom  52H    basis set group =>   2
Atom  53C    basis set group =>   1
Atom  54H    basis set group =>   2
Atom  55H    basis set group =>   2
Atom  56H    basis set group =>   2
Atom  57C    basis set group =>   1
Atom  58C    basis set group =>   1
Atom  59C    basis set group =>   1
Atom  60C    basis set group =>   1
Atom  61H    basis set group =>   2
Atom  62C    basis set group =>   1
Atom  63H    basis set group =>   2
Atom  64C    basis set group =>   1
Atom  65H    basis set group =>   2
Atom  66H    basis set group =>   2
Atom  67C    basis set group =>   1
Atom  68C    basis set group =>   1
Atom  69C    basis set group =>   1
Atom  70C    basis set group =>   1
Atom  71H    basis set group =>   2
Atom  72C    basis set group =>   1
Atom  73H    basis set group =>   2
Atom  74C    basis set group =>   1
Atom  75H    basis set group =>   2
Atom  76H    basis set group =>   2
Atom  77H    basis set group =>   2
Atom  78O    basis set group =>   4
---------------------------------
AUXILIARY/C BASIS SET INFORMATION
---------------------------------
There are 4 groups of distinct atoms

 Group   1 Type C   : 8s6p5d3f1g contracted to 8s6p4d3f1g pattern {11111111/111111/2111/111/1}
 Group   2 Type H   : 4s3p2d contracted to 4s2p1d pattern {1111/21/2}
 Group   3 Type N   : 8s6p5d3f1g contracted to 8s6p4d3f1g pattern {11111111/111111/2111/111/1}
 Group   4 Type O   : 8s6p5d3f1g contracted to 8s6p4d3f1g pattern {11111111/111111/2111/111/1}

Atom   0C    basis set group =>   1
Atom   1C    basis set group =>   1
Atom   2C    basis set group =>   1
Atom   3C    basis set group =>   1
Atom   4C    basis set group =>   1
Atom   5C    basis set group =>   1
Atom   6C    basis set group =>   1
Atom   7C    basis set group =>   1
Atom   8C    basis set group =>   1
Atom   9H    basis set group =>   2
Atom  10C    basis set group =>   1
Atom  11C    basis set group =>   1
Atom  12C    basis set group =>   1
Atom  13H    basis set group =>   2
Atom  14H    basis set group =>   2
Atom  15H    basis set group =>   2
Atom  16N    basis set group =>   3
Atom  17C    basis set group =>   1
Atom  18C    basis set group =>   1
Atom  19C    basis set group =>   1
Atom  20C    basis set group =>   1
Atom  21C    basis set group =>   1
Atom  22C    basis set group =>   1
Atom  23H    basis set group =>   2
Atom  24C    basis set group =>   1
Atom  25H    basis set group =>   2
Atom  26C    basis set group =>   1
Atom  27C    basis set group =>   1
Atom  28H    basis set group =>   2
Atom  29C    basis set group =>   1
Atom  30H    basis set group =>   2
Atom  31H    basis set group =>   2
Atom  32H    basis set group =>   2
Atom  33H    basis set group =>   2
Atom  34H    basis set group =>   2
Atom  35H    basis set group =>   2
Atom  36C    basis set group =>   1
Atom  37C    basis set group =>   1
Atom  38C    basis set group =>   1
Atom  39C    basis set group =>   1
Atom  40H    basis set group =>   2
Atom  41C    basis set group =>   1
Atom  42H    basis set group =>   2
Atom  43C    basis set group =>   1
Atom  44H    basis set group =>   2
Atom  45H    basis set group =>   2
Atom  46C    basis set group =>   1
Atom  47C    basis set group =>   1
Atom  48C    basis set group =>   1
Atom  49C    basis set group =>   1
Atom  50H    basis set group =>   2
Atom  51C    basis set group =>   1
Atom  52H    basis set group =>   2
Atom  53C    basis set group =>   1
Atom  54H    basis set group =>   2
Atom  55H    basis set group =>   2
Atom  56H    basis set group =>   2
Atom  57C    basis set group =>   1
Atom  58C    basis set group =>   1
Atom  59C    basis set group =>   1
Atom  60C    basis set group =>   1
Atom  61H    basis set group =>   2
Atom  62C    basis set group =>   1
Atom  63H    basis set group =>   2
Atom  64C    basis set group =>   1
Atom  65H    basis set group =>   2
Atom  66H    basis set group =>   2
Atom  67C    basis set group =>   1
Atom  68C    basis set group =>   1
Atom  69C    basis set group =>   1
Atom  70C    basis set group =>   1
Atom  71H    basis set group =>   2
Atom  72C    basis set group =>   1
Atom  73H    basis set group =>   2
Atom  74C    basis set group =>   1
Atom  75H    basis set group =>   2
Atom  76H    basis set group =>   2
Atom  77H    basis set group =>   2
Atom  78O    basis set group =>   4


           ************************************************************
           *        Program running with 4 parallel MPI-processes     *
           *              working on a common directory               *
           ************************************************************
------------------------------------------------------------------------------
                           ORCA GTO INTEGRAL CALCULATION
                           -- RI-GTO INTEGRALS CHOSEN --
------------------------------------------------------------------------------
------------------------------------------------------------------------------
                   ___                                                        
                  /   \      - P O W E R E D   B Y -                         
                 /     \                                                     
                 |  |  |   _    _      __       _____    __    __             
                 |  |  |  | |  | |    /  \     |  _  \  |  |  /  |          
                  \  \/   | |  | |   /    \    | | | |  |  | /  /          
                 / \  \   | |__| |  /  /\  \   | |_| |  |  |/  /          
                |  |  |   |  __  | /  /__\  \  |    /   |      \           
                |  |  |   | |  | | |   __   |  |    \   |  |\   \          
                \     /   | |  | | |  |  |  |  | |\  \  |  | \   \       
                 \___/    |_|  |_| |__|  |__|  |_| \__\ |__|  \__/        
                                                                              
                      - O R C A' S   B I G   F R I E N D -                    
                                      &                                       
                       - I N T E G R A L  F E E D E R -                       
                                                                              
 v1 FN, 2020, v2 2021                                                         
------------------------------------------------------------------------------


Reading SHARK input file POZ_1_M06L_def2TZVP_coords.SHARKINP.tmp ... ok
----------------------
SHARK INTEGRAL PACKAGE
----------------------

Number of atoms                             ...     79
Number of basis functions                   ...   1674
Number of shells                            ...    652
Maximum angular momentum                    ...      3
Integral batch strategy                     ... SHARK/LIBINT Hybrid
RI-J (if used) integral strategy            ... SPLIT-RIJ (Revised 2003 algorithm where possible)
Printlevel                                  ...      1
Contraction scheme used                     ... SEGMENTED contraction
Coulomb Range Separation                    ... NOT USED
Exchange Range Separation                   ... Long Range
   Mu parameter                             ...  0.180000
   Scaling (regular/separated)              ...  0.700000  0.300000
Finite Nucleus Model                        ... NOT USED
Auxiliary Coulomb fitting basis             ... AVAILABLE
   # of basis functions in Aux-J            ...   2693
   # of shells in Aux-J                     ...    875
   Maximum angular momentum in Aux-J        ...      4
Auxiliary J/K fitting basis                 ... NOT available
Auxiliary Correlation fitting basis         ... AVAILABLE
   # of basis functions in Aux-C            ...   4113
   # of shells in Aux-C                     ...   1273
   Maximum angular momentum in Aux-C        ...      4
Auxiliary 'external' fitting basis          ... NOT available
Integral threshold                          ...     2.500000e-11
Primitive cut-off                           ...     2.500000e-12
Primitive pair pre-selection threshold      ...     2.500000e-12

Calculating pre-screening integrals         ... done (  0.3 sec) Dimension = 652
Organizing shell pair data                  ... done (  1.7 sec)
Shell pair information
Total number of shell pairs                 ...    212878
Shell pairs after pre-screening             ...     84915
Total number of primitive shell pairs       ...    658380
Primitive shell pairs kept                  ...    167897
          la=0 lb=0:  21136 shell pairs
          la=1 lb=0:  24854 shell pairs
          la=1 lb=1:   7315 shell pairs
          la=2 lb=0:  11940 shell pairs
          la=2 lb=1:   7125 shell pairs
          la=2 lb=2:   1719 shell pairs
          la=3 lb=0:   5560 shell pairs
          la=3 lb=1:   3352 shell pairs
          la=3 lb=2:   1531 shell pairs
          la=3 lb=3:    383 shell pairs

Calculating one electron integrals          ... done (  0.4 sec)
Calculating RI/J V-Matrix + Cholesky decomp.... done (  0.5 sec)
Calculating RI/C V-Matrix + Cholesky decomp.... done (  1.1 sec)
Calculating Nuclear repulsion               ... done (  0.0 sec) ENN=   4892.596552707744 Eh

SHARK setup successfully completed in   5.2 seconds

Maximum memory used throughout the entire GTOINT-calculation: 221.5 MB


           ************************************************************
           *        Program running with 4 parallel MPI-processes     *
           *              working on a common directory               *
           ************************************************************
-------------------------------------------------------------------------------
                                 ORCA SCF
-------------------------------------------------------------------------------

------------
SCF SETTINGS
------------
Hamiltonian:
 Density Functional     Method          .... DFT(GTOs)
 Exchange Functional    Exchange        .... LC-PBE
 Correlation Functional Correlation     .... P86
 LDA part of GGA corr.  LDAOpt          .... VWN-5
 Gradients option       PostSCFGGA      .... off
 Hybrid DFT is turned on
   Fraction HF Exchange ScalHFX         ....  0.700000
   Scaling of DF-GGA-X  ScalDFX         ....  0.000000
   Scaling of DF-GGA-C  ScalDFC         ....  0.680000
   Scaling of DF-LDA-C  ScalLDAC        ....  0.680000
   Perturbative correction              ....  0.480000
   Density functional embedding theory  .... OFF
 Long-range corrected/Screened/Range-Separated Hybrid DFT is turned on
   Amount of maximum screened exact exchange              ....  0.300000
   Range separation parameter mu (erf(mu*r12)/r12)        ....  0.180000
 RI-approximation to the Coulomb term is turned on
   Number of AuxJ basis functions       .... 2693
   RIJ-COSX (HFX calculated with COS-X)).... on


General Settings:
 Integral files         IntName         .... POZ_1_M06L_def2TZVP_coords
 Hartree-Fock type      HFTyp           .... RHF
 Total Charge           Charge          ....    0
 Multiplicity           Mult            ....    1
 Number of Electrons    NEL             ....  322
 Basis Dimension        Dim             .... 1674
 Nuclear Repulsion      ENuc            ....   4892.5965527077 Eh

Convergence Acceleration:
 DIIS                   CNVDIIS         .... on
   Start iteration      DIISMaxIt       ....    12
   Startup error        DIISStart       ....  0.200000
   # of expansion vecs  DIISMaxEq       ....     5
   Bias factor          DIISBfac        ....   1.050
   Max. coefficient     DIISMaxC        ....  10.000
 Trust-Rad. Augm. Hess. CNVTRAH         .... auto
   Auto Start mean grad. ratio tolernc. ....  1.125000
   Auto Start start iteration           ....    20
   Auto Start num. interpolation iter.  ....    10
   Max. Number of Micro iterations      ....    16
   Max. Number of Macro iterations      .... Maxiter - #DIIS iter
   Number of Davidson start vectors     ....     2
   Converg. threshold I  (grad. norm)   ....   1.000e-05
   Converg. threshold II (energy diff.) ....   1.000e-08
   Grad. Scal. Fac. for Micro threshold ....   0.100
   Minimum threshold for Micro iter.    ....   0.010
   NR start threshold (gradient norm)   ....   0.001
   Initial trust radius                 ....   0.400
   Minimum AH scaling param. (alpha)    ....   1.000
   Maximum AH scaling param. (alpha)    .... 1000.000
   Orbital update algorithm             .... Taylor
   White noise on init. David. guess    .... on
   Maximum white noise                  ....   0.010
   Quad. conv. algorithm                .... NR
 SOSCF                  CNVSOSCF        .... on
   Start iteration      SOSCFMaxIt      ....   150
   Startup grad/error   SOSCFStart      ....  0.003300
 Level Shifting         CNVShift        .... on
   Level shift para.    LevelShift      ....    0.2500
   Turn off err/grad.   ShiftErr        ....    0.0010
 Zerner damping         CNVZerner       .... off
 Static damping         CNVDamp         .... on
   Fraction old density DampFac         ....    0.7000
   Max. Damping (<1)    DampMax         ....    0.9800
   Min. Damping (>=0)   DampMin         ....    0.0000
   Turn off err/grad.   DampErr         ....    0.1000
 Fernandez-Rico         CNVRico         .... off

SCF Procedure:
 Maximum # iterations   MaxIter         ....   125
 SCF integral mode      SCFMode         .... Direct
   Integral package                     .... SHARK and LIBINT hybrid scheme
 Reset frequency        DirectResetFreq ....    20
 Integral Threshold     Thresh          ....  2.500e-11 Eh
 Primitive CutOff       TCut            ....  2.500e-12 Eh

Convergence Tolerance:
 Convergence Check Mode ConvCheckMode   .... Total+1el-Energy
 Convergence forced     ConvForced      .... 1
 Energy Change          TolE            ....  1.000e-08 Eh
 1-El. energy change                    ....  1.000e-05 Eh
 Orbital Gradient       TolG            ....  1.000e-05
 Orbital Rotation angle TolX            ....  1.000e-05
 DIIS Error             TolErr          ....  5.000e-07


Diagonalization of the overlap matrix:
Smallest eigenvalue                        ... 4.003e-06
Time for diagonalization                   ...    0.654 sec
Threshold for overlap eigenvalues          ... 1.000e-08
Number of eigenvalues below threshold      ... 0
Time for construction of square roots      ...    0.432 sec
Total time needed                          ...    1.094 sec

Time for model grid setup =    1.909 sec

------------------------------
INITIAL GUESS: MODEL POTENTIAL
------------------------------
Loading Hartree-Fock densities                     ... done
Calculating cut-offs                               ... done
Initializing the effective Hamiltonian             ... done
Setting up the integral package (SHARK)            ... done
Starting the Coulomb interaction                   ... done (   4.9 sec)
Reading the grid                                   ... done
Mapping shells                                     ... done
Starting the XC term evaluation                    ... done (   1.4 sec)
  promolecular density results
     # of electrons  =    321.990258375
     EX              =   -249.087227232
     EC              =     -5.286907086
     EX+EC           =   -254.374134318
Transforming the Hamiltonian                       ... done (   0.4 sec)
Diagonalizing the Hamiltonian                      ... done (   0.6 sec)
Back transforming the eigenvectors                 ... done (   0.2 sec)
Now organizing SCF variables                       ... done
                      ------------------
                      INITIAL GUESS DONE (   9.4 sec)
                      ------------------
-------------------
DFT GRID GENERATION
-------------------

General Integration Accuracy     IntAcc      ... 4.388
Radial Grid Type                 RadialGrid  ... OptM3 with GC (2021)
Angular Grid (max. ang.)         AngularGrid ... 4 (Lebedev-302)
Angular grid pruning method      GridPruning ... 4 (adaptive)
Weight generation scheme         WeightScheme... Becke
Basis function cutoff            BFCut       ... 1.0000e-11
Integration weight cutoff        WCut        ... 1.0000e-14
Angular grids for H and He will be reduced by one unit
Partially contracted basis set               ... off
Rotationally invariant grid construction     ... off

Total number of grid points                  ...   384041
Total number of batches                      ...     6048
Average number of points per batch           ...       63
Average number of grid points per atom       ...     4861
Time for grid setup =    6.462 sec

--------------------
COSX GRID GENERATION
--------------------

GRIDX 1
-------
General Integration Accuracy     IntAcc      ... 3.816
Radial Grid Type                 RadialGrid  ... OptM3 with GC (2021)
Angular Grid (max. ang.)         AngularGrid ... 1 (Lebedev-50)
Angular grid pruning method      GridPruning ... 4 (adaptive)
Weight generation scheme         WeightScheme... Becke
Basis function cutoff            BFCut       ... 1.0000e-11
Integration weight cutoff        WCut        ... 1.0000e-14
Angular grids for H and He will be reduced by one unit
Partially contracted basis set               ... on
Rotationally invariant grid construction     ... off

Total number of grid points                  ...    48766
Total number of batches                      ...      787
Average number of points per batch           ...       61
Average number of grid points per atom       ...      617
UseSFitting                                  ... on

GRIDX 2
-------
General Integration Accuracy     IntAcc      ... 4.020
Radial Grid Type                 RadialGrid  ... OptM3 with GC (2021)
Angular Grid (max. ang.)         AngularGrid ... 2 (Lebedev-110)
Angular grid pruning method      GridPruning ... 4 (adaptive)
Weight generation scheme         WeightScheme... Becke
Basis function cutoff            BFCut       ... 1.0000e-11
Integration weight cutoff        WCut        ... 1.0000e-14
Angular grids for H and He will be reduced by one unit
Partially contracted basis set               ... on
Rotationally invariant grid construction     ... off

Total number of grid points                  ...   106025
Total number of batches                      ...     1697
Average number of points per batch           ...       62
Average number of grid points per atom       ...     1342
UseSFitting                                  ... on

GRIDX 3
-------
General Integration Accuracy     IntAcc      ... 4.338
Radial Grid Type                 RadialGrid  ... OptM3 with GC (2021)
Angular Grid (max. ang.)         AngularGrid ... 3 (Lebedev-194)
Angular grid pruning method      GridPruning ... 4 (adaptive)
Weight generation scheme         WeightScheme... Becke
Basis function cutoff            BFCut       ... 1.0000e-11
Integration weight cutoff        WCut        ... 1.0000e-14
Angular grids for H and He will be reduced by one unit
Partially contracted basis set               ... on
Rotationally invariant grid construction     ... off

Total number of grid points                  ...   231991
Total number of batches                      ...     3665
Average number of points per batch           ...       63
Average number of grid points per atom       ...     2937
UseSFitting                                  ... on

Time for X-Grid setup             =   10.725 sec


--------------------
CPCM SOLVATION MODEL
--------------------
CPCM parameters:
  Epsilon                                         ...      37.7810
  Refrac                                          ...       1.4380
  Rsolv                                           ...       1.3000
  Surface type                                    ... GAUSSIAN VDW
  Epsilon function type                           ...         CPCM
Solvent:                                     ... N,N-DIMETHYLACETAMIDE
SMD-CDS solvent descriptors:
  Soln                                       ...    1.4380
  Soln25                                     ...    1.4358
  Sola                                       ...    0.0000
  Solb                                       ...    0.7800
  Solg                                       ...   47.6200
  Solc                                       ...    0.0000
  Solh                                       ...    0.0000
Radii:
 Radius for C  used is    3.4960 Bohr (=   1.8500 Ang.)
 Radius for H  used is    2.2677 Bohr (=   1.2000 Ang.)
 Radius for N  used is    3.5716 Bohr (=   1.8900 Ang.)
 Radius for O  used is    4.3350 Bohr (=   2.2940 Ang.)
Calculating surface                               ...        done! (  0.0s)
GEPOL surface points                              ...         4316
GEPOL Volume                                      ...    4249.6849
GEPOL Surface-area                                ...    2229.2559
Calculating surface distance matrix               ...        done! (  0.1s)
Performing Cholesky decomposition & store         ...        done! (  0.8s)
Overall time for CPCM initialization              ...                 1.0s
--------------
SCF ITERATIONS
--------------
ITER       Energy         Delta-E        Max-DP      RMS-DP      [F,P]     Damp
               ***  Starting incremental Fock matrix formation  ***
  0  -1895.7392987822   0.000000000000 0.05914716  0.00043437  0.1384480 0.7000
  1  -1896.1210777911  -0.381779008960 0.04972434  0.00037286  0.0922547 0.7000
                               ***Turning on DIIS***
  2  -1896.3542167088  -0.233138917654 0.10915101  0.00090551  0.0573923 0.0000
  3  -1896.8005024119  -0.446285703078 0.01767375  0.00021909  0.0234530 0.0000
  4  -1896.8291086968  -0.028606284962 0.01684477  0.00009516  0.0073954 0.0000
  5  -1896.8305498776  -0.001441180788 0.00371328  0.00004013  0.0033356 0.0000
                      *** Initiating the SOSCF procedure ***
                           *** Shutting down DIIS ***
                      *** Re-Reading the Fockian *** 
                      *** Removing any level shift *** 
ITER      Energy       Delta-E        Grad      Rot      Max-DP    RMS-DP
  6  -1896.83094267  -0.0003927911  0.002383  0.002383  0.002284  0.000022
               *** Restarting incremental Fock matrix formation ***
  7  -1896.83064945   0.0002932207  0.001319  0.004466  0.023614  0.000238
  8  -1896.83070838  -0.0000589370  0.000547  0.003767  0.006055  0.000055
  9  -1896.83072525  -0.0000168610  0.000088  0.000312  0.003654  0.000037
 10  -1896.83072659  -0.0000013475  0.000052  0.000160  0.000609  0.000006
 11  -1896.83072715  -0.0000005596  0.000024  0.000093  0.000465  0.000003
 12  -1896.83072725  -0.0000000935  0.000009  0.000051  0.000277  0.000002
 13  -1896.83072728  -0.0000000300  0.000003  0.000013  0.000259  0.000002
                  ***Gradient check signals convergence***
              ***Rediagonalizing the Fockian in SOSCF/NRSCF***

               *****************************************************
               *                     SUCCESS                       *
               *           SCF CONVERGED AFTER  14 CYCLES          *
               *****************************************************

Old exchange energy                            =   -194.960310620 Eh
New exchange energy                            =   -194.960145663 Eh
Exchange energy change after final integration =      0.000164957 Eh
Total energy after final integration           =  -1896.830562346 Eh
Final COS-X integration done in                =   495.555 sec

SMD CDS free energy correction energy :                -7.90873     Kcal/mol
Total Energy after SMD CDS correction =             -1896.843165710 Eh

----------------
TOTAL SCF ENERGY
----------------

Total Energy       :        -1896.84316571 Eh          -51615.72663 eV

Components:
Nuclear Repulsion  :         4892.59655271 Eh          133134.32062 eV
Electronic Energy  :        -6789.43971842 Eh         -184750.04725 eV
One Electron Energy:       -12305.92426415 Eh         -334861.22324 eV
Two Electron Energy:         5516.48454573 Eh          150111.17599 eV
Max COSX asymmetry :            0.00000619 Eh               0.00017 eV
CPCM Dielectric    :           -0.04699816 Eh              -1.27888 eV
SMD CDS (Gcds)     :           -0.01260336 Eh              -0.34295 eV

Virial components:
Potential Energy   :        -3785.93444141 Eh         -103020.51361 eV
Kinetic Energy     :         1889.09127570 Eh           51404.78698 eV
Virial Ratio       :            2.00410350


DFT components:
N(Alpha)           :      160.999809172181 electrons
N(Beta)            :      160.999809172181 electrons
N(Total)           :      321.999618344362 electrons
E(X)               :      -68.768232765813 Eh       
E(C)               :       -8.088878920304 Eh       
E(XC)              :      -76.857111686117 Eh       
DFET-embed. en.    :        0.000000000000 Eh       
CPCM Solvation Model Properties:
Surface-charge          :           -0.09630527
Charge-correction       :            0.00039784 Eh               0.01083 eV
Free-energy (cav+disp)  :           -0.01260336 Eh              -0.34295 eV

---------------
SCF CONVERGENCE
---------------

  Last Energy change         ...   -2.6630e-08  Tolerance :   1.0000e-08
  Last MAX-Density change    ...    3.2196e-15  Tolerance :   1.0000e-07
  Last RMS-Density change    ...    1.0849e-17  Tolerance :   5.0000e-09
  Last Orbital Gradient      ...    9.6829e-07  Tolerance :   1.0000e-05
  Last Orbital Rotation      ...    3.5693e-06  Tolerance :   1.0000e-05

             **** THE GBW FILE WAS UPDATED (POZ_1_M06L_def2TZVP_coords.gbw) ****
             **** DENSITY POZ_1_M06L_def2TZVP_coords.scfp WAS UPDATED ****
             **** ENERGY FILE WAS UPDATED (POZ_1_M06L_def2TZVP_coords.en.tmp) ****
             **** THE GBW FILE WAS UPDATED (POZ_1_M06L_def2TZVP_coords.gbw) ****
             **** DENSITY POZ_1_M06L_def2TZVP_coords.scfp WAS UPDATED ****
----------------
ORBITAL ENERGIES
----------------

  NO   OCC          E(Eh)            E(eV) 
   0   2.0000     -20.109973      -547.2202 
   1   2.0000     -15.173247      -412.8850 
   2   2.0000     -10.939319      -297.6740 
   3   2.0000     -10.939222      -297.6714 
   4   2.0000     -10.925467      -297.2971 
   5   2.0000     -10.925438      -297.2963 
   6   2.0000     -10.914431      -296.9968 
   7   2.0000     -10.885689      -296.2147 
   8   2.0000     -10.883750      -296.1619 
   9   2.0000     -10.882431      -296.1260 
  10   2.0000     -10.882400      -296.1251 
  11   2.0000     -10.881479      -296.1001 
  12   2.0000     -10.881385      -296.0975 
  13   2.0000     -10.880422      -296.0713 
  14   2.0000     -10.880393      -296.0705 
  15   2.0000     -10.880321      -296.0686 
  16   2.0000     -10.880235      -296.0662 
  17   2.0000     -10.874975      -295.9231 
  18   2.0000     -10.873667      -295.8875 
  19   2.0000     -10.870990      -295.8147 
  20   2.0000     -10.870976      -295.8143 
  21   2.0000     -10.870840      -295.8106 
  22   2.0000     -10.870801      -295.8095 
  23   2.0000     -10.870717      -295.8073 
  24   2.0000     -10.869982      -295.7872 
  25   2.0000     -10.869898      -295.7850 
  26   2.0000     -10.869820      -295.7828 
  27   2.0000     -10.868389      -295.7439 
  28   2.0000     -10.867798      -295.7278 
  29   2.0000     -10.867693      -295.7249 
  30   2.0000     -10.867664      -295.7242 
  31   2.0000     -10.867542      -295.7209 
  32   2.0000     -10.867528      -295.7205 
  33   2.0000     -10.867427      -295.7177 
  34   2.0000     -10.866529      -295.6933 
  35   2.0000     -10.866508      -295.6927 
  36   2.0000     -10.866411      -295.6901 
  37   2.0000     -10.866398      -295.6897 
  38   2.0000     -10.866384      -295.6893 
  39   2.0000     -10.866376      -295.6891 
  40   2.0000     -10.866330      -295.6879 
  41   2.0000     -10.866241      -295.6855 
  42   2.0000     -10.865604      -295.6681 
  43   2.0000     -10.865499      -295.6653 
  44   2.0000     -10.865304      -295.6600 
  45   2.0000     -10.865205      -295.6573 
  46   2.0000     -10.864227      -295.6306 
  47   2.0000     -10.864105      -295.6273 
  48   2.0000      -1.364818       -37.1386 
  49   2.0000      -1.232860       -33.5478 
  50   2.0000      -1.122635       -30.5485 
  51   2.0000      -1.121319       -30.5126 
  52   2.0000      -1.115321       -30.3494 
  53   2.0000      -1.108633       -30.1674 
  54   2.0000      -1.096395       -29.8344 
  55   2.0000      -1.085955       -29.5503 
  56   2.0000      -1.074867       -29.2486 
  57   2.0000      -1.058185       -28.7947 
  58   2.0000      -1.023372       -27.8474 
  59   2.0000      -1.013724       -27.5848 
  60   2.0000      -0.999337       -27.1933 
  61   2.0000      -0.993120       -27.0242 
  62   2.0000      -0.979163       -26.6444 
  63   2.0000      -0.970458       -26.4075 
  64   2.0000      -0.969095       -26.3704 
  65   2.0000      -0.964324       -26.2406 
  66   2.0000      -0.962357       -26.1871 
  67   2.0000      -0.959433       -26.1075 
  68   2.0000      -0.959259       -26.1028 
  69   2.0000      -0.949821       -25.8460 
  70   2.0000      -0.936859       -25.4932 
  71   2.0000      -0.927519       -25.2391 
  72   2.0000      -0.901995       -24.5445 
  73   2.0000      -0.851791       -23.1784 
  74   2.0000      -0.849677       -23.1209 
  75   2.0000      -0.821026       -22.3412 
  76   2.0000      -0.815778       -22.1984 
  77   2.0000      -0.815045       -22.1785 
  78   2.0000      -0.809358       -22.0237 
  79   2.0000      -0.804745       -21.8982 
  80   2.0000      -0.804548       -21.8929 
  81   2.0000      -0.788393       -21.4533 
  82   2.0000      -0.776409       -21.1272 
  83   2.0000      -0.765272       -20.8241 
  84   2.0000      -0.765205       -20.8223 
  85   2.0000      -0.763247       -20.7690 
  86   2.0000      -0.759264       -20.6606 
  87   2.0000      -0.738971       -20.1084 
  88   2.0000      -0.731877       -19.9154 
  89   2.0000      -0.702485       -19.1156 
  90   2.0000      -0.695149       -18.9160 
  91   2.0000      -0.694278       -18.8923 
  92   2.0000      -0.685701       -18.6589 
  93   2.0000      -0.669510       -18.2183 
  94   2.0000      -0.669373       -18.2146 
  95   2.0000      -0.662265       -18.0212 
  96   2.0000      -0.655475       -17.8364 
  97   2.0000      -0.647862       -17.6292 
  98   2.0000      -0.633201       -17.2303 
  99   2.0000      -0.630983       -17.1699 
 100   2.0000      -0.630626       -17.1602 
 101   2.0000      -0.623785       -16.9740 
 102   2.0000      -0.623207       -16.9583 
 103   2.0000      -0.617508       -16.8032 
 104   2.0000      -0.602397       -16.3921 
 105   2.0000      -0.601929       -16.3793 
 106   2.0000      -0.596617       -16.2348 
 107   2.0000      -0.591741       -16.1021 
 108   2.0000      -0.589880       -16.0515 
 109   2.0000      -0.585472       -15.9315 
 110   2.0000      -0.582924       -15.8622 
 111   2.0000      -0.580943       -15.8083 
 112   2.0000      -0.579134       -15.7590 
 113   2.0000      -0.576175       -15.6785 
 114   2.0000      -0.574725       -15.6391 
 115   2.0000      -0.574310       -15.6278 
 116   2.0000      -0.569179       -15.4881 
 117   2.0000      -0.568730       -15.4759 
 118   2.0000      -0.556361       -15.1393 
 119   2.0000      -0.555812       -15.1244 
 120   2.0000      -0.551068       -14.9953 
 121   2.0000      -0.548182       -14.9168 
 122   2.0000      -0.537404       -14.6235 
 123   2.0000      -0.534790       -14.5524 
 124   2.0000      -0.532227       -14.4826 
 125   2.0000      -0.530568       -14.4375 
 126   2.0000      -0.528926       -14.3928 
 127   2.0000      -0.523529       -14.2459 
 128   2.0000      -0.517167       -14.0728 
 129   2.0000      -0.516509       -14.0549 
 130   2.0000      -0.504084       -13.7168 
 131   2.0000      -0.503203       -13.6928 
 132   2.0000      -0.499751       -13.5989 
 133   2.0000      -0.494336       -13.4516 
 134   2.0000      -0.492262       -13.3951 
 135   2.0000      -0.486446       -13.2369 
 136   2.0000      -0.479435       -13.0461 
 137   2.0000      -0.478282       -13.0147 
 138   2.0000      -0.476660       -12.9706 
 139   2.0000      -0.472773       -12.8648 
 140   2.0000      -0.472175       -12.8485 
 141   2.0000      -0.463937       -12.6244 
 142   2.0000      -0.459754       -12.5105 
 143   2.0000      -0.457589       -12.4516 
 144   2.0000      -0.455344       -12.3905 
 145   2.0000      -0.455190       -12.3863 
 146   2.0000      -0.409148       -11.1335 
 147   2.0000      -0.401337       -10.9209 
 148   2.0000      -0.387858       -10.5542 
 149   2.0000      -0.369136       -10.0447 
 150   2.0000      -0.358658        -9.7596 
 151   2.0000      -0.356621        -9.7042 
 152   2.0000      -0.356262        -9.6944 
 153   2.0000      -0.353041        -9.6067 
 154   2.0000      -0.352878        -9.6023 
 155   2.0000      -0.342386        -9.3168 
 156   2.0000      -0.339058        -9.2262 
 157   2.0000      -0.318077        -8.6553 
 158   2.0000      -0.312197        -8.4953 
 159   2.0000      -0.300030        -8.1642 
 160   2.0000      -0.261379        -7.1125 
 161   0.0000       0.022555         0.6137 
 162   0.0000       0.030851         0.8395 
 163   0.0000       0.034649         0.9429 
 164   0.0000       0.056806         1.5458 
 165   0.0000       0.066809         1.8180 
 166   0.0000       0.068521         1.8646 
 167   0.0000       0.077905         2.1199 
 168   0.0000       0.079271         2.1571 
 169   0.0000       0.081744         2.2244 
 170   0.0000       0.089981         2.4485 
 171   0.0000       0.093096         2.5333 
 172   0.0000       0.101549         2.7633 
 173   0.0000       0.112350         3.0572 
 174   0.0000       0.131032         3.5656 
 175   0.0000       0.133339         3.6283 
 176   0.0000       0.138600         3.7715 
 177   0.0000       0.147008         4.0003 
 178   0.0000       0.147074         4.0021 
 179   0.0000       0.151336         4.1181 
 180   0.0000       0.152242         4.1427 
 181   0.0000       0.153661         4.1813 
 182   0.0000       0.154742         4.2107 
 183   0.0000       0.158486         4.3126 
 184   0.0000       0.161407         4.3921 
 185   0.0000       0.162195         4.4136 
 186   0.0000       0.170125         4.6293 
 187   0.0000       0.173009         4.7078 
 188   0.0000       0.178312         4.8521 
 189   0.0000       0.179854         4.8941 
 190   0.0000       0.180185         4.9031 
 191   0.0000       0.186197         5.0667 
 192   0.0000       0.187144         5.0925 
 193   0.0000       0.191277         5.2049 
 194   0.0000       0.195820         5.3285 
 195   0.0000       0.196297         5.3415 
 196   0.0000       0.197364         5.3705 
 197   0.0000       0.200922         5.4674 
 198   0.0000       0.201875         5.4933 
 199   0.0000       0.202364         5.5066 
 200   0.0000       0.203642         5.5414 
 201   0.0000       0.206286         5.6133 
 202   0.0000       0.209677         5.7056 
 203   0.0000       0.214475         5.8362 
 204   0.0000       0.215881         5.8744 
 205   0.0000       0.217057         5.9064 
 206   0.0000       0.219009         5.9595 
 207   0.0000       0.223894         6.0925 
 208   0.0000       0.225056         6.1241 
 209   0.0000       0.227186         6.1820 
 210   0.0000       0.233112         6.3433 
 211   0.0000       0.235760         6.4154 
 212   0.0000       0.237386         6.4596 
 213   0.0000       0.241669         6.5761 
 214   0.0000       0.247347         6.7307 
 215   0.0000       0.249614         6.7924 
 216   0.0000       0.254037         6.9127 
 217   0.0000       0.259543         7.0625 
 218   0.0000       0.261709         7.1215 
 219   0.0000       0.265192         7.2162 
 220   0.0000       0.267536         7.2800 
 221   0.0000       0.271177         7.3791 
 222   0.0000       0.274895         7.4803 
 223   0.0000       0.277315         7.5461 
 224   0.0000       0.277721         7.5572 
 225   0.0000       0.281649         7.6641 
 226   0.0000       0.285628         7.7723 
 227   0.0000       0.287255         7.8166 
 228   0.0000       0.289965         7.8904 
 229   0.0000       0.290104         7.8941 
 230   0.0000       0.291860         7.9419 
 231   0.0000       0.292107         7.9486 
 232   0.0000       0.293120         7.9762 
 233   0.0000       0.295295         8.0354 
 234   0.0000       0.296519         8.0687 
 235   0.0000       0.298938         8.1345 
 236   0.0000       0.299631         8.1534 
 237   0.0000       0.302887         8.2420 
 238   0.0000       0.304701         8.2913 
 239   0.0000       0.307013         8.3543 
 240   0.0000       0.309540         8.4230 
 241   0.0000       0.310306         8.4439 
 242   0.0000       0.313842         8.5401 
 243   0.0000       0.315757         8.5922 
 244   0.0000       0.319259         8.6875 
 245   0.0000       0.321254         8.7418 
 246   0.0000       0.322688         8.7808 
 247   0.0000       0.324882         8.8405 
 248   0.0000       0.327273         8.9056 
 249   0.0000       0.328954         8.9513 
 250   0.0000       0.331025         9.0076 
 251   0.0000       0.333012         9.0617 
 252   0.0000       0.337825         9.1927 
 253   0.0000       0.338097         9.2001 
 254   0.0000       0.340197         9.2572 
 255   0.0000       0.343248         9.3402 
 256   0.0000       0.344606         9.3772 
 257   0.0000       0.345685         9.4066 
 258   0.0000       0.346879         9.4390 
 259   0.0000       0.348278         9.4771 
 260   0.0000       0.351056         9.5527 
 261   0.0000       0.351919         9.5762 
 262   0.0000       0.352881         9.6024 
 263   0.0000       0.355164         9.6645 
 264   0.0000       0.355928         9.6853 
 265   0.0000       0.359156         9.7731 
 266   0.0000       0.362749         9.8709 
 267   0.0000       0.364736         9.9250 
 268   0.0000       0.370332        10.0772 
 269   0.0000       0.371298        10.1035 
[...]

STATE 20:  E=   0.203966 au      5.550 eV    44765.5 cm**-1 <S**2> =   0.000000
   146a -> 161a  :     0.015634 
   148a -> 163a  :     0.034431 
   151a -> 163a  :     0.029200 
   151a -> 165a  :     0.036952 
   152a -> 161a  :     0.041944 
   152a -> 166a  :     0.030451 
   153a -> 161a  :     0.014390 
   153a -> 163a  :     0.047401 
   153a -> 168a  :     0.019134 
   153a -> 170a  :     0.011498 
   154a -> 161a  :     0.052597 
   154a -> 163a  :     0.011901 
   154a -> 169a  :     0.017779 
   157a -> 163a  :     0.010326 
   157a -> 165a  :     0.010098 
   157a -> 172a  :     0.032979 
   159a -> 161a  :     0.088439 
   159a -> 166a  :     0.022939 
   159a -> 167a  :     0.043595 
   160a -> 163a  :     0.132621 
   160a -> 168a  :     0.033412 
   160a -> 170a  :     0.020197 
   160a -> 172a  :     0.010582 

STATE 21:  E=   0.209515 au      5.701 eV    45983.3 cm**-1 <S**2> =   0.000000
   149a -> 165a  :     0.013623 
   149a -> 168a  :     0.015310 
   156a -> 164a  :     0.016693 
   156a -> 169a  :     0.018049 
   156a -> 171a  :     0.015723 
   157a -> 161a  :     0.016241 
   157a -> 164a  :     0.019441 
   157a -> 174a  :     0.031561 
   157a -> 176a  :     0.011323 
   159a -> 168a  :     0.012662 
   160a -> 161a  :     0.016803 
   160a -> 164a  :     0.010758 
   160a -> 169a  :     0.014716 
   160a -> 171a  :     0.044143 
   160a -> 174a  :     0.363186 
   160a -> 176a  :     0.097043 
   160a -> 183a  :     0.014322 
   160a -> 188a  :     0.011301 

STATE 22:  E=   0.224008 au      6.096 eV    49164.1 cm**-1 <S**2> =   0.000000
   146a -> 161a  :     0.028637 
   148a -> 163a  :     0.035748 
   149a -> 164a  :     0.032552 
   149a -> 169a  :     0.026000 
   149a -> 171a  :     0.016623 
   150a -> 167a  :     0.034815 
   151a -> 163a  :     0.010460 
   151a -> 165a  :     0.043881 
   152a -> 166a  :     0.033064 
   153a -> 163a  :     0.026128 
   153a -> 168a  :     0.018012 
   153a -> 170a  :     0.026435 
   154a -> 161a  :     0.021077 
   154a -> 169a  :     0.019865 
   154a -> 171a  :     0.017427 
   156a -> 165a  :     0.060542 
   156a -> 168a  :     0.067856 
   156a -> 170a  :     0.032491 
   157a -> 163a  :     0.013331 
   157a -> 168a  :     0.029580 
   157a -> 172a  :     0.022560 
   159a -> 166a  :     0.010655 
   159a -> 175a  :     0.030696 
   160a -> 163a  :     0.034719 
   160a -> 168a  :     0.033848 
   160a -> 170a  :     0.016890 
   160a -> 180a  :     0.012083 

STATE 23:  E=   0.215345 au      5.860 eV    47262.8 cm**-1 <S**2> =   0.000000
   149a -> 163a  :     0.013681 
   149a -> 165a  :     0.021757 
   149a -> 168a  :     0.027813 
   153a -> 161a  :     0.046526 
   153a -> 163a  :     0.014645 
   153a -> 167a  :     0.014015 
   154a -> 161a  :     0.013523 
   154a -> 163a  :     0.045302 
   156a -> 164a  :     0.042079 
   156a -> 166a  :     0.022453 
   156a -> 169a  :     0.024682 
   156a -> 171a  :     0.024979 
   157a -> 161a  :     0.016307 
   157a -> 164a  :     0.012463 
   157a -> 169a  :     0.025895 
   157a -> 171a  :     0.014861 
   157a -> 174a  :     0.015007 
   159a -> 165a  :     0.010425 
   159a -> 168a  :     0.042731 
   160a -> 161a  :     0.020613 
   160a -> 169a  :     0.043266 
   160a -> 171a  :     0.013927 
   160a -> 174a  :     0.117328 
   160a -> 175a  :     0.051826 
   160a -> 176a  :     0.036863 

STATE 24:  E=   0.220876 au      6.010 eV    48476.6 cm**-1 <S**2> =   0.000000
   147a -> 162a  :     0.019494 
   149a -> 161a  :     0.036239 
   149a -> 167a  :     0.012990 
   155a -> 161a  :     0.024289 
   155a -> 164a  :     0.404055 
   155a -> 166a  :     0.084627 
   155a -> 169a  :     0.020953 
   156a -> 172a  :     0.014560 
   157a -> 165a  :     0.016705 
   158a -> 162a  :     0.044655 
   158a -> 173a  :     0.040084 
   159a -> 164a  :     0.018571 
   160a -> 165a  :     0.010056 
   160a -> 168a  :     0.013625 
   160a -> 174a  :     0.013346 

STATE 25:  E=   0.230603 au      6.275 eV    50611.4 cm**-1 <S**2> =   0.000000
   147a -> 162a  :     0.230968 
   149a -> 161a  :     0.030086 
   155a -> 164a  :     0.088144 
   155a -> 166a  :     0.022252 
   156a -> 163a  :     0.012418 
   158a -> 171a  :     0.015568 
   158a -> 173a  :     0.372019 
   159a -> 161a  :     0.010157 
   159a -> 173a  :     0.013963 

STATE 26:  E=   0.215181 au      5.855 eV    47226.7 cm**-1 <S**2> =   0.000000
   147a -> 162a  :     0.054700 
   149a -> 161a  :     0.124571 
   149a -> 167a  :     0.029262 
   150a -> 167a  :     0.012966 
   152a -> 161a  :     0.014950 
   153a -> 163a  :     0.029682 
   154a -> 161a  :     0.020945 
   154a -> 163a  :     0.013071 
   154a -> 167a  :     0.015491 
   156a -> 163a  :     0.080222 
   156a -> 172a  :     0.019337 
   157a -> 163a  :     0.012508 
   157a -> 165a  :     0.014236 
   158a -> 161a  :     0.018390 
   158a -> 173a  :     0.096614 
   159a -> 161a  :     0.048788 
   159a -> 166a  :     0.016590 
   159a -> 167a  :     0.029610 
   160a -> 163a  :     0.059271 
   160a -> 168a  :     0.031163 

STATE 27:  E=   0.232854 au      6.336 eV    51105.5 cm**-1 <S**2> =   0.000000
   151a -> 165a  :     0.077658 
   151a -> 170a  :     0.088960 
   152a -> 164a  :     0.019643 
   152a -> 166a  :     0.058923 
   152a -> 169a  :     0.026135 
   152a -> 171a  :     0.069993 
   153a -> 165a  :     0.079981 
   153a -> 166a  :     0.027490 
   153a -> 168a  :     0.033517 
   154a -> 164a  :     0.014876 
   154a -> 165a  :     0.024895 
   154a -> 166a  :     0.089857 
   154a -> 168a  :     0.010335 
   154a -> 169a  :     0.019721 
   155a -> 164a  :     0.060795 
   155a -> 166a  :     0.021833 
   156a -> 165a  :     0.016094 
   157a -> 165a  :     0.015758 
   158a -> 162a  :     0.016238 
   158a -> 173a  :     0.010332 
   159a -> 161a  :     0.048289 

STATE 28:  E=   0.221300 au      6.022 eV    48569.8 cm**-1 <S**2> =   0.000000
   149a -> 161a  :     0.013283 
   150a -> 165a  :     0.011806 
   150a -> 168a  :     0.012260 
   151a -> 161a  :     0.098267 
   151a -> 163a  :     0.055032 
   152a -> 163a  :     0.058370 
   153a -> 161a  :     0.044163 
   153a -> 163a  :     0.042328 
   153a -> 167a  :     0.039682 
   153a -> 172a  :     0.016550 
   154a -> 163a  :     0.014984 
   156a -> 169a  :     0.012704 
   157a -> 166a  :     0.011821 
   157a -> 168a  :     0.019212 
   157a -> 169a  :     0.034331 
   159a -> 168a  :     0.033731 
   159a -> 169a  :     0.031257 
   159a -> 170a  :     0.071833 
   160a -> 169a  :     0.015065 
   160a -> 170a  :     0.050828 
   160a -> 171a  :     0.087228 

STATE 29:  E=   0.232797 au      6.335 eV    51093.1 cm**-1 <S**2> =   0.000000
   151a -> 164a  :     0.015372 
   151a -> 166a  :     0.049451 
   151a -> 169a  :     0.030737 
   151a -> 171a  :     0.066386 
   152a -> 165a  :     0.055628 
   152a -> 168a  :     0.010887 
   152a -> 170a  :     0.081633 
   153a -> 164a  :     0.012814 
   153a -> 165a  :     0.028171 
   153a -> 166a  :     0.106778 
   153a -> 168a  :     0.010981 
   153a -> 169a  :     0.035208 
   154a -> 165a  :     0.107791 
   154a -> 166a  :     0.026970 
   154a -> 168a  :     0.057028 
   154a -> 169a  :     0.014777 
   156a -> 161a  :     0.022658 
   159a -> 163a  :     0.040169 
   159a -> 168a  :     0.010901 
   160a -> 171a  :     0.011224 

STATE 30:  E=   0.221638 au      6.031 eV    48644.0 cm**-1 <S**2> =   0.000000
   149a -> 161a  :     0.040240 
   150a -> 166a  :     0.010307 
   151a -> 161a  :     0.014561 
   151a -> 163a  :     0.044000 
   152a -> 161a  :     0.070228 
   152a -> 163a  :     0.052210 
   152a -> 167a  :     0.010965 
   152a -> 170a  :     0.011693 
   153a -> 166a  :     0.012194 
   154a -> 161a  :     0.032500 
   154a -> 163a  :     0.031260 
   154a -> 165a  :     0.012863 
   154a -> 167a  :     0.029681 
   154a -> 172a  :     0.015647 
   156a -> 163a  :     0.011927 
   157a -> 168a  :     0.038234 
   159a -> 169a  :     0.071248 
   159a -> 170a  :     0.028494 
   159a -> 171a  :     0.014272 
   160a -> 170a  :     0.080319 
   160a -> 171a  :     0.033980 
   160a -> 172a  :     0.011847 
   160a -> 174a  :     0.010432 


-------------------------
TD-DFT-EXCITATION SPECTRA
-------------------------

Center of mass = (  0.0001,  0.0175, -0.0088)
Calculating the Dipole integrals                  ... done
Transforming integrals                            ... done
Calculating the Linear Momentum integrals         ... done
Transforming integrals                            ... done
Calculating angular momentum integrals            ... done
Transforming integrals                            ... done

-----------------------------------------------------------------------------
         ABSORPTION SPECTRUM VIA TRANSITION ELECTRIC DIPOLE MOMENTS
-----------------------------------------------------------------------------
State   Energy    Wavelength  fosc         T2        TX        TY        TZ  
        (cm-1)      (nm)                 (au**2)    (au)      (au)      (au) 
-----------------------------------------------------------------------------
   1   27622.6    362.0   1.196201198  14.25656  -3.77564   0.02509  -0.02098
   2   33820.0    295.7   0.903740418   8.79724   0.01064   2.95672  -0.23441
   3   31235.2    320.2   0.302543390   3.18874  -1.78519  -0.01534  -0.03987
   4   37155.7    269.1   0.029958346   0.26544   0.26109   0.44415   0.00104
   5   29894.5    334.5   0.082312212   0.90646  -0.95114   0.04044  -0.01224
   6   33831.6    295.6   0.087694195   0.85334   0.11743  -0.90859   0.11841
   7   35212.4    284.0   0.000818528   0.00765   0.02163   0.03341   0.07790
   8   37100.6    269.5   0.583573381   5.17833  -2.27549  -0.02143   0.00567
   9   37467.8    266.9   0.001655317   0.01454   0.00964  -0.10886   0.05100
  10   37380.6    267.5   0.006864964   0.06046  -0.24425  -0.00657  -0.02752
  11   40402.2    247.5   0.002802735   0.02284  -0.00160  -0.12900  -0.07871
  12   40065.5    249.6   0.000313904   0.00258  -0.02322  -0.00979  -0.04409
  13   42464.8    235.5   0.006373583   0.04941   0.00011  -0.09738  -0.19982
  14   41290.0    242.2   0.266623307   2.12583   1.45465   0.02180   0.09668
  15   38956.6    256.7   0.150443170   1.27136  -1.12555   0.03261   0.05859
  16   45319.9    220.7   1.353589491   9.83271  -0.06021  -0.93732  -2.99174
  17   43523.8    229.8   0.064544975   0.48821  -0.11712   0.09468  -0.68230
  18   46369.8    215.7   0.077387883   0.54943  -0.65141   0.04614   0.35067
  19   47157.3    212.1   1.100701200   7.68415  -2.77127   0.06426   0.01014
  20   44765.5    223.4   0.081822674   0.60174   0.12114   0.71498  -0.27543
  21   45983.3    217.5   0.039170297   0.28044  -0.28979  -0.23552  -0.37548
  22   49164.1    203.4   0.276676170   1.85267  -0.03428  -1.32825   0.29539
  23   47262.8    211.6   0.122701472   0.85468  -0.67422   0.39061   0.49752
  24   48476.6    206.3   0.716123008   4.86330  -0.12251  -2.09428   0.67992
  25   50611.4    197.6   0.101855078   0.66254   0.01304  -0.81297   0.03810
  26   47226.7    211.7   0.099247710   0.69184  -0.12414   0.81912   0.07401
  27   51105.5    195.7   0.562487140   3.62344   0.04411   1.82899  -0.52564
  28   48569.8    205.9   0.781805398   5.29917   0.98002  -1.41487  -1.52868
  29   51093.1    195.7   1.052774739   6.78342   2.53086  -0.50495   0.35096
  30   48644.0    205.6   0.894220765   6.05189  -1.50307  -1.65395   1.02817

-----------------------------------------------------------------------------
         ABSORPTION SPECTRUM VIA TRANSITION VELOCITY DIPOLE MOMENTS
-----------------------------------------------------------------------------
State   Energy    Wavelength   fosc        P2         PX        PY        PZ  
        (cm-1)      (nm)                 (au**2)     (au)      (au)      (au) 
-----------------------------------------------------------------------------
   1   27622.6    362.0   1.488915218   0.28109   0.53016  -0.00347   0.00284
   2   33820.0    295.7   0.991887546   0.22927  -0.00168  -0.47731   0.03797
   3   31235.2    320.2   0.440554238   0.09405   0.30658   0.00262   0.00713
   4   37155.7    269.1   0.032583449   0.00827  -0.04516  -0.07896   0.00023
   5   29894.5    334.5   0.133030005   0.02718   0.16467  -0.00753   0.00243
   6   33831.6    295.6   0.114479059   0.02647  -0.02062   0.16006  -0.02063
   7   35212.4    284.0   0.000815950   0.00020  -0.00388  -0.00552  -0.01228
   8   37100.6    269.5   0.661706418   0.16779   0.40960   0.00387  -0.00108
   9   37467.8    266.9   0.002235249   0.00057  -0.00177   0.02178  -0.00974
  10   37380.6    267.5   0.009277586   0.00237   0.04838   0.00118   0.00532
  11   40402.2    247.5   0.003345386   0.00092   0.00019   0.02581   0.01605
  12   40065.5    249.6   0.000344116   0.00009   0.00518   0.00181   0.00801
  13   42464.8    235.5   0.007123587   0.00207  -0.00009   0.02012   0.04077
  14   41290.0    242.2   0.342714875   0.09671  -0.31026  -0.00473  -0.02066
  15   38956.6    256.7   0.220094964   0.05860   0.24163  -0.00705  -0.01280
  16   45319.9    220.7   1.524573688   0.47222   0.01311   0.20551   0.65560
  17   43523.8    229.8   0.080266251   0.02388   0.02605  -0.02057   0.15091
  18   46369.8    215.7   0.086466508   0.02740   0.14616  -0.01033  -0.07703
  19   47157.3    212.1   1.225062186   0.39483   0.62818  -0.01470  -0.00198
  20   44765.5    223.4   0.101616953   0.03109  -0.02752  -0.16296   0.06146
  21   45983.3    217.5   0.042472257   0.01335   0.06712   0.05397   0.07701
  22   49164.1    203.4   0.291959882   0.09810   0.00788   0.30566  -0.06791
  23   47262.8    211.6   0.138869842   0.04486   0.15612  -0.09083  -0.11061
  24   48476.6    206.3   0.808572871   0.26789   0.02853   0.49222  -0.15748
  25   50611.4    197.6   0.107860141   0.03731  -0.00311   0.19292  -0.00911
  26   47226.7    211.7   0.121919101   0.03935   0.02954  -0.19546  -0.01652
  27   51105.5    195.7   0.600399305   0.20971  -0.01065  -0.44006   0.12626
  28   48569.8    205.9   0.946933308   0.31433  -0.23804   0.34355   0.37369
  29   51093.1    195.7   1.142138793   0.39883  -0.61353   0.12263  -0.08585
  30   48644.0    205.6   1.078322411   0.35850   0.36522   0.40172  -0.25245

-------------------------------------------------------------------
                             CD SPECTRUM
-------------------------------------------------------------------
State  Energy     Wavelength     R         MX        MY        MZ   
       (cm-1)       (nm)     (1e40*cgs)   (au)      (au)      (au)  
-------------------------------------------------------------------
   1   27622.6    362.0     72.26975  -0.04755   0.36027   1.68101
   2   33820.0    295.7     26.12669   0.18147   0.01702  -0.01353
   3   31235.2    320.2      2.30779  -0.00627   0.03114   0.14595
   4   37155.7    269.1    -34.45038  -0.17442  -0.06193  -0.02632
   5   29894.5    334.5     25.89791  -0.04994   0.21192   0.09310
   6   33831.6    295.6      1.22115   0.00822  -0.00310  -0.01006
   7   35212.4    284.0      0.88801   0.09350  -0.00063  -0.00151
   8   37100.6    269.5     45.62605  -0.04310   0.16270   0.38580
   9   37467.8    266.9     -9.00888   0.03614   0.17255  -0.01321
  10   37380.6    267.5    -10.70910   0.09948   0.01473  -0.06100
  11   40402.2    247.5     -6.51439  -0.11561   0.11331  -0.00780
  12   40065.5    249.6      2.76851  -0.08384  -0.00146  -0.08870
  13   42464.8    235.5     -1.31539  -0.24755   0.02986  -0.00073
  14   41290.0    242.2      4.05883   0.00480  -0.09390   0.03799
  15   38956.6    256.7    -83.97265   0.19132   0.15606   0.54841
  16   45319.9    220.7    244.41466  -3.54490   0.01795  -0.10757
  17   43523.8    229.8     54.75638  -0.72028   0.05469  -0.03900
  18   46369.8    215.7    -251.10482   0.40378  -0.04041  -0.76347
  19   47157.3    212.1    -240.96483   0.19302   0.26247   0.68330
  20   44765.5    223.4    -176.02670  -0.10894  -0.49644   0.01899
  21   45983.3    217.5    -100.06102  -0.20807   0.10018   0.66300
  22   49164.1    203.4    -385.95691   0.17440   0.61129  -0.00247
  23   47262.8    211.6    332.05374  -0.60248   0.10600   0.51598
  24   48476.6    206.3    232.64680   0.26072  -0.24209   0.02708
  25   50611.4    197.6    -193.97676   0.91868   0.51938  -0.03112
  26   47226.7    211.7    -771.10023   0.42689  -1.93458   0.02773
  27   51105.5    195.7    191.57488  -0.00514   0.27693   0.19011
  28   48569.8    205.9    -1088.44885   1.28230  -1.86797   4.06123
  29   51093.1    195.7    -417.76275  -0.32410  -1.42637  -2.23986
  30   48644.0    205.6    2425.29930  -1.07599  -3.13568  -1.61375

Total run time:   155807.579 sec

           *** ORCA-CIS/TD-DFT FINISHED WITHOUT ERROR ***

Maximum memory used throughout the entire CIS-calculation: 13725.3 MB

-----------------------
CIS/TD-DFT TOTAL ENERGY
-----------------------

    E(SCF)  =  -1896.843165710 Eh
    DE(CIS) =      0.125858002 Eh (Root  1)
    ----------------------------- ---------
    E(tot)  =  -1896.717307708 Eh


-------------------------   --------------------
FINAL SINGLE POINT ENERGY     -1896.717307707876
-------------------------   --------------------


                            ***************************************
                            *     ORCA property calculations      *
                            ***************************************


  WARNING: The energy has been calculated at the MP2 level but the densities
           used in the property calculations are still SCF densities
           MP2 response densities have not been calculated 
           use %mp2 Density relaxed end
           or  %mp2 Density unrelaxed end

                                    ---------------------
                                    Active property flags
                                    ---------------------
   (+) Dipole Moment


------------------------------------------------------------------------------
                       ORCA ELECTRIC PROPERTIES CALCULATION
------------------------------------------------------------------------------

Dipole Moment Calculation                       ... on
Quadrupole Moment Calculation                   ... off
Polarizability Calculation                      ... off
GBWName                                         ... POZ_1_M06L_def2TZVP_coords.gbw
Electron density                                ... POZ_1_M06L_def2TZVP_coords.scfp
The origin for moment calculation is the CENTER OF MASS  = ( 0.000063,  0.017491 -0.008787)

-------------
DIPOLE MOMENT
-------------
                                X             Y             Z
Electronic contribution:      0.01990       7.08756      -2.91175
Nuclear contribution   :     -0.02043      -5.63200       2.82928
                        -----------------------------------------
Total Dipole Moment    :     -0.00052       1.45555      -0.08247
                        -----------------------------------------
Magnitude (a.u.)       :      1.45789
Magnitude (Debye)      :      3.70566



--------------------
Rotational spectrum 
--------------------
 
Rotational constants in cm-1:     0.002297     0.000767     0.000599 
Rotational constants in MHz :    68.851724    22.987264    17.972395 

 Dipole components along the rotational axes: 
x,y,z [a.u.] :    -0.000486    -1.455539    -0.082744 
x,y,z [Debye]:    -0.001234    -3.699686    -0.210319 

 

Timings for individual modules:

Sum of individual times         ...   167573.594 sec (=2792.893 min)
GTO integral calculation        ...        6.874 sec (=   0.115 min)   0.0 %
SCF iterations                  ...     3197.312 sec (=  53.289 min)   1.9 %
MP2 module                      ...     8559.644 sec (= 142.661 min)   5.1 %
CIS module                      ...   155809.763 sec (=2596.829 min)  93.0 %
                             ****ORCA TERMINATED NORMALLY****
TOTAL RUN TIME: 1 days 22 hours 33 minutes 6 seconds 33 msec
