
                                 *****************
                                 * O   R   C   A *
                                 *****************

                                            #,                                       
                                            ###                                      
                                            ####                                     
                                            #####                                    
                                            ######                                   
                                           ########,                                 
                                     ,,################,,,,,                         
                               ,,#################################,,                 
                          ,,##########################################,,             
                       ,#########################################, ''#####,          
                    ,#############################################,,   '####,        
                  ,##################################################,,,,####,       
                ,###########''''           ''''###############################       
              ,#####''   ,,,,##########,,,,          '''####'''          '####       
            ,##' ,,,,###########################,,,                        '##       
           ' ,,###''''                  '''############,,,                           
         ,,##''                                '''############,,,,        ,,,,,,###''
      ,#''                                            '''#######################'''  
     '                                                          ''''####''''         
             ,#######,   #######,   ,#######,      ##                                
            ,#'     '#,  ##    ##  ,#'     '#,    #''#        ######   ,####,        
            ##       ##  ##   ,#'  ##            #'  '#       #        #'  '#        
            ##       ##  #######   ##           ,######,      #####,   #    #        
            '#,     ,#'  ##    ##  '#,     ,#' ,#      #,         ##   #,  ,#        
             '#######'   ##     ##  '#######'  #'      '#     #####' # '####'        



                  #######################################################
                  #                        -***-                        #
                  #          Department of theory and spectroscopy      #
                  #    Directorship and core code : Frank Neese         #
                  #        Max Planck Institute fuer Kohlenforschung    #
                  #                Kaiser Wilhelm Platz 1               #
                  #                 D-45470 Muelheim/Ruhr               #
                  #                      Germany                        #
                  #                                                     #
                  #                  All rights reserved                #
                  #                        -***-                        #
                  #######################################################


                         Program Version 5.0.2 -  RELEASE  -


 With contributions from (in alphabetic order):
   Daniel Aravena         : Magnetic Suceptibility
   Michael Atanasov       : Ab Initio Ligand Field Theory (pilot matlab implementation)
   Alexander A. Auer      : GIAO ZORA, VPT2 properties, NMR spectrum
   Ute Becker             : Parallelization
   Giovanni Bistoni       : ED, misc. LED, open-shell LED, HFLD
   Martin Brehm           : Molecular dynamics
   Dmytro Bykov           : SCF Hessian
   Vijay G. Chilkuri      : MRCI spin determinant printing, contributions to CSF-ICE
   Dipayan Datta          : RHF DLPNO-CCSD density
   Achintya Kumar Dutta   : EOM-CC, STEOM-CC
   Dmitry Ganyushin       : Spin-Orbit,Spin-Spin,Magnetic field MRCI
   Miquel Garcia          : C-PCM and meta-GGA Hessian, CC/C-PCM, Gaussian charge scheme
   Yang Guo               : DLPNO-NEVPT2, F12-NEVPT2, CIM, IAO-localization
   Andreas Hansen         : Spin unrestricted coupled pair/coupled cluster methods
   Benjamin Helmich-Paris : MC-RPA, TRAH-SCF, COSX integrals
   Lee Huntington         : MR-EOM, pCC
   Robert Izsak           : Overlap fitted RIJCOSX, COSX-SCS-MP3, EOM
   Marcus Kettner         : VPT2
   Christian Kollmar      : KDIIS, OOCD, Brueckner-CCSD(T), CCSD density, CASPT2, CASPT2-K
   Simone Kossmann        : Meta GGA functionals, TD-DFT gradient, OOMP2, MP2 Hessian
   Martin Krupicka        : Initial AUTO-CI
   Lucas Lang             : DCDCAS
   Marvin Lechner         : AUTO-CI (C++ implementation), FIC-MRCC
   Dagmar Lenk            : GEPOL surface, SMD
   Dimitrios Liakos       : Extrapolation schemes; Compound Job, initial MDCI parallelization
   Dimitrios Manganas     : Further ROCIS development; embedding schemes
   Dimitrios Pantazis     : SARC Basis sets
   Anastasios Papadopoulos: AUTO-CI, single reference methods and gradients
   Taras Petrenko         : DFT Hessian,TD-DFT gradient, ASA, ECA, R-Raman, ABS, FL, XAS/XES, NRVS
   Peter Pinski           : DLPNO-MP2, DLPNO-MP2 Gradient
   Christoph Reimann      : Effective Core Potentials
   Marius Retegan         : Local ZFS, SOC
   Christoph Riplinger    : Optimizer, TS searches, QM/MM, DLPNO-CCSD(T), (RO)-DLPNO pert. Triples
   Tobias Risthaus        : Range-separated hybrids, TD-DFT gradient, RPA, STAB
   Michael Roemelt        : Original ROCIS implementation
   Masaaki Saitow         : Open-shell DLPNO-CCSD energy and density
   Barbara Sandhoefer     : DKH picture change effects
   Avijit Sen             : IP-ROCIS
   Kantharuban Sivalingam : CASSCF convergence, NEVPT2, FIC-MRCI
   Bernardo de Souza      : ESD, SOC TD-DFT
   Georgi Stoychev        : AutoAux, RI-MP2 NMR, DLPNO-MP2 response
   Willem Van den Heuvel  : Paramagnetic NMR
   Boris Wezisla          : Elementary symmetry handling
   Frank Wennmohs         : Technical directorship


 We gratefully acknowledge several colleagues who have allowed us to
 interface, adapt or use parts of their codes:
   Stefan Grimme, W. Hujo, H. Kruse, P. Pracht,  : VdW corrections, initial TS optimization,
                  C. Bannwarth, S. Ehlert          DFT functionals, gCP, sTDA/sTD-DF
   Ed Valeev, F. Pavosevic, A. Kumar             : LibInt (2-el integral package), F12 methods
   Garnet Chan, S. Sharma, J. Yang, R. Olivares  : DMRG
   Ulf Ekstrom                                   : XCFun DFT Library
   Mihaly Kallay                                 : mrcc  (arbitrary order and MRCC methods)
   Jiri Pittner, Ondrej Demel                    : Mk-CCSD
   Frank Weinhold                                : gennbo (NPA and NBO analysis)
   Christopher J. Cramer and Donald G. Truhlar   : smd solvation model
   Lars Goerigk                                  : TD-DFT with DH, B97 family of functionals
   V. Asgeirsson, H. Jonsson                     : NEB implementation
   FAccTs GmbH                                   : IRC, NEB, NEB-TS, DLPNO-Multilevel, CI-OPT
                                                   MM, QMMM, 2- and 3-layer-ONIOM, Crystal-QMMM,
                                                   LR-CPCM, SF, NACMEs, symmetry and pop. for TD-DFT,
                                                   nearIR, NL-DFT gradient (VV10), updates on ESD,
                                                   ML-optimized integration grids
   S Lehtola, MJT Oliveira, MAL Marques          : LibXC Library
   Liviu Ungur et al                             : ANISO software


 Your calculation uses the libint2 library for the computation of 2-el integrals
 For citations please refer to: http://libint.valeyev.net

 Your ORCA version has been built with support for libXC version: 5.1.0
 For citations please refer to: https://tddft.org/programs/libxc/

 This ORCA versions uses:
   CBLAS   interface :  Fast vector & matrix operations
   LAPACKE interface :  Fast linear algebra routines
   SCALAPACK package :  Parallel linear algebra routines
   Shared memory     :  Shared parallel matrices
   BLAS/LAPACK       :  OpenBLAS 0.3.15  USE64BITINT DYNAMIC_ARCH NO_AFFINITY Prescott SINGLE_THREADED
        Core in use  :  Prescott
   Copyright (c) 2011-2014, The OpenBLAS Project


Your calculation utilizes the SMD solvation module
Please cite in your paper:
A.V. Marenich, C.J. Cramer, D.G. Truhlar J. Phys. Chem. B, 113, (2009), 6378 

================================================================================

----- Orbital basis set information -----
Your calculation utilizes the basis: def2-TZVP
   F. Weigend and R. Ahlrichs, Phys. Chem. Chem. Phys. 7, 3297 (2005).

----- AuxJ basis set information -----
Your calculation utilizes the auxiliary basis: def2/J
   F. Weigend, Phys. Chem. Chem. Phys. 8, 1057 (2006).

----- AuxC basis set information -----
Your calculation utilizes the auxiliary basis: def2-TZVP/C
  H-La, Hf-Rn : A. Hellweg, C. Hattig, S. Hofener and W. Klopper, Theor. Chem. Acc. 117, 587 (2007).
        Ce-Lu : J. Chmela and M. E. Harding, Mol. Phys. (2018).

================================================================================
                                        WARNINGS
                       Please study these warnings very carefully!
================================================================================

INFO   : Checking CIS options ...
  ===> : (D) CORRECTION FOUND - SETTING MODE=3
  ===> : JK MODE FOUND - ACTIVATING RI-MP2 CODE
  ===> : MP2 AND CIS FOUND - CHECKING
WARNING: CIS(D) and MP2 runs must have the same orbital window
  ===> : adjusting orbital windows

WARNING: No MP2 level density has been requested!
         To caclulate MP2 level properties use
         %mp2 Density relaxed end
         or
         %mp2 Density unrelaxed end
         Otherwise for double-hybrid DFT only the energy is correct!

WARNING: The frozen-core approximation is turned on by default for 
         the MP2 part of double-hybrid DFT.

WARNING: CIS/ROCIS methods need fully converged wavefunctions
  ===> : Setting SCFConvForced true
         You can overwrite this default with %scf ConvForced false 


INFO   : the flag for use of the SHARK integral package has been found!

================================================================================
                                       INPUT FILE
================================================================================
NAME = POZ_1_M06L_def2TZVP_coords.inp
|  1> %maxcore 20000
|  2> %pal
|  3>  nprocs= 4
|  4> end
|  5> ! RI-B2GP-PLYP   def2-TZVP def2/J def2-TZVP/C RIJCOSX CPCM TightSCF
|  6> %TDDFT  
|  7>    NROOTS   30
|  8>    dcorr 4
|  9>    TDA      FALSE
| 10> END
| 11> 
| 12> %CPCM
| 13>    SMD          TRUE
| 14>    SMDsolvent   "N,N-DIMETHYLACETAMIDE"
| 15> END
| 16>    
| 17> 
| 18> * xyz 0 1
| 19> C                   3.61765600    1.45129200   -0.41710800
| 20> C                   2.44517500    2.18143900   -0.52558900
| 21> C                   1.20333900    1.55532600   -0.48552500
| 22> C                   1.18228700    0.16538700   -0.32119200
| 23> C                   2.34675200   -0.55878600   -0.21041400
| 24> C                   3.60126000    0.06610900   -0.25821900
| 25> C                  -1.17577200    0.16028500   -0.34751100
| 26> C                  -1.19916600    1.55107000   -0.50445000
| 27> C                  -2.44211400    2.17400900   -0.55758300
| 28> H                  -2.48898600    3.24685300   -0.69037300
| 29> C                  -3.61362200    1.44116500   -0.45677800
| 30> C                  -3.59444600    0.05559400   -0.30227300
| 31> C                  -2.33941600   -0.56755200   -0.25157400
| 32> H                   2.49034800    3.25650000   -0.63969400
| 33> H                   2.26194200   -1.63305300   -0.10958300
| 34> H                  -4.55793100    1.96513400   -0.52506800
| 35> N                   0.00174200    2.24955900   -0.59693700
| 36> C                   0.00056200    3.66933500   -0.75726300
| 37> C                  -0.01257000    4.49792300    0.39277600
| 38> C                   0.01230200    4.20580600   -2.01807600
| 39> C                  -0.02431100    3.98392000    1.70735200
| 40> C                  -0.01360100    5.91252700    0.20200000
| 41> C                   0.01123100    5.59906000   -2.19624600
| 42> H                   0.02223200    3.54255500   -2.87410700
| 43> C                  -0.03664200    4.82859300    2.78568100
| 44> H                  -0.02340800    2.91104100    1.85507100
| 45> C                  -0.02656500    6.75075800    1.33821000
| 46> C                  -0.00154100    6.43210700   -1.11033800
| 47> H                   0.02049300    6.00674200   -3.19874000
| 48> C                  -0.03783300    6.22286100    2.60113500
| 49> H                  -0.04550000    4.42197900    3.78909000
| 50> H                  -0.02731400    7.82390600    1.18779900
| 51> H                  -0.00254300    7.50773000   -1.24113500
| 52> H                  -0.04762900    6.87718600    3.46363800
| 53> H                  -2.25341000   -1.63725400   -0.11096500
| 54> H                   4.55950900    1.98342300   -0.43475900
| 55> C                   4.84078100   -0.71276500   -0.14102100
| 56> C                   4.86923200   -1.95495900    0.50335400
| 57> C                   6.04922900   -0.24468200   -0.67036200
| 58> C                   6.03685000   -2.68544600    0.61210500
| 59> H                   3.96230800   -2.35379600    0.94081200
| 60> C                   7.21561100   -0.97650100   -0.56340900
| 61> H                   6.07437000    0.70556800   -1.18913500
| 62> C                   7.24251000   -2.21808800    0.08007100
| 63> H                   6.00838000   -3.64756400    1.10890300
| 64> H                   8.12914900   -0.56883700   -0.97882500
| 65> C                   8.48500700   -2.99905500    0.18939000
| 66> C                   8.69575200   -3.87865400    1.25699800
| 67> C                   9.49513700   -2.88708900   -0.77242100
| 68> C                   9.86576100   -4.61291700    1.35865300
| 69> H                   7.94181600   -3.97236900    2.02898800
| 70> C                  10.66473600   -3.62185200   -0.67084500
| 71> H                   9.35319700   -2.23121800   -1.62254300
| 72> C                  10.85740600   -4.48917500    0.39541600
| 73> H                  10.00665100   -5.28064900    2.19971700
| 74> H                  11.42706600   -3.52191500   -1.43373300
| 75> H                  11.77175500   -5.06351900    0.47480300
| 76> C                  -4.83306400   -0.72638000   -0.19976900
| 77> C                  -4.88328100   -2.07478100   -0.57130100
| 78> C                  -6.01848200   -0.15322100    0.27511300
| 79> C                  -6.05175900   -2.80607500   -0.47613000
| 80> H                  -3.99412900   -2.55906400   -0.95592400
| 81> C                  -7.18513600   -0.88568100    0.37337600
| 82> H                  -6.02355900    0.88365100    0.58764600
| 83> C                  -7.23473800   -2.23287900    0.00039400
| 84> H                  -6.04192000   -3.85004800   -0.76476200
| 85> H                  -8.08117500   -0.39762400    0.73700900
| 86> C                  -8.47747600   -3.01352100    0.10930100
| 87> C                  -8.73236700   -4.09330900   -0.74326900
| 88> C                  -9.44350500   -2.70019400    1.07186600
| 89> C                  -9.90257400   -4.82687200   -0.63782200
| 90> H                  -8.01349600   -4.34802500   -1.51238900
| 91> C                 -10.61287300   -3.43453800    1.17790300
| 92> H                  -9.26604400   -1.88310400    1.76027200
| 93> C                 -10.84975200   -4.50232700    0.32350500
| 94> H                 -10.07880000   -5.65279100   -1.31598500
| 95> H                 -11.34011200   -3.17583000    1.93767700
| 96> H                 -11.76406500   -5.07633400    0.40567900
| 97> O                   0.00409900   -0.53872400   -0.27868500
| 98> *
| 99> 
|100> 
|101>                          ****END OF INPUT****
================================================================================

                       ****************************
                       * Single Point Calculation *
                       ****************************

---------------------------------
CARTESIAN COORDINATES (ANGSTROEM)
---------------------------------
  C      3.617656    1.451292   -0.417108
  C      2.445175    2.181439   -0.525589
  C      1.203339    1.555326   -0.485525
  C      1.182287    0.165387   -0.321192
  C      2.346752   -0.558786   -0.210414
  C      3.601260    0.066109   -0.258219
  C     -1.175772    0.160285   -0.347511
  C     -1.199166    1.551070   -0.504450
  C     -2.442114    2.174009   -0.557583
  H     -2.488986    3.246853   -0.690373
  C     -3.613622    1.441165   -0.456778
  C     -3.594446    0.055594   -0.302273
  C     -2.339416   -0.567552   -0.251574
  H      2.490348    3.256500   -0.639694
  H      2.261942   -1.633053   -0.109583
  H     -4.557931    1.965134   -0.525068
  N      0.001742    2.249559   -0.596937
  C      0.000562    3.669335   -0.757263
  C     -0.012570    4.497923    0.392776
  C      0.012302    4.205806   -2.018076
  C     -0.024311    3.983920    1.707352
  C     -0.013601    5.912527    0.202000
  C      0.011231    5.599060   -2.196246
  H      0.022232    3.542555   -2.874107
  C     -0.036642    4.828593    2.785681
  H     -0.023408    2.911041    1.855071
  C     -0.026565    6.750758    1.338210
  C     -0.001541    6.432107   -1.110338
  H      0.020493    6.006742   -3.198740
  C     -0.037833    6.222861    2.601135
  H     -0.045500    4.421979    3.789090
  H     -0.027314    7.823906    1.187799
  H     -0.002543    7.507730   -1.241135
  H     -0.047629    6.877186    3.463638
  H     -2.253410   -1.637254   -0.110965
  H      4.559509    1.983423   -0.434759
  C      4.840781   -0.712765   -0.141021
  C      4.869232   -1.954959    0.503354
  C      6.049229   -0.244682   -0.670362
  C      6.036850   -2.685446    0.612105
  H      3.962308   -2.353796    0.940812
  C      7.215611   -0.976501   -0.563409
  H      6.074370    0.705568   -1.189135
  C      7.242510   -2.218088    0.080071
  H      6.008380   -3.647564    1.108903
  H      8.129149   -0.568837   -0.978825
  C      8.485007   -2.999055    0.189390
  C      8.695752   -3.878654    1.256998
  C      9.495137   -2.887089   -0.772421
  C      9.865761   -4.612917    1.358653
  H      7.941816   -3.972369    2.028988
  C     10.664736   -3.621852   -0.670845
  H      9.353197   -2.231218   -1.622543
  C     10.857406   -4.489175    0.395416
  H     10.006651   -5.280649    2.199717
  H     11.427066   -3.521915   -1.433733
  H     11.771755   -5.063519    0.474803
  C     -4.833064   -0.726380   -0.199769
  C     -4.883281   -2.074781   -0.571301
  C     -6.018482   -0.153221    0.275113
  C     -6.051759   -2.806075   -0.476130
  H     -3.994129   -2.559064   -0.955924
  C     -7.185136   -0.885681    0.373376
  H     -6.023559    0.883651    0.587646
  C     -7.234738   -2.232879    0.000394
  H     -6.041920   -3.850048   -0.764762
  H     -8.081175   -0.397624    0.737009
  C     -8.477476   -3.013521    0.109301
  C     -8.732367   -4.093309   -0.743269
  C     -9.443505   -2.700194    1.071866
  C     -9.902574   -4.826872   -0.637822
  H     -8.013496   -4.348025   -1.512389
  C    -10.612873   -3.434538    1.177903
  H     -9.266044   -1.883104    1.760272
  C    -10.849752   -4.502327    0.323505
  H    -10.078800   -5.652791   -1.315985
  H    -11.340112   -3.175830    1.937677
  H    -11.764065   -5.076334    0.405679
  O      0.004099   -0.538724   -0.278685

----------------------------
CARTESIAN COORDINATES (A.U.)
----------------------------
  NO LB      ZA    FRAG     MASS         X           Y           Z
   0 C     6.0000    0    12.011    6.836379    2.742544   -0.788220
   1 C     6.0000    0    12.011    4.620711    4.122322   -0.993219
   2 C     6.0000    0    12.011    2.273981    2.939140   -0.917509
   3 C     6.0000    0    12.011    2.234199    0.312536   -0.606965
   4 C     6.0000    0    12.011    4.434719   -1.055953   -0.397625
   5 C     6.0000    0    12.011    6.805395    0.124928   -0.487963
   6 C     6.0000    0    12.011   -2.221887    0.302895   -0.656701
   7 C     6.0000    0    12.011   -2.266095    2.931098   -0.953272
   8 C     6.0000    0    12.011   -4.614927    4.108282   -1.053679
   9 H     1.0000    0     1.008   -4.703502    6.135663   -1.304616
  10 C     6.0000    0    12.011   -6.828756    2.723407   -0.863185
  11 C     6.0000    0    12.011   -6.792519    0.105057   -0.571213
  12 C     6.0000    0    12.011   -4.420856   -1.072518   -0.475406
  13 H     1.0000    0     1.008    4.706076    6.153893   -1.208846
  14 H     1.0000    0     1.008    4.274451   -3.086023   -0.207082
  15 H     1.0000    0     1.008   -8.613241    3.713565   -0.992235
  16 N     7.0000    0    14.007    0.003292    4.251050   -1.128047
  17 C     6.0000    0    12.011    0.001062    6.934038   -1.431020
  18 C     6.0000    0    12.011   -0.023754    8.499843    0.742239
  19 C     6.0000    0    12.011    0.023247    7.947822   -3.813611
  20 C     6.0000    0    12.011   -0.045941    7.528518    3.226428
  21 C     6.0000    0    12.011   -0.025702   11.173057    0.381725
  22 C     6.0000    0    12.011    0.021224   10.580690   -4.150303
  23 H     1.0000    0     1.008    0.042012    6.694459   -5.431275
  24 C     6.0000    0    12.011   -0.069243    9.124718    5.264174
  25 H     1.0000    0     1.008   -0.044235    5.501070    3.505576
  26 C     6.0000    0    12.011   -0.050201   12.757084    2.528850
  27 C     6.0000    0    12.011   -0.002912   12.154921   -2.098235
  28 H     1.0000    0     1.008    0.038726   11.351097   -6.044743
  29 C     6.0000    0    12.011   -0.071494   11.759503    4.915433
  30 H     1.0000    0     1.008   -0.085983    8.356329    7.160342
  31 H     1.0000    0     1.008   -0.051616   14.785040    2.244615
  32 H     1.0000    0     1.008   -0.004806   14.187554   -2.345405
  33 H     1.0000    0     1.008   -0.090006   12.995998    6.545327
  34 H     1.0000    0     1.008   -4.258328   -3.093962   -0.209693
  35 H     1.0000    0     1.008    8.616223    3.748126   -0.821575
  36 C     6.0000    0    12.011    9.147750   -1.346931   -0.266491
  37 C     6.0000    0    12.011    9.201515   -3.694337    0.951201
  38 C     6.0000    0    12.011   11.431386   -0.462382   -1.266801
  39 C     6.0000    0    12.011   11.407993   -5.074757    1.156711
  40 H     1.0000    0     1.008    7.487677   -4.448030    1.777877
  41 C     6.0000    0    12.011   13.635529   -1.845319   -1.064689
  42 H     1.0000    0     1.008   11.478896    1.333330   -2.247139
  43 C     6.0000    0    12.011   13.686360   -4.191579    0.151312
  44 H     1.0000    0     1.008   11.354193   -6.892897    2.095523
  45 H     1.0000    0     1.008   15.361865   -1.074946   -1.849711
  46 C     6.0000    0    12.011   16.034339   -5.667393    0.357895
  47 C     6.0000    0    12.011   16.432590   -7.329594    2.375382
  48 C     6.0000    0    12.011   17.943209   -5.455808   -1.459664
  49 C     6.0000    0    12.011   18.643586   -8.717150    2.567482
  50 H     1.0000    0     1.008   15.007857   -7.506690    3.834232
  51 C     6.0000    0    12.011   20.153430   -6.844308   -1.267713
  52 H     1.0000    0     1.008   17.674981   -4.216391   -3.066162
  53 C     6.0000    0    12.011   20.517524   -8.483311    0.747228
  54 H     1.0000    0     1.008   18.909830   -9.978980    4.156863
  55 H     1.0000    0     1.008   21.594025   -6.655455   -2.709363
  56 H     1.0000    0     1.008   22.245393   -9.568664    0.897248
  57 C     6.0000    0    12.011   -9.133167   -1.372659   -0.377509
  58 C     6.0000    0    12.011   -9.228064   -3.920768   -1.079602
  59 C     6.0000    0    12.011  -11.373283   -0.289546    0.519888
  60 C     6.0000    0    12.011  -11.436167   -5.302713   -0.899755
  61 H     1.0000    0     1.008   -7.547810   -4.835930   -1.806435
  62 C     6.0000    0    12.011  -13.577939   -1.673695    0.705578
  63 H     1.0000    0     1.008  -11.382877    1.669858    1.110490
  64 C     6.0000    0    12.011  -13.671673   -4.219530    0.000745
  65 H     1.0000    0     1.008  -11.417574   -7.275536   -1.445191
  66 H     1.0000    0     1.008  -15.271208   -0.751400    1.392745
  67 C     6.0000    0    12.011  -16.020108   -5.694729    0.206549
  68 C     6.0000    0    12.011  -16.501782   -7.735233   -1.404575
  69 C     6.0000    0    12.011  -17.845638   -5.102627    2.025533
  70 C     6.0000    0    12.011  -18.713153   -9.121466   -1.205309
  71 H     1.0000    0     1.008  -15.143313   -8.216576   -2.858001
  72 C     6.0000    0    12.011  -20.055423   -6.490336    2.225914
  73 H     1.0000    0     1.008  -17.510286   -3.558551    3.326432
  74 C     6.0000    0    12.011  -20.503060   -8.508165    0.611336
  75 H     1.0000    0     1.008  -19.046172  -10.682227   -2.486851
  76 H     1.0000    0     1.008  -21.429706   -6.001449    3.661679
  77 H     1.0000    0     1.008  -22.230861   -9.592881    0.766622
  78 O     8.0000    0    15.999    0.007746   -1.018041   -0.526638

--------------------------------
INTERNAL COORDINATES (ANGSTROEM)
--------------------------------
 C      0   0   0     0.000000000000     0.00000000     0.00000000
 C      1   0   0     1.385494303247     0.00000000     0.00000000
 C      2   1   0     1.391322846704   121.05914102     0.00000000
 C      3   2   1     1.399778177182   117.62313195     0.50130147
 C      4   3   2     1.375745992339   121.29262293   359.65001087
 C      1   2   3     1.394362394296   121.49980942   359.71778936
 C      4   3   2     2.358211391637    90.90970076   179.08191780
 C      7   4   3     1.399807145710    90.90605177   359.67473411
 C      8   7   4     1.391328805177   117.64909951   181.44220101
 H      9   8   7     1.082046402341   119.16370034   180.73080406
 C      9   8   7     1.385515416885   121.04882029     0.07797513
 C     11   9   8     1.394290683481   121.47039687   359.82778861
 C      7   4   3     1.375869894021   147.78601947   181.78788235
 H      2   1   3     1.082042838651   119.77008818   179.76526395
 H      5   4   3     1.082316595988   117.62268152   181.46611635
 H     11   9   8     1.082093584004   118.50044623   181.32454896
 N      3   2   1     1.392195188342   122.93274886   180.30313780
 C     17   3   2     1.428800094083   120.34487976   359.82872067
 C     18  17   3     1.417504929335   119.32862102   270.98250554
 C     18  17   3     1.370251211424   119.49064077    90.97402680
 C     19  18  17     1.411540645843   122.87449087     0.00000000
 C     19  18  17     1.427410600336   118.09069954   180.00754434
 C     20  18  17     1.404600442993   120.33534777   179.99411050
 H     20  18  17     1.082954092684   119.18462476     0.00000000
 C     21  19  18     1.369824062692   120.57461158   179.99350116
 H     21  19  18     1.083000954298   119.19352879     0.00000000
 C     22  19  18     1.412010070345   118.73622387   180.00234305
 C     23  20  18     1.368695222706   120.20492439     0.00000000
 H     23  20  18     1.082259034522   119.41582828   180.00679373
 C     27  22  19     1.368861485344   120.89993794     0.00000000
 H     25  21  19     1.082701727366   119.87085042   180.00447913
 H     27  22  19     1.083637697677   118.43836378   180.00138717
 H     28  23  20     1.083546813637   120.55926696   180.00653635
 H     30  27  22     1.082658114203   120.13250854   179.99487084
 H     13   7   4     1.082326333284   117.68969919   358.75717461
 H      1   2   3     1.081925151095   118.43889107   181.14162658
 C      6   1   2     1.468602188655   121.73748293   180.07800696
 C     37   6   1     1.399669437282   121.63975327   155.32206723
 C     37   6   1     1.399875050808   121.40518040   335.31028878
 C     38  37   6     1.381582364933   121.51100927   180.00133203
 H     38  37   6     1.083028899018   119.72001515   359.18187315
 C     39  37   6     1.381102806779   121.50561663   180.11621194
 H     39  37   6     1.082927771326   119.64292941   359.22907246
 C     40  38  37     1.398248802224   121.46979618   359.83151193
 H     40  38  37     1.083185044038   118.91588832   180.74137826
 H     42  39  37     1.083195304364   118.89018429   180.67288326
 C     44  40  38     1.471617781171   121.49142500   180.32898543
 C     47  44  40     1.399247904229   121.16091213   331.43415898
 C     47  44  40     1.399278171693   121.06266211   151.38430392
 C     48  47  44     1.385062075242   121.09631601   180.00807139
 H     48  47  44     1.083129979929   119.56191560   358.67507869
 C     49  47  44     1.384975151671   121.11581084   180.02004979
 H     49  47  44     1.083061008035   119.56276116   358.70459076
 C     52  49  47     1.387906133479   120.33864574     0.00000000
 H     50  48  47     1.083099565146   119.58418516   179.50502149
 H     52  49  47     1.083112428796   119.58880305   179.50952906
 H     54  52  49     1.082685282022   120.33623598   180.00232352
 C     12  11   9     1.468388557779   121.69132485   180.22211625
 C     58  12  11     1.399551010472   121.65550883   154.14836385
 C     58  12  11     1.399728540800   121.33167537   334.16134749
 C     59  58  12     1.381734153215   121.46471345   180.15202098
 H     59  58  12     1.083077169606   119.71000301   359.27913345
 C     60  58  12     1.381026728375   121.49296240   180.02499351
 H     60  58  12     1.082961770517   119.59931182   359.11603872
 C     61  59  58     1.398237494646   121.46515856   359.75252420
 H     61  59  58     1.083182746389   118.95120077   180.65894015
 H     63  60  58     1.083196419611   118.92903590   180.61581598
 C     65  61  59     1.471618294075   121.48165758   180.36224513
 C     68  65  61     1.399209473855   121.20550336   331.40758698
 C     68  65  61     1.399255951209   121.00660633   151.32860957
 C     69  68  65     1.385141930499   121.07830843   179.95447847
 H     69  68  65     1.083144186938   119.55404129   358.64955430
 C     70  68  65     1.384892225095   121.12324741   180.10519997
 H     70  68  65     1.083065693048   119.54163727   358.78899597
 C     73  70  68     1.387905238684   120.32669989   359.94386974
 H     71  69  68     1.083098726897   119.57980708   179.48024862
 H     73  70  68     1.083080294097   119.60464185   179.47014526
 H     75  73  70     1.082684101802   120.35104930   180.03550116
 O      7   4   3     1.373115500240    30.83262681   177.78352436

---------------------------
INTERNAL COORDINATES (A.U.)
---------------------------
 C      0   0   0     0.000000000000     0.00000000     0.00000000
 C      1   0   0     2.618204793246     0.00000000     0.00000000
 C      2   1   0     2.629219144139   121.05914102     0.00000000
 C      3   2   1     2.645197403113   117.62313195     0.50130147
 C      4   3   2     2.599783155361   121.29262293   359.65001087
 C      1   2   3     2.634963056658   121.49980942   359.71778936
 C      4   3   2     4.456373696087    90.90970076   179.08191780
 C      7   4   3     2.645252145699    90.90605177   359.67473411
 C      8   7   4     2.629230404020   117.64909951   181.44220101
 H      9   8   7     2.044771364620   119.16370034   180.73080406
 C      9   8   7     2.618244692238   121.04882029     0.07797513
 C     11   9   8     2.634827542857   121.47039687   359.82778861
 C      7   4   3     2.600017295607   147.78601947   181.78788235
 H      2   1   3     2.044764630220   119.77008818   179.76526395
 H      5   4   3     2.045281956614   117.62268152   181.46611635
 H     11   9   8     2.044860525040   118.50044623   181.32454896
 N      3   2   1     2.630867630929   122.93274886   180.30313780
 C     17   3   2     2.700040877938   120.34487976   359.82872067
 C     18  17   3     2.678696109927   119.32862102   270.98250554
 C     18  17   3     2.589399524266   119.49064077    90.97402680
 C     19  18  17     2.667425247541   122.87449087     0.00000000
 C     19  18  17     2.697415115292   118.09069954   180.00754434
 C     20  18  17     2.654310164842   120.33534777   179.99411050
 H     20  18  17     2.046486650783   119.18462476     0.00000000
 C     21  19  18     2.588592330144   120.57461158   179.99350116
 H     21  19  18     2.046575206399   119.19352879     0.00000000
 C     22  19  18     2.668312331292   118.73622387   180.00234305
 C     23  20  18     2.586459131720   120.20492439     0.00000000
 H     23  20  18     2.045173181208   119.41582828   180.00679373
 C     27  22  19     2.586773322573   120.89993794     0.00000000
 H     25  21  19     2.046009749445   119.87085042   180.00447913
 H     27  22  19     2.047778477002   118.43836378   180.00138717
 H     28  23  20     2.047606731056   120.55926696   180.00653635
 H     30  27  22     2.045927332512   120.13250854   179.99487084
 H     13   7   4     2.045300357439   117.68969919   358.75717461
 H      1   2   3     2.044542232970   118.43889107   181.14162658
 C      6   1   2     2.775255936234   121.73748293   180.07800696
 C     37   6   1     2.644991914483   121.63975327   155.32206723
 C     37   6   1     2.645380467736   121.40518040   335.31028878
 C     38  37   6     2.610812301179   121.51100927   180.00133203
 H     38  37   6     2.046628014267   119.72001515   359.18187315
 C     39  37   6     2.609906067603   121.50561663   180.11621194
 H     39  37   6     2.046436910625   119.64292941   359.22907246
 C     40  38  37     2.642307303286   121.46979618   359.83151193
 H     40  38  37     2.046923085592   118.91588832   180.74137826
 H     42  39  37     2.046942474797   118.89018429   180.67288326
 C     44  40  38     2.780954580222   121.49142500   180.32898543
 C     47  44  40     2.644195332457   121.16091213   331.43415898
 C     47  44  40     2.644252529674   121.06266211   151.38430392
 C     48  47  44     2.617388000689   121.09631601   180.00807139
 H     48  47  44     2.046819029505   119.56191560   358.67507869
 C     49  47  44     2.617223738944   121.11581084   180.02004979
 H     49  47  44     2.046688691514   119.56276116   358.70459076
 C     52  49  47     2.622762491866   120.33864574     0.00000000
 H     50  48  47     2.046761553896   119.58418516   179.50502149
 H     52  49  47     2.046785862671   119.58880305   179.50952906
 H     54  52  49     2.045978672248   120.33623598   180.00232352
 C     12  11   9     2.774852232386   121.69132485   180.22211625
 C     58  12  11     2.644768120245   121.65550883   154.14836385
 C     58  12  11     2.645103603944   121.33167537   334.16134749
 C     59  58  12     2.611099139462   121.46471345   180.15202098
 H     59  58  12     2.046719232458   119.71000301   359.27913345
 C     60  58  12     2.609762300253   121.49296240   180.02499351
 H     60  58  12     2.046501159784   119.59931182   359.11603872
 C     61  59  58     2.642285935060   121.46515856   359.75252420
 H     61  59  58     2.046918743663   118.95120077   180.65894015
 H     63  60  58     2.046944582310   118.92903590   180.61581598
 C     65  61  59     2.780955549471   121.48165758   180.36224513
 C     68  65  61     2.644122709574   121.20550336   331.40758698
 C     68  65  61     2.644210539045   121.00660633   151.32860957
 C     69  68  65     2.617538905254   121.07830843   179.95447847
 H     69  68  65     2.046845876861   119.55404129   358.64955430
 C     70  68  65     2.617067030427   121.12324741   180.10519997
 H     70  68  65     2.046697544906   119.54163727   358.78899597
 C     73  70  68     2.622760800947   120.32669989   359.94386974
 H     71  69  68     2.046759969834   119.57980708   179.48024862
 H     73  70  68     2.046725136890   119.60464185   179.47014526
 H     75  73  70     2.045976441956   120.35104930   180.03550116
 O      7   4   3     2.594812245695    30.83262681   177.78352436

---------------------
BASIS SET INFORMATION
---------------------
There are 4 groups of distinct atoms

 Group   1 Type C   : 11s6p2d1f contracted to 5s3p2d1f pattern {62111/411/11/1}
 Group   2 Type H   : 5s1p contracted to 3s1p pattern {311/1}
 Group   3 Type N   : 11s6p2d1f contracted to 5s3p2d1f pattern {62111/411/11/1}
 Group   4 Type O   : 11s6p2d1f contracted to 5s3p2d1f pattern {62111/411/11/1}

Atom   0C    basis set group =>   1
Atom   1C    basis set group =>   1
Atom   2C    basis set group =>   1
Atom   3C    basis set group =>   1
Atom   4C    basis set group =>   1
Atom   5C    basis set group =>   1
Atom   6C    basis set group =>   1
Atom   7C    basis set group =>   1
Atom   8C    basis set group =>   1
Atom   9H    basis set group =>   2
Atom  10C    basis set group =>   1
Atom  11C    basis set group =>   1
Atom  12C    basis set group =>   1
Atom  13H    basis set group =>   2
Atom  14H    basis set group =>   2
Atom  15H    basis set group =>   2
Atom  16N    basis set group =>   3
Atom  17C    basis set group =>   1
Atom  18C    basis set group =>   1
Atom  19C    basis set group =>   1
Atom  20C    basis set group =>   1
Atom  21C    basis set group =>   1
Atom  22C    basis set group =>   1
Atom  23H    basis set group =>   2
Atom  24C    basis set group =>   1
Atom  25H    basis set group =>   2
Atom  26C    basis set group =>   1
Atom  27C    basis set group =>   1
Atom  28H    basis set group =>   2
Atom  29C    basis set group =>   1
Atom  30H    basis set group =>   2
Atom  31H    basis set group =>   2
Atom  32H    basis set group =>   2
Atom  33H    basis set group =>   2
Atom  34H    basis set group =>   2
Atom  35H    basis set group =>   2
Atom  36C    basis set group =>   1
Atom  37C    basis set group =>   1
Atom  38C    basis set group =>   1
Atom  39C    basis set group =>   1
Atom  40H    basis set group =>   2
Atom  41C    basis set group =>   1
Atom  42H    basis set group =>   2
Atom  43C    basis set group =>   1
Atom  44H    basis set group =>   2
Atom  45H    basis set group =>   2
Atom  46C    basis set group =>   1
Atom  47C    basis set group =>   1
Atom  48C    basis set group =>   1
Atom  49C    basis set group =>   1
Atom  50H    basis set group =>   2
Atom  51C    basis set group =>   1
Atom  52H    basis set group =>   2
Atom  53C    basis set group =>   1
Atom  54H    basis set group =>   2
Atom  55H    basis set group =>   2
Atom  56H    basis set group =>   2
Atom  57C    basis set group =>   1
Atom  58C    basis set group =>   1
Atom  59C    basis set group =>   1
Atom  60C    basis set group =>   1
Atom  61H    basis set group =>   2
Atom  62C    basis set group =>   1
Atom  63H    basis set group =>   2
Atom  64C    basis set group =>   1
Atom  65H    basis set group =>   2
Atom  66H    basis set group =>   2
Atom  67C    basis set group =>   1
Atom  68C    basis set group =>   1
Atom  69C    basis set group =>   1
Atom  70C    basis set group =>   1
Atom  71H    basis set group =>   2
Atom  72C    basis set group =>   1
Atom  73H    basis set group =>   2
Atom  74C    basis set group =>   1
Atom  75H    basis set group =>   2
Atom  76H    basis set group =>   2
Atom  77H    basis set group =>   2
Atom  78O    basis set group =>   4
---------------------------------
AUXILIARY/J BASIS SET INFORMATION
---------------------------------
There are 4 groups of distinct atoms

 Group   1 Type C   : 12s5p4d2f1g contracted to 6s4p3d1f1g pattern {711111/2111/211/2/1}
 Group   2 Type H   : 5s2p1d contracted to 3s1p1d pattern {311/2/1}
 Group   3 Type N   : 12s5p4d2f1g contracted to 6s4p3d1f1g pattern {711111/2111/211/2/1}
 Group   4 Type O   : 12s5p4d2f1g contracted to 6s4p3d1f1g pattern {711111/2111/211/2/1}

Atom   0C    basis set group =>   1
Atom   1C    basis set group =>   1
Atom   2C    basis set group =>   1
Atom   3C    basis set group =>   1
Atom   4C    basis set group =>   1
Atom   5C    basis set group =>   1
Atom   6C    basis set group =>   1
Atom   7C    basis set group =>   1
Atom   8C    basis set group =>   1
Atom   9H    basis set group =>   2
Atom  10C    basis set group =>   1
Atom  11C    basis set group =>   1
Atom  12C    basis set group =>   1
Atom  13H    basis set group =>   2
Atom  14H    basis set group =>   2
Atom  15H    basis set group =>   2
Atom  16N    basis set group =>   3
Atom  17C    basis set group =>   1
Atom  18C    basis set group =>   1
Atom  19C    basis set group =>   1
Atom  20C    basis set group =>   1
Atom  21C    basis set group =>   1
Atom  22C    basis set group =>   1
Atom  23H    basis set group =>   2
Atom  24C    basis set group =>   1
Atom  25H    basis set group =>   2
Atom  26C    basis set group =>   1
Atom  27C    basis set group =>   1
Atom  28H    basis set group =>   2
Atom  29C    basis set group =>   1
Atom  30H    basis set group =>   2
Atom  31H    basis set group =>   2
Atom  32H    basis set group =>   2
Atom  33H    basis set group =>   2
Atom  34H    basis set group =>   2
Atom  35H    basis set group =>   2
Atom  36C    basis set group =>   1
Atom  37C    basis set group =>   1
Atom  38C    basis set group =>   1
Atom  39C    basis set group =>   1
Atom  40H    basis set group =>   2
Atom  41C    basis set group =>   1
Atom  42H    basis set group =>   2
Atom  43C    basis set group =>   1
Atom  44H    basis set group =>   2
Atom  45H    basis set group =>   2
Atom  46C    basis set group =>   1
Atom  47C    basis set group =>   1
Atom  48C    basis set group =>   1
Atom  49C    basis set group =>   1
Atom  50H    basis set group =>   2
Atom  51C    basis set group =>   1
Atom  52H    basis set group =>   2
Atom  53C    basis set group =>   1
Atom  54H    basis set group =>   2
Atom  55H    basis set group =>   2
Atom  56H    basis set group =>   2
Atom  57C    basis set group =>   1
Atom  58C    basis set group =>   1
Atom  59C    basis set group =>   1
Atom  60C    basis set group =>   1
Atom  61H    basis set group =>   2
Atom  62C    basis set group =>   1
Atom  63H    basis set group =>   2
Atom  64C    basis set group =>   1
Atom  65H    basis set group =>   2
Atom  66H    basis set group =>   2
Atom  67C    basis set group =>   1
Atom  68C    basis set group =>   1
Atom  69C    basis set group =>   1
Atom  70C    basis set group =>   1
Atom  71H    basis set group =>   2
Atom  72C    basis set group =>   1
Atom  73H    basis set group =>   2
Atom  74C    basis set group =>   1
Atom  75H    basis set group =>   2
Atom  76H    basis set group =>   2
Atom  77H    basis set group =>   2
Atom  78O    basis set group =>   4
---------------------------------
AUXILIARY/C BASIS SET INFORMATION
---------------------------------
There are 4 groups of distinct atoms

 Group   1 Type C   : 8s6p5d3f1g contracted to 8s6p4d3f1g pattern {11111111/111111/2111/111/1}
 Group   2 Type H   : 4s3p2d contracted to 4s2p1d pattern {1111/21/2}
 Group   3 Type N   : 8s6p5d3f1g contracted to 8s6p4d3f1g pattern {11111111/111111/2111/111/1}
 Group   4 Type O   : 8s6p5d3f1g contracted to 8s6p4d3f1g pattern {11111111/111111/2111/111/1}

Atom   0C    basis set group =>   1
Atom   1C    basis set group =>   1
Atom   2C    basis set group =>   1
Atom   3C    basis set group =>   1
Atom   4C    basis set group =>   1
Atom   5C    basis set group =>   1
Atom   6C    basis set group =>   1
Atom   7C    basis set group =>   1
Atom   8C    basis set group =>   1
Atom   9H    basis set group =>   2
Atom  10C    basis set group =>   1
Atom  11C    basis set group =>   1
Atom  12C    basis set group =>   1
Atom  13H    basis set group =>   2
Atom  14H    basis set group =>   2
Atom  15H    basis set group =>   2
Atom  16N    basis set group =>   3
Atom  17C    basis set group =>   1
Atom  18C    basis set group =>   1
Atom  19C    basis set group =>   1
Atom  20C    basis set group =>   1
Atom  21C    basis set group =>   1
Atom  22C    basis set group =>   1
Atom  23H    basis set group =>   2
Atom  24C    basis set group =>   1
Atom  25H    basis set group =>   2
Atom  26C    basis set group =>   1
Atom  27C    basis set group =>   1
Atom  28H    basis set group =>   2
Atom  29C    basis set group =>   1
Atom  30H    basis set group =>   2
Atom  31H    basis set group =>   2
Atom  32H    basis set group =>   2
Atom  33H    basis set group =>   2
Atom  34H    basis set group =>   2
Atom  35H    basis set group =>   2
Atom  36C    basis set group =>   1
Atom  37C    basis set group =>   1
Atom  38C    basis set group =>   1
Atom  39C    basis set group =>   1
Atom  40H    basis set group =>   2
Atom  41C    basis set group =>   1
Atom  42H    basis set group =>   2
Atom  43C    basis set group =>   1
Atom  44H    basis set group =>   2
Atom  45H    basis set group =>   2
Atom  46C    basis set group =>   1
Atom  47C    basis set group =>   1
Atom  48C    basis set group =>   1
Atom  49C    basis set group =>   1
Atom  50H    basis set group =>   2
Atom  51C    basis set group =>   1
Atom  52H    basis set group =>   2
Atom  53C    basis set group =>   1
Atom  54H    basis set group =>   2
Atom  55H    basis set group =>   2
Atom  56H    basis set group =>   2
Atom  57C    basis set group =>   1
Atom  58C    basis set group =>   1
Atom  59C    basis set group =>   1
Atom  60C    basis set group =>   1
Atom  61H    basis set group =>   2
Atom  62C    basis set group =>   1
Atom  63H    basis set group =>   2
Atom  64C    basis set group =>   1
Atom  65H    basis set group =>   2
Atom  66H    basis set group =>   2
Atom  67C    basis set group =>   1
Atom  68C    basis set group =>   1
Atom  69C    basis set group =>   1
Atom  70C    basis set group =>   1
Atom  71H    basis set group =>   2
Atom  72C    basis set group =>   1
Atom  73H    basis set group =>   2
Atom  74C    basis set group =>   1
Atom  75H    basis set group =>   2
Atom  76H    basis set group =>   2
Atom  77H    basis set group =>   2
Atom  78O    basis set group =>   4


           ************************************************************
           *        Program running with 4 parallel MPI-processes     *
           *              working on a common directory               *
           ************************************************************
------------------------------------------------------------------------------
                           ORCA GTO INTEGRAL CALCULATION
                           -- RI-GTO INTEGRALS CHOSEN --
------------------------------------------------------------------------------
------------------------------------------------------------------------------
                   ___                                                        
                  /   \      - P O W E R E D   B Y -                         
                 /     \                                                     
                 |  |  |   _    _      __       _____    __    __             
                 |  |  |  | |  | |    /  \     |  _  \  |  |  /  |          
                  \  \/   | |  | |   /    \    | | | |  |  | /  /          
                 / \  \   | |__| |  /  /\  \   | |_| |  |  |/  /          
                |  |  |   |  __  | /  /__\  \  |    /   |      \           
                |  |  |   | |  | | |   __   |  |    \   |  |\   \          
                \     /   | |  | | |  |  |  |  | |\  \  |  | \   \       
                 \___/    |_|  |_| |__|  |__|  |_| \__\ |__|  \__/        
                                                                              
                      - O R C A' S   B I G   F R I E N D -                    
                                      &                                       
                       - I N T E G R A L  F E E D E R -                       
                                                                              
 v1 FN, 2020, v2 2021                                                         
------------------------------------------------------------------------------


Reading SHARK input file POZ_1_M06L_def2TZVP_coords.SHARKINP.tmp ... ok
----------------------
SHARK INTEGRAL PACKAGE
----------------------

Number of atoms                             ...     79
Number of basis functions                   ...   1674
Number of shells                            ...    652
Maximum angular momentum                    ...      3
Integral batch strategy                     ... SHARK/LIBINT Hybrid
RI-J (if used) integral strategy            ... SPLIT-RIJ (Revised 2003 algorithm where possible)
Printlevel                                  ...      1
Contraction scheme used                     ... SEGMENTED contraction
Coulomb Range Separation                    ... NOT USED
Exchange Range Separation                   ... NOT USED
Finite Nucleus Model                        ... NOT USED
Auxiliary Coulomb fitting basis             ... AVAILABLE
   # of basis functions in Aux-J            ...   2693
   # of shells in Aux-J                     ...    875
   Maximum angular momentum in Aux-J        ...      4
Auxiliary J/K fitting basis                 ... NOT available
Auxiliary Correlation fitting basis         ... AVAILABLE
   # of basis functions in Aux-C            ...   4113
   # of shells in Aux-C                     ...   1273
   Maximum angular momentum in Aux-C        ...      4
Auxiliary 'external' fitting basis          ... NOT available
Integral threshold                          ...     2.500000e-11
Primitive cut-off                           ...     2.500000e-12
Primitive pair pre-selection threshold      ...     2.500000e-12

Calculating pre-screening integrals         ... done (  0.3 sec) Dimension = 652
Organizing shell pair data                  ... done (  1.4 sec)
Shell pair information
Total number of shell pairs                 ...    212878
Shell pairs after pre-screening             ...     84915
Total number of primitive shell pairs       ...    658380
Primitive shell pairs kept                  ...    167897
          la=0 lb=0:  21136 shell pairs
          la=1 lb=0:  24854 shell pairs
          la=1 lb=1:   7315 shell pairs
          la=2 lb=0:  11940 shell pairs
          la=2 lb=1:   7125 shell pairs
          la=2 lb=2:   1719 shell pairs
          la=3 lb=0:   5560 shell pairs
          la=3 lb=1:   3352 shell pairs
          la=3 lb=2:   1531 shell pairs
          la=3 lb=3:    383 shell pairs

Calculating one electron integrals          ... done (  0.3 sec)
Calculating RI/J V-Matrix + Cholesky decomp.... done (  0.6 sec)
Calculating RI/C V-Matrix + Cholesky decomp.... done (  1.3 sec)
Calculating Nuclear repulsion               ... done (  0.0 sec) ENN=   4892.596552707744 Eh

SHARK setup successfully completed in   5.0 seconds

Maximum memory used throughout the entire GTOINT-calculation: 221.5 MB


           ************************************************************
           *        Program running with 4 parallel MPI-processes     *
           *              working on a common directory               *
           ************************************************************
-------------------------------------------------------------------------------
                                 ORCA SCF
-------------------------------------------------------------------------------

------------
SCF SETTINGS
------------
Hamiltonian:
 Density Functional     Method          .... DFT(GTOs)
 Exchange Functional    Exchange        .... B88
   X-Alpha parameter    XAlpha          ....  0.666667
   Becke's b parameter  XBeta           ....  0.004200
 Correlation Functional Correlation     .... LYP
 LDA part of GGA corr.  LDAOpt          .... VWN-3
 Gradients option       PostSCFGGA      .... off
 Hybrid DFT is turned on
   Fraction HF Exchange ScalHFX         ....  0.650000
   Scaling of DF-GGA-X  ScalDFX         ....  0.350000
   Scaling of DF-GGA-C  ScalDFC         ....  0.640000
   Scaling of DF-LDA-C  ScalLDAC        ....  0.640000
   Perturbative correction              ....  0.360000
   Density functional embedding theory  .... OFF
 RI-approximation to the Coulomb term is turned on
   Number of AuxJ basis functions       .... 2693
   RIJ-COSX (HFX calculated with COS-X)).... on


General Settings:
 Integral files         IntName         .... POZ_1_M06L_def2TZVP_coords
 Hartree-Fock type      HFTyp           .... RHF
 Total Charge           Charge          ....    0
 Multiplicity           Mult            ....    1
 Number of Electrons    NEL             ....  322
 Basis Dimension        Dim             .... 1674
 Nuclear Repulsion      ENuc            ....   4892.5965527077 Eh

Convergence Acceleration:
 DIIS                   CNVDIIS         .... on
   Start iteration      DIISMaxIt       ....    12
   Startup error        DIISStart       ....  0.200000
   # of expansion vecs  DIISMaxEq       ....     5
   Bias factor          DIISBfac        ....   1.050
   Max. coefficient     DIISMaxC        ....  10.000
 Trust-Rad. Augm. Hess. CNVTRAH         .... auto
   Auto Start mean grad. ratio tolernc. ....  1.125000
   Auto Start start iteration           ....    20
   Auto Start num. interpolation iter.  ....    10
   Max. Number of Micro iterations      ....    16
   Max. Number of Macro iterations      .... Maxiter - #DIIS iter
   Number of Davidson start vectors     ....     2
   Converg. threshold I  (grad. norm)   ....   1.000e-05
   Converg. threshold II (energy diff.) ....   1.000e-08
   Grad. Scal. Fac. for Micro threshold ....   0.100
   Minimum threshold for Micro iter.    ....   0.010
   NR start threshold (gradient norm)   ....   0.001
   Initial trust radius                 ....   0.400
   Minimum AH scaling param. (alpha)    ....   1.000
   Maximum AH scaling param. (alpha)    .... 1000.000
   Orbital update algorithm             .... Taylor
   White noise on init. David. guess    .... on
   Maximum white noise                  ....   0.010
   Quad. conv. algorithm                .... NR
 SOSCF                  CNVSOSCF        .... on
   Start iteration      SOSCFMaxIt      ....   150
   Startup grad/error   SOSCFStart      ....  0.003300
 Level Shifting         CNVShift        .... on
   Level shift para.    LevelShift      ....    0.2500
   Turn off err/grad.   ShiftErr        ....    0.0010
 Zerner damping         CNVZerner       .... off
 Static damping         CNVDamp         .... on
   Fraction old density DampFac         ....    0.7000
   Max. Damping (<1)    DampMax         ....    0.9800
   Min. Damping (>=0)   DampMin         ....    0.0000
   Turn off err/grad.   DampErr         ....    0.1000
 Fernandez-Rico         CNVRico         .... off

SCF Procedure:
 Maximum # iterations   MaxIter         ....   125
 SCF integral mode      SCFMode         .... Direct
   Integral package                     .... SHARK and LIBINT hybrid scheme
 Reset frequency        DirectResetFreq ....    20
 Integral Threshold     Thresh          ....  2.500e-11 Eh
 Primitive CutOff       TCut            ....  2.500e-12 Eh

Convergence Tolerance:
 Convergence Check Mode ConvCheckMode   .... Total+1el-Energy
 Convergence forced     ConvForced      .... 1
 Energy Change          TolE            ....  1.000e-08 Eh
 1-El. energy change                    ....  1.000e-05 Eh
 Orbital Gradient       TolG            ....  1.000e-05
 Orbital Rotation angle TolX            ....  1.000e-05
 DIIS Error             TolErr          ....  5.000e-07


Diagonalization of the overlap matrix:
Smallest eigenvalue                        ... 4.003e-06
Time for diagonalization                   ...    0.740 sec
Threshold for overlap eigenvalues          ... 1.000e-08
Number of eigenvalues below threshold      ... 0
Time for construction of square roots      ...    0.617 sec
Total time needed                          ...    1.367 sec

Time for model grid setup =    1.562 sec

------------------------------
INITIAL GUESS: MODEL POTENTIAL
------------------------------
Loading Hartree-Fock densities                     ... done
Calculating cut-offs                               ... done
Initializing the effective Hamiltonian             ... done
Setting up the integral package (SHARK)            ... done
Starting the Coulomb interaction                   ... done (   3.5 sec)
Reading the grid                                   ... done
Mapping shells                                     ... done
Starting the XC term evaluation                    ... done (   1.4 sec)
  promolecular density results
     # of electrons  =    321.990258375
     EX              =   -260.771112322
     EC              =     -1.239999421
     EX+EC           =   -262.011111743
Transforming the Hamiltonian                       ... done (   0.6 sec)
Diagonalizing the Hamiltonian                      ... done (   0.7 sec)
Back transforming the eigenvectors                 ... done (   0.3 sec)
Now organizing SCF variables                       ... done
                      ------------------
                      INITIAL GUESS DONE (   8.1 sec)
                      ------------------
-------------------
DFT GRID GENERATION
-------------------

General Integration Accuracy     IntAcc      ... 4.388
Radial Grid Type                 RadialGrid  ... OptM3 with GC (2021)
Angular Grid (max. ang.)         AngularGrid ... 4 (Lebedev-302)
Angular grid pruning method      GridPruning ... 4 (adaptive)
Weight generation scheme         WeightScheme... Becke
Basis function cutoff            BFCut       ... 1.0000e-11
Integration weight cutoff        WCut        ... 1.0000e-14
Angular grids for H and He will be reduced by one unit
Partially contracted basis set               ... off
Rotationally invariant grid construction     ... off

Total number of grid points                  ...   384041
Total number of batches                      ...     6048
Average number of points per batch           ...       63
Average number of grid points per atom       ...     4861
Time for grid setup =    5.425 sec

--------------------
COSX GRID GENERATION
--------------------

GRIDX 1
-------
General Integration Accuracy     IntAcc      ... 3.816
Radial Grid Type                 RadialGrid  ... OptM3 with GC (2021)
Angular Grid (max. ang.)         AngularGrid ... 1 (Lebedev-50)
Angular grid pruning method      GridPruning ... 4 (adaptive)
Weight generation scheme         WeightScheme... Becke
Basis function cutoff            BFCut       ... 1.0000e-11
Integration weight cutoff        WCut        ... 1.0000e-14
Angular grids for H and He will be reduced by one unit
Partially contracted basis set               ... on
Rotationally invariant grid construction     ... off

Total number of grid points                  ...    48766
Total number of batches                      ...      787
Average number of points per batch           ...       61
Average number of grid points per atom       ...      617
UseSFitting                                  ... on

GRIDX 2
-------
General Integration Accuracy     IntAcc      ... 4.020
Radial Grid Type                 RadialGrid  ... OptM3 with GC (2021)
Angular Grid (max. ang.)         AngularGrid ... 2 (Lebedev-110)
Angular grid pruning method      GridPruning ... 4 (adaptive)
Weight generation scheme         WeightScheme... Becke
Basis function cutoff            BFCut       ... 1.0000e-11
Integration weight cutoff        WCut        ... 1.0000e-14
Angular grids for H and He will be reduced by one unit
Partially contracted basis set               ... on
Rotationally invariant grid construction     ... off

Total number of grid points                  ...   106025
Total number of batches                      ...     1697
Average number of points per batch           ...       62
Average number of grid points per atom       ...     1342
UseSFitting                                  ... on

GRIDX 3
-------
General Integration Accuracy     IntAcc      ... 4.338
Radial Grid Type                 RadialGrid  ... OptM3 with GC (2021)
Angular Grid (max. ang.)         AngularGrid ... 3 (Lebedev-194)
Angular grid pruning method      GridPruning ... 4 (adaptive)
Weight generation scheme         WeightScheme... Becke
Basis function cutoff            BFCut       ... 1.0000e-11
Integration weight cutoff        WCut        ... 1.0000e-14
Angular grids for H and He will be reduced by one unit
Partially contracted basis set               ... on
Rotationally invariant grid construction     ... off

Total number of grid points                  ...   231991
Total number of batches                      ...     3665
Average number of points per batch           ...       63
Average number of grid points per atom       ...     2937
UseSFitting                                  ... on

Time for X-Grid setup             =   12.469 sec


--------------------
CPCM SOLVATION MODEL
--------------------
CPCM parameters:
  Epsilon                                         ...      37.7810
  Refrac                                          ...       1.4380
  Rsolv                                           ...       1.3000
  Surface type                                    ... GAUSSIAN VDW
  Epsilon function type                           ...         CPCM
Solvent:                                     ... N,N-DIMETHYLACETAMIDE
SMD-CDS solvent descriptors:
  Soln                                       ...    1.4380
  Soln25                                     ...    1.4358
  Sola                                       ...    0.0000
  Solb                                       ...    0.7800
  Solg                                       ...   47.6200
  Solc                                       ...    0.0000
  Solh                                       ...    0.0000
Radii:
 Radius for C  used is    3.4960 Bohr (=   1.8500 Ang.)
 Radius for H  used is    2.2677 Bohr (=   1.2000 Ang.)
 Radius for N  used is    3.5716 Bohr (=   1.8900 Ang.)
 Radius for O  used is    4.3350 Bohr (=   2.2940 Ang.)
Calculating surface                               ...        done! (  0.0s)
GEPOL surface points                              ...         4316
GEPOL Volume                                      ...    4249.6849
GEPOL Surface-area                                ...    2229.2559
Calculating surface distance matrix               ...        done! (  0.1s)
Performing Cholesky decomposition & store         ...        done! (  1.0s)
Overall time for CPCM initialization              ...                 1.1s
--------------
SCF ITERATIONS
--------------
ITER       Energy         Delta-E        Max-DP      RMS-DP      [F,P]     Damp
               ***  Starting incremental Fock matrix formation  ***
  0  -1895.8686562159   0.000000000000 0.04895091  0.00045100  0.1590570 0.7000
  1  -1896.3247993494  -0.456143133525 0.04518013  0.00039267  0.0983379 0.7000
                               ***Turning on DIIS***
  2  -1896.5900792172  -0.265279867819 0.12019050  0.00094128  0.0584061 0.0000
  3  -1897.0688317956  -0.478752578379 0.02488038  0.00022299  0.0289640 0.0000
  4  -1897.1113130123  -0.042481216708 0.01629463  0.00010264  0.0080296 0.0000
                      *** Initiating the SOSCF procedure ***
                           *** Shutting down DIIS ***
                      *** Re-Reading the Fockian *** 
                      *** Removing any level shift *** 
ITER      Energy       Delta-E        Grad      Rot      Max-DP    RMS-DP
  5  -1897.11283844  -0.0015254240  0.001989  0.001989  0.003295  0.000038
               *** Restarting incremental Fock matrix formation ***
  6  -1897.11272972   0.0001087144  0.001585  0.006678  0.021933  0.000218
  7  -1897.11282349  -0.0000937724  0.000349  0.004164  0.008731  0.000089
  8  -1897.11283977  -0.0000162744  0.000251  0.000775  0.007450  0.000074
  9  -1897.11284721  -0.0000074370  0.000052  0.000255  0.001126  0.000012
 10  -1897.11284769  -0.0000004807  0.000026  0.000103  0.000387  0.000004
 11  -1897.11284781  -0.0000001218  0.000008  0.000050  0.000377  0.000002
 12  -1897.11284783  -0.0000000233  0.000004  0.000012  0.000117  0.000001
                  ***Gradient check signals convergence***
              ***Rediagonalizing the Fockian in SOSCF/NRSCF***

               *****************************************************
               *                     SUCCESS                       *
               *           SCF CONVERGED AFTER  13 CYCLES          *
               *****************************************************

Old exchange energy                            =   -172.343052388 Eh
New exchange energy                            =   -172.342902827 Eh
Exchange energy change after final integration =      0.000149560 Eh
Total energy after final integration           =  -1897.112698415 Eh
Final COS-X integration done in                =   222.709 sec

SMD CDS free energy correction energy :                -7.90873     Kcal/mol
Total Energy after SMD CDS correction =             -1897.125301779 Eh

----------------
TOTAL SCF ENERGY
----------------

Total Energy       :        -1897.12530178 Eh          -51623.40394 eV

Components:
Nuclear Repulsion  :         4892.59655271 Eh          133134.32062 eV
Electronic Energy  :        -6789.72185449 Eh         -184757.72456 eV
One Electron Energy:       -12306.44863562 Eh         -334875.49212 eV
Two Electron Energy:         5516.72678114 Eh          150117.76755 eV
Max COSX asymmetry :            0.00000579 Eh               0.00016 eV
CPCM Dielectric    :           -0.04122405 Eh              -1.12176 eV
SMD CDS (Gcds)     :           -0.01260336 Eh              -0.34295 eV

Virial components:
Potential Energy   :        -3788.42253556 Eh         -103088.21810 eV
Kinetic Energy     :         1891.29723378 Eh           51464.81415 eV
Virial Ratio       :            2.00308152


DFT components:
N(Alpha)           :      160.999817003030 electrons
N(Beta)            :      160.999817003030 electrons
N(Total)           :      321.999634006060 electrons
E(X)               :      -92.925617735970 Eh       
E(C)               :       -7.022659988221 Eh       
E(XC)              :      -99.948277724191 Eh       
DFET-embed. en.    :        0.000000000000 Eh       
CPCM Solvation Model Properties:
Surface-charge          :           -0.10027102
Charge-correction       :            0.00049678 Eh               0.01352 eV
Free-energy (cav+disp)  :           -0.01260336 Eh              -0.34295 eV

---------------
SCF CONVERGENCE
---------------

  Last Energy change         ...   -1.4379e-07  Tolerance :   1.0000e-08
  Last MAX-Density change    ...    1.4433e-15  Tolerance :   1.0000e-07
  Last RMS-Density change    ...    1.0095e-17  Tolerance :   5.0000e-09
  Last Orbital Gradient      ...    1.1031e-06  Tolerance :   1.0000e-05
  Last Orbital Rotation      ...    3.4547e-06  Tolerance :   1.0000e-05

             **** THE GBW FILE WAS UPDATED (POZ_1_M06L_def2TZVP_coords.gbw) ****
             **** DENSITY POZ_1_M06L_def2TZVP_coords.scfp WAS UPDATED ****
             **** ENERGY FILE WAS UPDATED (POZ_1_M06L_def2TZVP_coords.en.tmp) ****
             **** THE GBW FILE WAS UPDATED (POZ_1_M06L_def2TZVP_coords.gbw) ****
             **** DENSITY POZ_1_M06L_def2TZVP_coords.scfp WAS UPDATED ****
----------------
ORBITAL ENERGIES
----------------

  NO   OCC          E(Eh)            E(eV) 
   0   2.0000     -19.988603      -543.9176 
   1   2.0000     -15.064205      -409.9178 
   2   2.0000     -10.846301      -295.1428 
   3   2.0000     -10.846203      -295.1402 
   4   2.0000     -10.831950      -294.7523 
   5   2.0000     -10.831921      -294.7515 
   6   2.0000     -10.821414      -294.4656 
   7   2.0000     -10.792775      -293.6863 
   8   2.0000     -10.791205      -293.6436 
   9   2.0000     -10.789244      -293.5903 
  10   2.0000     -10.789224      -293.5897 
  11   2.0000     -10.788939      -293.5820 
  12   2.0000     -10.788860      -293.5798 
  13   2.0000     -10.787274      -293.5367 
  14   2.0000     -10.787187      -293.5343 
  15   2.0000     -10.787047      -293.5305 
  16   2.0000     -10.787021      -293.5298 
  17   2.0000     -10.783078      -293.4225 
  18   2.0000     -10.782039      -293.3942 
  19   2.0000     -10.779762      -293.3322 
  20   2.0000     -10.779530      -293.3259 
  21   2.0000     -10.779348      -293.3210 
  22   2.0000     -10.778414      -293.2956 
  23   2.0000     -10.778258      -293.2913 
  24   2.0000     -10.778212      -293.2901 
  25   2.0000     -10.777590      -293.2731 
  26   2.0000     -10.777508      -293.2709 
  27   2.0000     -10.777327      -293.2660 
  28   2.0000     -10.775655      -293.2205 
  29   2.0000     -10.775539      -293.2173 
  30   2.0000     -10.775515      -293.2167 
  31   2.0000     -10.775420      -293.2141 
  32   2.0000     -10.775378      -293.2129 
  33   2.0000     -10.775347      -293.2121 
  34   2.0000     -10.775272      -293.2100 
  35   2.0000     -10.775247      -293.2094 
  36   2.0000     -10.775184      -293.2077 
  37   2.0000     -10.775104      -293.2055 
  38   2.0000     -10.774506      -293.1892 
  39   2.0000     -10.774354      -293.1851 
  40   2.0000     -10.774349      -293.1849 
  41   2.0000     -10.774347      -293.1849 
  42   2.0000     -10.774261      -293.1826 
  43   2.0000     -10.774211      -293.1812 
  44   2.0000     -10.774155      -293.1797 
  45   2.0000     -10.774077      -293.1775 
  46   2.0000     -10.773284      -293.1560 
  47   2.0000     -10.773176      -293.1530 
  48   2.0000      -1.295947       -35.2645 
  49   2.0000      -1.165638       -31.7186 
  50   2.0000      -1.056750       -28.7556 
  51   2.0000      -1.055929       -28.7333 
  52   2.0000      -1.049891       -28.5690 
  53   2.0000      -1.043425       -28.3930 
  54   2.0000      -1.031525       -28.0692 
  55   2.0000      -1.021373       -27.7930 
  56   2.0000      -1.010319       -27.4922 
  57   2.0000      -0.994467       -27.0608 
  58   2.0000      -0.960066       -26.1247 
  59   2.0000      -0.950861       -25.8743 
  60   2.0000      -0.937016       -25.4975 
  61   2.0000      -0.930606       -25.3231 
  62   2.0000      -0.917217       -24.9587 
  63   2.0000      -0.908987       -24.7348 
  64   2.0000      -0.907761       -24.7014 
  65   2.0000      -0.903285       -24.5796 
  66   2.0000      -0.901149       -24.5215 
  67   2.0000      -0.898426       -24.4474 
  68   2.0000      -0.898325       -24.4447 
  69   2.0000      -0.888732       -24.1836 
  70   2.0000      -0.876288       -23.8450 
  71   2.0000      -0.867076       -23.5943 
  72   2.0000      -0.842224       -22.9181 
  73   2.0000      -0.792900       -21.5759 
  74   2.0000      -0.790860       -21.5204 
  75   2.0000      -0.763228       -20.7685 
  76   2.0000      -0.758407       -20.6373 
  77   2.0000      -0.757841       -20.6219 
  78   2.0000      -0.752352       -20.4725 
  79   2.0000      -0.747707       -20.3461 
  80   2.0000      -0.747535       -20.3415 
  81   2.0000      -0.732030       -19.9196 
  82   2.0000      -0.720436       -19.6041 
  83   2.0000      -0.709868       -19.3165 
  84   2.0000      -0.709401       -19.3038 
  85   2.0000      -0.707643       -19.2560 
  86   2.0000      -0.703379       -19.1399 
  87   2.0000      -0.683010       -18.5856 
  88   2.0000      -0.676637       -18.4122 
  89   2.0000      -0.647831       -17.6284 
  90   2.0000      -0.640677       -17.4337 
  91   2.0000      -0.639895       -17.4124 
  92   2.0000      -0.632391       -17.2082 
  93   2.0000      -0.616366       -16.7722 
  94   2.0000      -0.615651       -16.7527 
  95   2.0000      -0.608884       -16.5686 
  96   2.0000      -0.602165       -16.3857 
  97   2.0000      -0.595615       -16.2075 
  98   2.0000      -0.580389       -15.7932 
  99   2.0000      -0.579303       -15.7636 
 100   2.0000      -0.575943       -15.6722 
 101   2.0000      -0.572500       -15.5785 
 102   2.0000      -0.571565       -15.5531 
 103   2.0000      -0.565439       -15.3864 
 104   2.0000      -0.551209       -14.9992 
 105   2.0000      -0.550639       -14.9837 
 106   2.0000      -0.545973       -14.8567 
 107   2.0000      -0.541819       -14.7436 
 108   2.0000      -0.540035       -14.6951 
 109   2.0000      -0.535375       -14.5683 
 110   2.0000      -0.532816       -14.4987 
 111   2.0000      -0.531327       -14.4581 
 112   2.0000      -0.529858       -14.4182 
 113   2.0000      -0.527088       -14.3428 
 114   2.0000      -0.525181       -14.2909 
 115   2.0000      -0.524250       -14.2656 
 116   2.0000      -0.520487       -14.1632 
 117   2.0000      -0.519993       -14.1497 
 118   2.0000      -0.508045       -13.8246 
 119   2.0000      -0.507454       -13.8085 
 120   2.0000      -0.501251       -13.6397 
 121   2.0000      -0.499960       -13.6046 
 122   2.0000      -0.484595       -13.1865 
 123   2.0000      -0.483569       -13.1586 
 124   2.0000      -0.482115       -13.1190 
 125   2.0000      -0.480907       -13.0861 
 126   2.0000      -0.476726       -12.9724 
 127   2.0000      -0.472926       -12.8690 
 128   2.0000      -0.469009       -12.7624 
 129   2.0000      -0.463797       -12.6206 
 130   2.0000      -0.456937       -12.4339 
 131   2.0000      -0.455198       -12.3866 
 132   2.0000      -0.448926       -12.2159 
 133   2.0000      -0.445630       -12.1262 
 134   2.0000      -0.442393       -12.0381 
 135   2.0000      -0.439584       -11.9617 
 136   2.0000      -0.433361       -11.7923 
 137   2.0000      -0.432695       -11.7742 
 138   2.0000      -0.430458       -11.7134 
 139   2.0000      -0.426990       -11.6190 
 140   2.0000      -0.426273       -11.5995 
 141   2.0000      -0.418573       -11.3899 
 142   2.0000      -0.411605       -11.2003 
 143   2.0000      -0.410410       -11.1678 
 144   2.0000      -0.408922       -11.1273 
 145   2.0000      -0.406777       -11.0690 
 146   2.0000      -0.361301        -9.8315 
 147   2.0000      -0.354113        -9.6359 
 148   2.0000      -0.340947        -9.2776 
 149   2.0000      -0.323249        -8.7960 
 150   2.0000      -0.313485        -8.5304 
 151   2.0000      -0.311825        -8.4852 
 152   2.0000      -0.311478        -8.4758 
 153   2.0000      -0.308531        -8.3955 
 154   2.0000      -0.308357        -8.3908 
 155   2.0000      -0.299406        -8.1473 
 156   2.0000      -0.294559        -8.0153 
 157   2.0000      -0.274432        -7.4677 
 158   2.0000      -0.269984        -7.3466 
 159   2.0000      -0.258106        -7.0234 
 160   2.0000      -0.219990        -5.9862 
 161   0.0000       0.007242         0.1971 
 162   0.0000       0.013942         0.3794 
 163   0.0000       0.018596         0.5060 
 164   0.0000       0.040114         1.0916 
 165   0.0000       0.048885         1.3302 
 166   0.0000       0.050436         1.3724 
 167   0.0000       0.059514         1.6195 
 168   0.0000       0.060714         1.6521 
 169   0.0000       0.062827         1.7096 
 170   0.0000       0.070859         1.9282 
 171   0.0000       0.073915         2.0113 
 172   0.0000       0.082116         2.2345 
 173   0.0000       0.092260         2.5105 
 174   0.0000       0.109134         2.9697 
 175   0.0000       0.112590         3.0637 
 176   0.0000       0.116388         3.1671 
 177   0.0000       0.119671         3.2564 
 178   0.0000       0.119741         3.2583 
 179   0.0000       0.123891         3.3712 
 180   0.0000       0.125811         3.4235 
 181   0.0000       0.127434         3.4677 
 182   0.0000       0.130283         3.5452 
 183   0.0000       0.132049         3.5932 
 184   0.0000       0.133719         3.6387 
 185   0.0000       0.134972         3.6728 
 186   0.0000       0.143171         3.8959 
 187   0.0000       0.145128         3.9491 
 188   0.0000       0.150743         4.1019 
 189   0.0000       0.152166         4.1406 
 190   0.0000       0.152297         4.1442 
 191   0.0000       0.158339         4.3086 
 192   0.0000       0.162815         4.4304 
 193   0.0000       0.166808         4.5391 
 194   0.0000       0.167854         4.5675 
 195   0.0000       0.172898         4.7048 
 196   0.0000       0.173263         4.7147 
 197   0.0000       0.173991         4.7345 
 198   0.0000       0.176887         4.8133 
 199   0.0000       0.178260         4.8507 
 200   0.0000       0.179529         4.8852 
 201   0.0000       0.185290         5.0420 
 202   0.0000       0.185872         5.0578 
 203   0.0000       0.189426         5.1545 
 204   0.0000       0.191300         5.2055 
 205   0.0000       0.194239         5.2855 
 206   0.0000       0.196249         5.3402 
 207   0.0000       0.198063         5.3896 
 208   0.0000       0.200586         5.4582 
 209   0.0000       0.201976         5.4960 
 210   0.0000       0.208544         5.6748 
 211   0.0000       0.210821         5.7367 
 212   0.0000       0.211624         5.7586 
 213   0.0000       0.217946         5.9306 
 214   0.0000       0.221357         6.0234 
 215   0.0000       0.224373         6.1055 
 216   0.0000       0.232648         6.3307 
 217   0.0000       0.234518         6.3816 
 218   0.0000       0.237581         6.4649 
 219   0.0000       0.240433         6.5425 
 220   0.0000       0.243610         6.6290 
 221   0.0000       0.247132         6.7248 
 222   0.0000       0.251433         6.8418 
 223   0.0000       0.253162         6.8889 
 224   0.0000       0.254681         6.9302 
 225   0.0000       0.257920         7.0184 
 226   0.0000       0.262472         7.1422 
 227   0.0000       0.264669         7.2020 
 228   0.0000       0.265741         7.2312 
 229   0.0000       0.266612         7.2549 
 230   0.0000       0.267562         7.2807 
 231   0.0000       0.268999         7.3198 
 232   0.0000       0.269635         7.3371 
 233   0.0000       0.271782         7.3956 
 234   0.0000       0.273994         7.4558 
 235   0.0000       0.275265         7.4903 
 236   0.0000       0.277271         7.5449 
 237   0.0000       0.279880         7.6159 
 238   0.0000       0.280705         7.6384 
 239   0.0000       0.283344         7.7102 
 240   0.0000       0.285786         7.7766 
 241   0.0000       0.287375         7.8199 
 242   0.0000       0.289848         7.8872 
 243   0.0000       0.293243         7.9795 
 244   0.0000       0.295050         8.0287 
 245   0.0000       0.296662         8.0726 
 246   0.0000       0.298936         8.1345 
 247   0.0000       0.300751         8.1839 
 248   0.0000       0.303843         8.2680 
 249   0.0000       0.304916         8.2972 
 250   0.0000       0.306860         8.3501 
 251   0.0000       0.308509         8.3950 
 252   0.0000       0.313956         8.5432 
 253   0.0000       0.314737         8.5644 
 254   0.0000       0.315970         8.5980 
 255   0.0000       0.319394         8.6911 
 256   0.0000       0.320737         8.7277 
 257   0.0000       0.321220         8.7408 
 258   0.0000       0.323745         8.8096 
 259   0.0000       0.324234         8.8229 
 260   0.0000       0.328076         8.9274 
 261   0.0000       0.329201         8.9580 
 262   0.0000       0.329428         8.9642 
 263   0.0000       0.331999         9.0341 
 264   0.0000       0.332430         9.0459 
 265   0.0000       0.336257         9.1500 
 266   0.0000       0.338580         9.2132 
 267   0.0000       0.341605         9.2955 
 268   0.0000       0.347006         9.4425 
 269   0.0000       0.348415         9.4809 
 270   0.0000       0.349889         9.5210 
 271   0.0000       0.353412         9.6168 
 272   0.0000       0.355642         9.6775 
 273   0.0000       0.358661         9.7597 
 274   0.0000       0.360409         9.8072 
 275   0.0000       0.364551         9.9199 
 276   0.0000       0.367206         9.9922 
 277   0.0000       0.369911        10.0658 
 278   0.0000       0.372245        10.1293 
 279   0.0000       0.374240        10.1836 
[...]
   160a -> 174a  :     0.045965 
   160a -> 176a  :     0.013835 

STATE 21:  E=   0.208142 au      5.664 eV    45681.8 cm**-1 <S**2> =   0.000000
   148a -> 161a  :     0.074195 
   150a -> 163a  :     0.110174 
   151a -> 166a  :     0.046497 
   152a -> 165a  :     0.056013 
   153a -> 161a  :     0.010983 
   153a -> 169a  :     0.021232 
   153a -> 171a  :     0.014450 
   154a -> 168a  :     0.014363 
   154a -> 170a  :     0.023258 
   156a -> 161a  :     0.011131 
   156a -> 164a  :     0.020720 
   156a -> 167a  :     0.042069 
   157a -> 161a  :     0.039952 
   157a -> 164a  :     0.012265 
   157a -> 167a  :     0.018350 
   157a -> 169a  :     0.014608 
   159a -> 163a  :     0.036602 
   159a -> 165a  :     0.020336 
   159a -> 168a  :     0.014586 
   159a -> 170a  :     0.016321 
   159a -> 172a  :     0.031999 
   160a -> 167a  :     0.025015 
   160a -> 169a  :     0.023995 
   160a -> 171a  :     0.014013 
   160a -> 174a  :     0.038805 
   160a -> 175a  :     0.047848 
   160a -> 176a  :     0.010541 

STATE 22:  E=   0.199994 au      5.442 eV    43893.6 cm**-1 <S**2> =   0.000000
   149a -> 161a  :     0.012902 
   153a -> 161a  :     0.041546 
   153a -> 163a  :     0.019031 
   154a -> 163a  :     0.024089 
   157a -> 166a  :     0.016012 
   157a -> 174a  :     0.021976 
   158a -> 161a  :     0.066313 
   159a -> 162a  :     0.040674 
   159a -> 165a  :     0.024471 
   160a -> 167a  :     0.019069 
   160a -> 169a  :     0.014746 
   160a -> 174a  :     0.331525 
   160a -> 175a  :     0.023040 
   160a -> 176a  :     0.082527 
   160a -> 179a  :     0.011560 
   160a -> 181a  :     0.014520 
   160a -> 182a  :     0.024210 
   160a -> 188a  :     0.014068 

STATE 23:  E=   0.196768 au      5.354 eV    43185.6 cm**-1 <S**2> =   0.000000
   148a -> 163a  :     0.011824 
   149a -> 161a  :     0.028301 
   150a -> 161a  :     0.010968 
   153a -> 163a  :     0.010444 
   154a -> 161a  :     0.018186 
   154a -> 163a  :     0.012410 
   155a -> 162a  :     0.011208 
   156a -> 163a  :     0.020176 
   156a -> 168a  :     0.010004 
   157a -> 163a  :     0.016575 
   158a -> 161a  :     0.438965 
   158a -> 164a  :     0.025126 
   158a -> 167a  :     0.063455 
   160a -> 168a  :     0.026968 
   160a -> 174a  :     0.062663 
   160a -> 176a  :     0.015334 

STATE 24:  E=   0.195960 au      5.332 eV    43008.2 cm**-1 <S**2> =   0.000000
   147a -> 162a  :     0.010660 
   148a -> 163a  :     0.010900 
   149a -> 161a  :     0.043772 
   150a -> 162a  :     0.028500 
   153a -> 163a  :     0.013874 
   156a -> 163a  :     0.043830 
   156a -> 165a  :     0.019388 
   156a -> 168a  :     0.026974 
   156a -> 170a  :     0.017543 
   157a -> 163a  :     0.055321 
   157a -> 168a  :     0.014201 
   158a -> 161a  :     0.080038 
   158a -> 162a  :     0.010415 
   158a -> 173a  :     0.011518 
   159a -> 161a  :     0.047227 
   159a -> 162a  :     0.320554 
   160a -> 168a  :     0.036800 

STATE 25:  E=   0.192435 au      5.236 eV    42234.6 cm**-1 <S**2> =   0.000000
   149a -> 161a  :     0.050900 
   150a -> 162a  :     0.034887 
   155a -> 162a  :     0.017030 
   155a -> 164a  :     0.030424 
   156a -> 163a  :     0.028447 
   157a -> 163a  :     0.028054 
   158a -> 161a  :     0.169824 
   158a -> 164a  :     0.010727 
   158a -> 167a  :     0.020217 
   159a -> 162a  :     0.354330 
   159a -> 164a  :     0.030231 
   160a -> 168a  :     0.024815 
   160a -> 174a  :     0.013458 

STATE 26:  E=   0.207537 au      5.647 eV    45549.1 cm**-1 <S**2> =   0.000000
   146a -> 161a  :     0.013737 
   148a -> 163a  :     0.013278 
   149a -> 161a  :     0.035353 
   149a -> 164a  :     0.020031 
   149a -> 169a  :     0.011978 
   150a -> 162a  :     0.011467 
   150a -> 167a  :     0.012603 
   151a -> 165a  :     0.016473 
   152a -> 166a  :     0.011456 
   153a -> 163a  :     0.010449 
   153a -> 168a  :     0.017647 
   154a -> 169a  :     0.016129 
   155a -> 161a  :     0.010348 
   155a -> 162a  :     0.014826 
   155a -> 164a  :     0.061415 
   156a -> 165a  :     0.016609 
   156a -> 168a  :     0.038472 
   157a -> 165a  :     0.089436 
   157a -> 168a  :     0.018825 
   157a -> 172a  :     0.047735 
   158a -> 162a  :     0.013735 
   158a -> 164a  :     0.017262 
   159a -> 162a  :     0.065643 
   159a -> 164a  :     0.081412 
   159a -> 166a  :     0.023746 
   159a -> 169a  :     0.011102 
   159a -> 171a  :     0.012389 
   159a -> 175a  :     0.012077 
   160a -> 165a  :     0.041338 
   160a -> 170a  :     0.014969 
   160a -> 183a  :     0.017405 

STATE 27:  E=   0.207036 au      5.634 eV    45439.2 cm**-1 <S**2> =   0.000000
   149a -> 163a  :     0.014967 
   149a -> 165a  :     0.033445 
   149a -> 168a  :     0.037975 
   153a -> 161a  :     0.014298 
   154a -> 163a  :     0.012974 
   156a -> 161a  :     0.065537 
   156a -> 164a  :     0.081783 
   156a -> 166a  :     0.013903 
   156a -> 167a  :     0.010141 
   156a -> 169a  :     0.043665 
   156a -> 171a  :     0.039919 
   157a -> 164a  :     0.089661 
   157a -> 169a  :     0.048450 
   157a -> 171a  :     0.015246 
   159a -> 168a  :     0.027487 
   159a -> 172a  :     0.029852 
   160a -> 166a  :     0.021474 
   160a -> 167a  :     0.110067 
   160a -> 169a  :     0.019094 
   160a -> 173a  :     0.017411 
   160a -> 174a  :     0.014516 

STATE 28:  E=   0.216164 au      5.882 eV    47442.5 cm**-1 <S**2> =   0.000000
   146a -> 161a  :     0.019558 
   148a -> 163a  :     0.028246 
   150a -> 167a  :     0.020234 
   151a -> 165a  :     0.055833 
   151a -> 170a  :     0.011568 
   152a -> 164a  :     0.010366 
   152a -> 166a  :     0.051978 
   153a -> 163a  :     0.014320 
   153a -> 168a  :     0.012177 
   153a -> 170a  :     0.012982 
   154a -> 161a  :     0.013714 
   154a -> 169a  :     0.018767 
   154a -> 171a  :     0.013904 
   155a -> 164a  :     0.137704 
   155a -> 166a  :     0.026450 
   156a -> 163a  :     0.026267 
   157a -> 163a  :     0.036177 
   157a -> 168a  :     0.020420 
   157a -> 172a  :     0.012382 
   158a -> 162a  :     0.017938 
   158a -> 164a  :     0.011384 
   158a -> 173a  :     0.018673 
   159a -> 161a  :     0.022817 
   159a -> 162a  :     0.012459 
   159a -> 164a  :     0.042279 
   159a -> 169a  :     0.028140 
   159a -> 175a  :     0.017518 
   160a -> 165a  :     0.019452 
   160a -> 168a  :     0.018624 
   160a -> 170a  :     0.010762 
   160a -> 172a  :     0.018800 
   160a -> 183a  :     0.027417 

STATE 29:  E=   0.204361 au      5.561 eV    44852.0 cm**-1 <S**2> =   0.000000
   149a -> 161a  :     0.013712 
   151a -> 161a  :     0.054297 
   151a -> 163a  :     0.062656 
   152a -> 161a  :     0.028442 
   152a -> 163a  :     0.019390 
   153a -> 161a  :     0.044191 
   153a -> 163a  :     0.054842 
   153a -> 167a  :     0.020488 
   157a -> 163a  :     0.016501 
   157a -> 165a  :     0.025222 
   157a -> 166a  :     0.019830 
   157a -> 168a  :     0.016440 
   159a -> 165a  :     0.014268 
   159a -> 166a  :     0.021682 
   159a -> 168a  :     0.017750 
   159a -> 169a  :     0.026534 
   159a -> 170a  :     0.010917 
   160a -> 169a  :     0.021523 
   160a -> 170a  :     0.156307 
   160a -> 171a  :     0.079124 
   160a -> 172a  :     0.017100 
   160a -> 173a  :     0.016647 
   160a -> 174a  :     0.011768 

STATE 30:  E=   0.204202 au      5.557 eV    44817.2 cm**-1 <S**2> =   0.000000
   149a -> 161a  :     0.013252 
   151a -> 161a  :     0.037804 
   151a -> 163a  :     0.013374 
   152a -> 161a  :     0.046849 
   152a -> 163a  :     0.065379 
   153a -> 161a  :     0.013510 
   154a -> 161a  :     0.033217 
   154a -> 163a  :     0.044765 
   154a -> 167a  :     0.015877 
   157a -> 163a  :     0.018752 
   157a -> 165a  :     0.017081 
   157a -> 166a  :     0.019862 
   157a -> 169a  :     0.011814 
   159a -> 165a  :     0.015769 
   159a -> 166a  :     0.012573 
   159a -> 168a  :     0.024364 
   159a -> 169a  :     0.014934 
   159a -> 170a  :     0.014100 
   160a -> 169a  :     0.030693 
   160a -> 170a  :     0.082000 
   160a -> 171a  :     0.139314 
   160a -> 172a  :     0.011687 
   160a -> 173a  :     0.038462 
   160a -> 174a  :     0.032558 


-------------------------
TD-DFT-EXCITATION SPECTRA
-------------------------

Center of mass = (  0.0001,  0.0175, -0.0088)
Calculating the Dipole integrals                  ... done
Transforming integrals                            ... done
Calculating the Linear Momentum integrals         ... done
Transforming integrals                            ... done
Calculating angular momentum integrals            ... done
Transforming integrals                            ... done

-----------------------------------------------------------------------------
         ABSORPTION SPECTRUM VIA TRANSITION ELECTRIC DIPOLE MOMENTS
-----------------------------------------------------------------------------
State   Energy    Wavelength  fosc         T2        TX        TY        TZ  
        (cm-1)      (nm)                 (au**2)    (au)      (au)      (au) 
-----------------------------------------------------------------------------
   1   25793.7    387.7   1.146278874  14.63025   3.82482  -0.02305   0.02122
   2   26396.7    378.8   0.056002070   0.69844   0.07109  -0.82983   0.06907
   3   31170.4    320.8   0.751661631   7.93883   0.03314   2.80848  -0.22394
   4   30667.6    326.1   0.361477771   3.88041  -1.96913  -0.02829  -0.04623
   5   35915.7    278.4   0.006087916   0.05580  -0.01497  -0.23517  -0.01655
   6   33483.3    298.7   0.132302384   1.30081  -0.06725   1.13157  -0.12584
   7   35743.5    279.8   0.667019444   6.14351   2.47853   0.02023  -0.00287
   8   34979.1    285.9   0.000691584   0.00651  -0.01983   0.01074   0.07746
   9   36208.5    276.2   0.006035859   0.05488  -0.05911  -0.21866   0.05976
  10   36079.0    277.2   0.004392734   0.04008   0.18471  -0.06788   0.03684
  11   36866.6    271.2   0.002427475   0.02168  -0.00290  -0.02535   0.14500
  12   34673.2    288.4   0.001461946   0.01388  -0.11755   0.00367  -0.00695
  13   39281.8    254.6   0.000309175   0.00259  -0.01355   0.04562  -0.01806
  14   39105.8    255.7   0.000193871   0.00163   0.03848   0.01135  -0.00476
  15   40548.6    246.6   0.375193937   3.04618   1.74269   0.00916   0.09558
  16   41459.3    241.2   0.011268288   0.08948   0.19795   0.01656   0.22364
  17   38573.8    259.2   0.040727100   0.34759   0.58814  -0.00245  -0.04089
  18   43932.1    227.6   1.131009909   8.47539   0.14985   0.88437   2.76963
  19   42055.5    237.8   0.017967011   0.14065  -0.01926  -0.32289   0.18979
  20   42835.4    233.5   0.161043454   1.23770   0.78739  -0.20139  -0.75971
  21   45681.8    218.9   0.378515030   2.72782  -1.64650   0.03846   0.12398
  22   43893.6    227.8   0.069430825   0.52075  -0.54330   0.00910  -0.47486
  23   43185.6    231.6   0.137904006   1.05127  -0.18558  -0.68061  -0.74404
  24   43008.2    232.5   0.141201953   1.08085   0.13104  -1.03126   0.01365
  25   42234.6    236.8   0.044530069   0.34710  -0.04783   0.31733   0.49408
  26   45549.1    219.5   0.264337117   1.91053  -0.06047   1.11333  -0.81693
  27   45439.2    220.1   0.362194982   2.62414   1.53235   0.11273  -0.51315
  28   47442.5    210.8   0.407495989   2.82769  -0.04684   1.60728  -0.49208
  29   44852.0    223.0   0.285102481   2.09264   0.54828  -1.07928  -0.79194
  30   44817.2    223.1   0.296370053   2.17704  -0.65129  -0.75843   1.08519

-----------------------------------------------------------------------------
         ABSORPTION SPECTRUM VIA TRANSITION VELOCITY DIPOLE MOMENTS
-----------------------------------------------------------------------------
State   Energy    Wavelength   fosc        P2         PX        PY        PZ  
        (cm-1)      (nm)                 (au**2)     (au)      (au)      (au) 
-----------------------------------------------------------------------------
   1   25793.7    387.7   1.482004597   0.26126  -0.51112   0.00303  -0.00276
   2   26396.7    378.8   0.092877403   0.01676  -0.01174   0.12846  -0.01072
   3   31170.4    320.8   0.897549619   0.19121  -0.00531  -0.43585   0.03486
   4   30667.6    326.1   0.504319323   0.10570   0.32499   0.00469   0.00786
   5   35915.7    278.4   0.007142906   0.00175   0.00254   0.04174   0.00223
   6   33483.3    298.7   0.166186955   0.03803   0.01144  -0.19349   0.02148
   7   35743.5    279.8   0.766125115   0.18716  -0.43260  -0.00352   0.00055
   8   34979.1    285.9   0.000696316   0.00017   0.00348  -0.00151  -0.01233
   9   36208.5    276.2   0.007869915   0.00195   0.01154   0.04115  -0.01102
  10   36079.0    277.2   0.006007615   0.00148  -0.03558   0.01289  -0.00702
  11   36866.6    271.2   0.003314705   0.00084   0.00063   0.00504  -0.02845
  12   34673.2    288.4   0.001917096   0.00045   0.02124  -0.00073   0.00162
  13   39281.8    254.6   0.000364298   0.00010   0.00265  -0.00889   0.00342
  14   39105.8    255.7   0.000228778   0.00006  -0.00738  -0.00206   0.00156
  15   40548.6    246.6   0.466492945   0.12928  -0.35901  -0.00195  -0.01967
  16   41459.3    241.2   0.013455571   0.00381  -0.04088  -0.00351  -0.04614
  17   38573.8    259.2   0.058791183   0.01550  -0.12414   0.00056   0.00934
  18   43932.1    227.6   1.308004656   0.39273  -0.03228  -0.19005  -0.59630
  19   42055.5    237.8   0.023003921   0.00661   0.00429   0.07005  -0.04106
  20   42835.4    233.5   0.194883685   0.05705  -0.17098   0.04364   0.16099
  21   45681.8    218.9   0.425930135   0.13298   0.36371  -0.00856  -0.02489
  22   43893.6    227.8   0.080812654   0.02424   0.12180  -0.00217   0.09697
  23   43185.6    231.6   0.175367794   0.05176   0.04207   0.15260   0.16341
  24   43008.2    232.5   0.185182080   0.05443  -0.02968   0.23140  -0.00206
  25   42234.6    236.8   0.063094057   0.01821   0.01104  -0.07278  -0.11311
  26   45549.1    219.5   0.313993267   0.09775   0.01377  -0.25226   0.18418
  27   45439.2    220.1   0.438800112   0.13627  -0.34948  -0.02567   0.11610
  28   47442.5    210.8   0.459545245   0.14901   0.01078  -0.36898   0.11288
  29   44852.0    223.0   0.369512317   0.11327  -0.12732   0.24974   0.18625
  30   44817.2    223.1   0.388073282   0.11887   0.15144   0.17513  -0.25547

-------------------------------------------------------------------
                             CD SPECTRUM
-------------------------------------------------------------------
State  Energy     Wavelength     R         MX        MY        MZ   
       (cm-1)       (nm)     (1e40*cgs)   (au)      (au)      (au)  
-------------------------------------------------------------------
   1   25793.7    387.7     69.62368   0.04551  -0.34697  -1.62056
   2   26396.7    378.8    -55.57441  -0.05281   0.13815   0.00751
   3   31170.4    320.8     80.94348   0.17539   0.05830  -0.00955
   4   30667.6    326.1     -1.19415  -0.00395   0.12390   0.14711
   5   35915.7    278.4     -1.29703   0.17085   0.00061   0.00303
   6   33483.3    298.7     -6.09485  -0.05277  -0.01413   0.00390
   7   35743.5    279.8     50.23619   0.04397  -0.17899  -0.42097
   8   34979.1    285.9     -0.60527   0.08673   0.00238   0.00529
   9   36208.5    276.2    -18.52845   0.06586   0.14523  -0.06108
  10   36079.0    277.2     -5.93168  -0.07650   0.05565   0.14454
  11   36866.6    271.2      2.27168   0.15724  -0.13390   0.01297
  12   34673.2    288.4     -4.59790   0.06907   0.05050   0.26165
  13   39281.8    254.6     -2.87498  -0.03676  -0.15028  -0.01439
  14   39105.8    255.7      1.18503   0.09157  -0.04298   0.10967
  15   40548.6    246.6    -73.29478  -0.07341  -0.15891  -0.27276
  16   41459.3    241.2     17.83586   0.22472   0.02494  -0.03159
  17   38573.8    259.2     -9.86815  -0.01866  -0.01245   0.24417
  18   43932.1    227.6    554.61918   3.25405   0.00065   0.24848
  19   42055.5    237.8    -28.35861   0.18661   0.16959  -0.00949
  20   42835.4    233.5    -625.99700  -0.83707   0.03731   0.87033
  21   45681.8    218.9    -141.70741   0.21843   0.19755   0.41517
  22   43893.6    227.8    -125.54697   0.29817  -0.09630   0.21781
  23   43185.6    231.6    -164.05068  -0.71262   0.53504   0.15599
  24   43008.2    232.5    -243.82830  -0.01480   0.49745  -0.16484
  25   42234.6    236.8     89.16419   0.72014   0.51354   0.12266
  26   45549.1    219.5    304.95782  -0.71783   0.55490   0.01756
  27   45439.2    220.1    352.04173   0.34864  -0.04510  -0.42397
  28   47442.5    210.8    -932.57880  -0.43107  -1.26600  -0.07422
  29   44852.0    223.0    425.03933   0.75321  -2.13264   2.28948
  30   44817.2    223.1    -173.97998  -1.00359  -1.99382  -2.33585

Total run time:   547711.805 sec

           *** ORCA-CIS/TD-DFT FINISHED WITHOUT ERROR ***

Maximum memory used throughout the entire CIS-calculation: 11800.0 MB

-----------------------
CIS/TD-DFT TOTAL ENERGY
-----------------------

    E(SCF)  =  -1897.125301779 Eh
    DE(CIS) =      0.117524913 Eh (Root  1)
    ----------------------------- ---------
    E(tot)  =  -1897.007776866 Eh


-------------------------   --------------------
FINAL SINGLE POINT ENERGY     -1897.007776865712
-------------------------   --------------------


                            ***************************************
                            *     ORCA property calculations      *
                            ***************************************


  WARNING: The energy has been calculated at the MP2 level but the densities
           used in the property calculations are still SCF densities
           MP2 response densities have not been calculated 
           use %mp2 Density relaxed end
           or  %mp2 Density unrelaxed end

                                    ---------------------
                                    Active property flags
                                    ---------------------
   (+) Dipole Moment


------------------------------------------------------------------------------
                       ORCA ELECTRIC PROPERTIES CALCULATION
------------------------------------------------------------------------------

Dipole Moment Calculation                       ... on
Quadrupole Moment Calculation                   ... off
Polarizability Calculation                      ... off
GBWName                                         ... POZ_1_M06L_def2TZVP_coords.gbw
Electron density                                ... POZ_1_M06L_def2TZVP_coords.scfp
The origin for moment calculation is the CENTER OF MASS  = ( 0.000063,  0.017491 -0.008787)

-------------
DIPOLE MOMENT
-------------
                                X             Y             Z
Electronic contribution:      0.01942       7.11631      -2.91823
Nuclear contribution   :     -0.02043      -5.63200       2.82928
                        -----------------------------------------
Total Dipole Moment    :     -0.00100       1.48430      -0.08894
                        -----------------------------------------
Magnitude (a.u.)       :      1.48696
Magnitude (Debye)      :      3.77956



--------------------
Rotational spectrum 
--------------------
 
Rotational constants in cm-1:     0.002297     0.000767     0.000599 
Rotational constants in MHz :    68.851724    22.987264    17.972395 

 Dipole components along the rotational axes: 
x,y,z [a.u.] :    -0.000967    -1.484285    -0.089227 
x,y,z [Debye]:    -0.002458    -3.772752    -0.226797 

 

Timings for individual modules:

Sum of individual times         ...   557188.086 sec (=9286.468 min)
GTO integral calculation        ...        5.888 sec (=   0.098 min)   0.0 %
SCF iterations                  ...     1618.020 sec (=  26.967 min)   0.3 %
MP2 module                      ...     7850.563 sec (= 130.843 min)   1.4 %
CIS module                      ...   547713.615 sec (=9128.560 min)  98.3 %
                             ****ORCA TERMINATED NORMALLY****
TOTAL RUN TIME: 6 days 10 hours 46 minutes 36 seconds 928 msec
