
                                 *****************
                                 * O   R   C   A *
                                 *****************

                                            #,                                       
                                            ###                                      
                                            ####                                     
                                            #####                                    
                                            ######                                   
                                           ########,                                 
                                     ,,################,,,,,                         
                               ,,#################################,,                 
                          ,,##########################################,,             
                       ,#########################################, ''#####,          
                    ,#############################################,,   '####,        
                  ,##################################################,,,,####,       
                ,###########''''           ''''###############################       
              ,#####''   ,,,,##########,,,,          '''####'''          '####       
            ,##' ,,,,###########################,,,                        '##       
           ' ,,###''''                  '''############,,,                           
         ,,##''                                '''############,,,,        ,,,,,,###''
      ,#''                                            '''#######################'''  
     '                                                          ''''####''''         
             ,#######,   #######,   ,#######,      ##                                
            ,#'     '#,  ##    ##  ,#'     '#,    #''#        ######   ,####,        
            ##       ##  ##   ,#'  ##            #'  '#       #        #'  '#        
            ##       ##  #######   ##           ,######,      #####,   #    #        
            '#,     ,#'  ##    ##  '#,     ,#' ,#      #,         ##   #,  ,#        
             '#######'   ##     ##  '#######'  #'      '#     #####' # '####'        



                  #######################################################
                  #                        -***-                        #
                  #          Department of theory and spectroscopy      #
                  #    Directorship and core code : Frank Neese         #
                  #        Max Planck Institute fuer Kohlenforschung    #
                  #                Kaiser Wilhelm Platz 1               #
                  #                 D-45470 Muelheim/Ruhr               #
                  #                      Germany                        #
                  #                                                     #
                  #                  All rights reserved                #
                  #                        -***-                        #
                  #######################################################


                         Program Version 5.0.2 -  RELEASE  -


 With contributions from (in alphabetic order):
   Daniel Aravena         : Magnetic Suceptibility
   Michael Atanasov       : Ab Initio Ligand Field Theory (pilot matlab implementation)
   Alexander A. Auer      : GIAO ZORA, VPT2 properties, NMR spectrum
   Ute Becker             : Parallelization
   Giovanni Bistoni       : ED, misc. LED, open-shell LED, HFLD
   Martin Brehm           : Molecular dynamics
   Dmytro Bykov           : SCF Hessian
   Vijay G. Chilkuri      : MRCI spin determinant printing, contributions to CSF-ICE
   Dipayan Datta          : RHF DLPNO-CCSD density
   Achintya Kumar Dutta   : EOM-CC, STEOM-CC
   Dmitry Ganyushin       : Spin-Orbit,Spin-Spin,Magnetic field MRCI
   Miquel Garcia          : C-PCM and meta-GGA Hessian, CC/C-PCM, Gaussian charge scheme
   Yang Guo               : DLPNO-NEVPT2, F12-NEVPT2, CIM, IAO-localization
   Andreas Hansen         : Spin unrestricted coupled pair/coupled cluster methods
   Benjamin Helmich-Paris : MC-RPA, TRAH-SCF, COSX integrals
   Lee Huntington         : MR-EOM, pCC
   Robert Izsak           : Overlap fitted RIJCOSX, COSX-SCS-MP3, EOM
   Marcus Kettner         : VPT2
   Christian Kollmar      : KDIIS, OOCD, Brueckner-CCSD(T), CCSD density, CASPT2, CASPT2-K
   Simone Kossmann        : Meta GGA functionals, TD-DFT gradient, OOMP2, MP2 Hessian
   Martin Krupicka        : Initial AUTO-CI
   Lucas Lang             : DCDCAS
   Marvin Lechner         : AUTO-CI (C++ implementation), FIC-MRCC
   Dagmar Lenk            : GEPOL surface, SMD
   Dimitrios Liakos       : Extrapolation schemes; Compound Job, initial MDCI parallelization
   Dimitrios Manganas     : Further ROCIS development; embedding schemes
   Dimitrios Pantazis     : SARC Basis sets
   Anastasios Papadopoulos: AUTO-CI, single reference methods and gradients
   Taras Petrenko         : DFT Hessian,TD-DFT gradient, ASA, ECA, R-Raman, ABS, FL, XAS/XES, NRVS
   Peter Pinski           : DLPNO-MP2, DLPNO-MP2 Gradient
   Christoph Reimann      : Effective Core Potentials
   Marius Retegan         : Local ZFS, SOC
   Christoph Riplinger    : Optimizer, TS searches, QM/MM, DLPNO-CCSD(T), (RO)-DLPNO pert. Triples
   Tobias Risthaus        : Range-separated hybrids, TD-DFT gradient, RPA, STAB
   Michael Roemelt        : Original ROCIS implementation
   Masaaki Saitow         : Open-shell DLPNO-CCSD energy and density
   Barbara Sandhoefer     : DKH picture change effects
   Avijit Sen             : IP-ROCIS
   Kantharuban Sivalingam : CASSCF convergence, NEVPT2, FIC-MRCI
   Bernardo de Souza      : ESD, SOC TD-DFT
   Georgi Stoychev        : AutoAux, RI-MP2 NMR, DLPNO-MP2 response
   Willem Van den Heuvel  : Paramagnetic NMR
   Boris Wezisla          : Elementary symmetry handling
   Frank Wennmohs         : Technical directorship


 We gratefully acknowledge several colleagues who have allowed us to
 interface, adapt or use parts of their codes:
   Stefan Grimme, W. Hujo, H. Kruse, P. Pracht,  : VdW corrections, initial TS optimization,
                  C. Bannwarth, S. Ehlert          DFT functionals, gCP, sTDA/sTD-DF
   Ed Valeev, F. Pavosevic, A. Kumar             : LibInt (2-el integral package), F12 methods
   Garnet Chan, S. Sharma, J. Yang, R. Olivares  : DMRG
   Ulf Ekstrom                                   : XCFun DFT Library
   Mihaly Kallay                                 : mrcc  (arbitrary order and MRCC methods)
   Jiri Pittner, Ondrej Demel                    : Mk-CCSD
   Frank Weinhold                                : gennbo (NPA and NBO analysis)
   Christopher J. Cramer and Donald G. Truhlar   : smd solvation model
   Lars Goerigk                                  : TD-DFT with DH, B97 family of functionals
   V. Asgeirsson, H. Jonsson                     : NEB implementation
   FAccTs GmbH                                   : IRC, NEB, NEB-TS, DLPNO-Multilevel, CI-OPT
                                                   MM, QMMM, 2- and 3-layer-ONIOM, Crystal-QMMM,
                                                   LR-CPCM, SF, NACMEs, symmetry and pop. for TD-DFT,
                                                   nearIR, NL-DFT gradient (VV10), updates on ESD,
                                                   ML-optimized integration grids
   S Lehtola, MJT Oliveira, MAL Marques          : LibXC Library
   Liviu Ungur et al                             : ANISO software


 Your calculation uses the libint2 library for the computation of 2-el integrals
 For citations please refer to: http://libint.valeyev.net

 Your ORCA version has been built with support for libXC version: 5.1.0
 For citations please refer to: https://tddft.org/programs/libxc/

 This ORCA versions uses:
   CBLAS   interface :  Fast vector & matrix operations
   LAPACKE interface :  Fast linear algebra routines
   SCALAPACK package :  Parallel linear algebra routines
   Shared memory     :  Shared parallel matrices
   BLAS/LAPACK       :  OpenBLAS 0.3.15  USE64BITINT DYNAMIC_ARCH NO_AFFINITY Zen SINGLE_THREADED
        Core in use  :  Zen
   Copyright (c) 2011-2014, The OpenBLAS Project


Your calculation utilizes the atom-pairwise dispersion correction
with the Becke-Johnson damping scheme (D3BJ)
Cite in your paper:
S.Grimme, S.Ehrlich, L.Goerigk, J Comput Chem, (2011), 32, 1456–1465 
S.Grimme, J.Antony, S.Ehrlich and H.Krieg, J.Chem.Phys., 132, (2010), 154104 
   

Your calculation utilizes the SMD solvation module
Please cite in your paper:
A.V. Marenich, C.J. Cramer, D.G. Truhlar J. Phys. Chem. B, 113, (2009), 6378 

================================================================================

----- Orbital basis set information -----
Your calculation utilizes the basis: def2-TZVP
   F. Weigend and R. Ahlrichs, Phys. Chem. Chem. Phys. 7, 3297 (2005).

----- AuxJ basis set information -----
Your calculation utilizes the auxiliary basis: def2/J
   F. Weigend, Phys. Chem. Chem. Phys. 8, 1057 (2006).

----- AuxC basis set information -----
Your calculation utilizes the auxiliary basis: def2-TZVP/C
  H-La, Hf-Rn : A. Hellweg, C. Hattig, S. Hofener and W. Klopper, Theor. Chem. Acc. 117, 587 (2007).
        Ce-Lu : J. Chmela and M. E. Harding, Mol. Phys. (2018).

================================================================================
                                        WARNINGS
                       Please study these warnings very carefully!
================================================================================

INFO   : Checking CIS options ...
  ===> : (D) CORRECTION FOUND - SETTING MODE=3
  ===> : JK MODE FOUND - ACTIVATING RI-MP2 CODE
  ===> : MP2 AND CIS FOUND - CHECKING
WARNING: CIS(D) and MP2 runs must have the same orbital window
  ===> : adjusting orbital windows

WARNING: No MP2 level density has been requested!
         To caclulate MP2 level properties use
         %mp2 Density relaxed end
         or
         %mp2 Density unrelaxed end
         Otherwise for double-hybrid DFT only the energy is correct!

WARNING: There are different parametrizations of Gershom Martin's DSD-DFs
         for use with and without D3(BJ)!
         You are using the D3(BJ) parametrized version,
         consistent with the GMTKN55 benchmark (L. Goerigk et al., PCCP 2017, 19, 32184)

WARNING: The frozen-core approximation is turned on by default for 
         the MP2 part of double-hybrid DFT.

WARNING: CIS/ROCIS methods need fully converged wavefunctions
  ===> : Setting SCFConvForced true
         You can overwrite this default with %scf ConvForced false 


INFO   : the flag for use of the SHARK integral package has been found!

================================================================================
                                       INPUT FILE
================================================================================
NAME = POZ_1_M06L_def2TZVP_coords.inp
|  1> %maxcore 12800
|  2> %pal
|  3>  nprocs= 8
|  4> end
|  5> ! RI-DSD-BLYP D3BJ def2-TZVP def2/J def2-TZVP/C RIJCOSX CPCM TightSCF
|  6> %TDDFT DCORR 4
|  7>    NROOTS   30
|  8> 
|  9>    TDA      FALSE
| 10> END
| 11> 
| 12> %CPCM
| 13>    SMD          TRUE
| 14>    SMDsolvent   "N,N-DIMETHYLACETAMIDE"
| 15> END
| 16>    
| 17> 
| 18> * xyz 0 1
| 19> C                   3.61765600    1.45129200   -0.41710800
| 20> C                   2.44517500    2.18143900   -0.52558900
| 21> C                   1.20333900    1.55532600   -0.48552500
| 22> C                   1.18228700    0.16538700   -0.32119200
| 23> C                   2.34675200   -0.55878600   -0.21041400
| 24> C                   3.60126000    0.06610900   -0.25821900
| 25> C                  -1.17577200    0.16028500   -0.34751100
| 26> C                  -1.19916600    1.55107000   -0.50445000
| 27> C                  -2.44211400    2.17400900   -0.55758300
| 28> H                  -2.48898600    3.24685300   -0.69037300
| 29> C                  -3.61362200    1.44116500   -0.45677800
| 30> C                  -3.59444600    0.05559400   -0.30227300
| 31> C                  -2.33941600   -0.56755200   -0.25157400
| 32> H                   2.49034800    3.25650000   -0.63969400
| 33> H                   2.26194200   -1.63305300   -0.10958300
| 34> H                  -4.55793100    1.96513400   -0.52506800
| 35> N                   0.00174200    2.24955900   -0.59693700
| 36> C                   0.00056200    3.66933500   -0.75726300
| 37> C                  -0.01257000    4.49792300    0.39277600
| 38> C                   0.01230200    4.20580600   -2.01807600
| 39> C                  -0.02431100    3.98392000    1.70735200
| 40> C                  -0.01360100    5.91252700    0.20200000
| 41> C                   0.01123100    5.59906000   -2.19624600
| 42> H                   0.02223200    3.54255500   -2.87410700
| 43> C                  -0.03664200    4.82859300    2.78568100
| 44> H                  -0.02340800    2.91104100    1.85507100
| 45> C                  -0.02656500    6.75075800    1.33821000
| 46> C                  -0.00154100    6.43210700   -1.11033800
| 47> H                   0.02049300    6.00674200   -3.19874000
| 48> C                  -0.03783300    6.22286100    2.60113500
| 49> H                  -0.04550000    4.42197900    3.78909000
| 50> H                  -0.02731400    7.82390600    1.18779900
| 51> H                  -0.00254300    7.50773000   -1.24113500
| 52> H                  -0.04762900    6.87718600    3.46363800
| 53> H                  -2.25341000   -1.63725400   -0.11096500
| 54> H                   4.55950900    1.98342300   -0.43475900
| 55> C                   4.84078100   -0.71276500   -0.14102100
| 56> C                   4.86923200   -1.95495900    0.50335400
| 57> C                   6.04922900   -0.24468200   -0.67036200
| 58> C                   6.03685000   -2.68544600    0.61210500
| 59> H                   3.96230800   -2.35379600    0.94081200
| 60> C                   7.21561100   -0.97650100   -0.56340900
| 61> H                   6.07437000    0.70556800   -1.18913500
| 62> C                   7.24251000   -2.21808800    0.08007100
| 63> H                   6.00838000   -3.64756400    1.10890300
| 64> H                   8.12914900   -0.56883700   -0.97882500
| 65> C                   8.48500700   -2.99905500    0.18939000
| 66> C                   8.69575200   -3.87865400    1.25699800
| 67> C                   9.49513700   -2.88708900   -0.77242100
| 68> C                   9.86576100   -4.61291700    1.35865300
| 69> H                   7.94181600   -3.97236900    2.02898800
| 70> C                  10.66473600   -3.62185200   -0.67084500
| 71> H                   9.35319700   -2.23121800   -1.62254300
| 72> C                  10.85740600   -4.48917500    0.39541600
| 73> H                  10.00665100   -5.28064900    2.19971700
| 74> H                  11.42706600   -3.52191500   -1.43373300
| 75> H                  11.77175500   -5.06351900    0.47480300
| 76> C                  -4.83306400   -0.72638000   -0.19976900
| 77> C                  -4.88328100   -2.07478100   -0.57130100
| 78> C                  -6.01848200   -0.15322100    0.27511300
| 79> C                  -6.05175900   -2.80607500   -0.47613000
| 80> H                  -3.99412900   -2.55906400   -0.95592400
| 81> C                  -7.18513600   -0.88568100    0.37337600
| 82> H                  -6.02355900    0.88365100    0.58764600
| 83> C                  -7.23473800   -2.23287900    0.00039400
| 84> H                  -6.04192000   -3.85004800   -0.76476200
| 85> H                  -8.08117500   -0.39762400    0.73700900
| 86> C                  -8.47747600   -3.01352100    0.10930100
| 87> C                  -8.73236700   -4.09330900   -0.74326900
| 88> C                  -9.44350500   -2.70019400    1.07186600
| 89> C                  -9.90257400   -4.82687200   -0.63782200
| 90> H                  -8.01349600   -4.34802500   -1.51238900
| 91> C                 -10.61287300   -3.43453800    1.17790300
| 92> H                  -9.26604400   -1.88310400    1.76027200
| 93> C                 -10.84975200   -4.50232700    0.32350500
| 94> H                 -10.07880000   -5.65279100   -1.31598500
| 95> H                 -11.34011200   -3.17583000    1.93767700
| 96> H                 -11.76406500   -5.07633400    0.40567900
| 97> O                   0.00409900   -0.53872400   -0.27868500
| 98> *
| 99> 
|100> 
|101>                          ****END OF INPUT****
================================================================================

                       ****************************
                       * Single Point Calculation *
                       ****************************

---------------------------------
CARTESIAN COORDINATES (ANGSTROEM)
---------------------------------
  C      3.617656    1.451292   -0.417108
  C      2.445175    2.181439   -0.525589
  C      1.203339    1.555326   -0.485525
  C      1.182287    0.165387   -0.321192
  C      2.346752   -0.558786   -0.210414
  C      3.601260    0.066109   -0.258219
  C     -1.175772    0.160285   -0.347511
  C     -1.199166    1.551070   -0.504450
  C     -2.442114    2.174009   -0.557583
  H     -2.488986    3.246853   -0.690373
  C     -3.613622    1.441165   -0.456778
  C     -3.594446    0.055594   -0.302273
  C     -2.339416   -0.567552   -0.251574
  H      2.490348    3.256500   -0.639694
  H      2.261942   -1.633053   -0.109583
  H     -4.557931    1.965134   -0.525068
  N      0.001742    2.249559   -0.596937
  C      0.000562    3.669335   -0.757263
  C     -0.012570    4.497923    0.392776
  C      0.012302    4.205806   -2.018076
  C     -0.024311    3.983920    1.707352
  C     -0.013601    5.912527    0.202000
  C      0.011231    5.599060   -2.196246
  H      0.022232    3.542555   -2.874107
  C     -0.036642    4.828593    2.785681
  H     -0.023408    2.911041    1.855071
  C     -0.026565    6.750758    1.338210
  C     -0.001541    6.432107   -1.110338
  H      0.020493    6.006742   -3.198740
  C     -0.037833    6.222861    2.601135
  H     -0.045500    4.421979    3.789090
  H     -0.027314    7.823906    1.187799
  H     -0.002543    7.507730   -1.241135
  H     -0.047629    6.877186    3.463638
  H     -2.253410   -1.637254   -0.110965
  H      4.559509    1.983423   -0.434759
  C      4.840781   -0.712765   -0.141021
  C      4.869232   -1.954959    0.503354
  C      6.049229   -0.244682   -0.670362
  C      6.036850   -2.685446    0.612105
  H      3.962308   -2.353796    0.940812
  C      7.215611   -0.976501   -0.563409
  H      6.074370    0.705568   -1.189135
  C      7.242510   -2.218088    0.080071
  H      6.008380   -3.647564    1.108903
  H      8.129149   -0.568837   -0.978825
  C      8.485007   -2.999055    0.189390
  C      8.695752   -3.878654    1.256998
  C      9.495137   -2.887089   -0.772421
  C      9.865761   -4.612917    1.358653
  H      7.941816   -3.972369    2.028988
  C     10.664736   -3.621852   -0.670845
  H      9.353197   -2.231218   -1.622543
  C     10.857406   -4.489175    0.395416
  H     10.006651   -5.280649    2.199717
  H     11.427066   -3.521915   -1.433733
  H     11.771755   -5.063519    0.474803
  C     -4.833064   -0.726380   -0.199769
  C     -4.883281   -2.074781   -0.571301
  C     -6.018482   -0.153221    0.275113
  C     -6.051759   -2.806075   -0.476130
  H     -3.994129   -2.559064   -0.955924
  C     -7.185136   -0.885681    0.373376
  H     -6.023559    0.883651    0.587646
  C     -7.234738   -2.232879    0.000394
  H     -6.041920   -3.850048   -0.764762
  H     -8.081175   -0.397624    0.737009
  C     -8.477476   -3.013521    0.109301
  C     -8.732367   -4.093309   -0.743269
  C     -9.443505   -2.700194    1.071866
  C     -9.902574   -4.826872   -0.637822
  H     -8.013496   -4.348025   -1.512389
  C    -10.612873   -3.434538    1.177903
  H     -9.266044   -1.883104    1.760272
  C    -10.849752   -4.502327    0.323505
  H    -10.078800   -5.652791   -1.315985
  H    -11.340112   -3.175830    1.937677
  H    -11.764065   -5.076334    0.405679
  O      0.004099   -0.538724   -0.278685

----------------------------
CARTESIAN COORDINATES (A.U.)
----------------------------
  NO LB      ZA    FRAG     MASS         X           Y           Z
   0 C     6.0000    0    12.011    6.836379    2.742544   -0.788220
   1 C     6.0000    0    12.011    4.620711    4.122322   -0.993219
   2 C     6.0000    0    12.011    2.273981    2.939140   -0.917509
   3 C     6.0000    0    12.011    2.234199    0.312536   -0.606965
   4 C     6.0000    0    12.011    4.434719   -1.055953   -0.397625
   5 C     6.0000    0    12.011    6.805395    0.124928   -0.487963
   6 C     6.0000    0    12.011   -2.221887    0.302895   -0.656701
   7 C     6.0000    0    12.011   -2.266095    2.931098   -0.953272
   8 C     6.0000    0    12.011   -4.614927    4.108282   -1.053679
   9 H     1.0000    0     1.008   -4.703502    6.135663   -1.304616
  10 C     6.0000    0    12.011   -6.828756    2.723407   -0.863185
  11 C     6.0000    0    12.011   -6.792519    0.105057   -0.571213
  12 C     6.0000    0    12.011   -4.420856   -1.072518   -0.475406
  13 H     1.0000    0     1.008    4.706076    6.153893   -1.208846
  14 H     1.0000    0     1.008    4.274451   -3.086023   -0.207082
  15 H     1.0000    0     1.008   -8.613241    3.713565   -0.992235
  16 N     7.0000    0    14.007    0.003292    4.251050   -1.128047
  17 C     6.0000    0    12.011    0.001062    6.934038   -1.431020
  18 C     6.0000    0    12.011   -0.023754    8.499843    0.742239
  19 C     6.0000    0    12.011    0.023247    7.947822   -3.813611
  20 C     6.0000    0    12.011   -0.045941    7.528518    3.226428
  21 C     6.0000    0    12.011   -0.025702   11.173057    0.381725
  22 C     6.0000    0    12.011    0.021224   10.580690   -4.150303
  23 H     1.0000    0     1.008    0.042012    6.694459   -5.431275
  24 C     6.0000    0    12.011   -0.069243    9.124718    5.264174
  25 H     1.0000    0     1.008   -0.044235    5.501070    3.505576
  26 C     6.0000    0    12.011   -0.050201   12.757084    2.528850
  27 C     6.0000    0    12.011   -0.002912   12.154921   -2.098235
  28 H     1.0000    0     1.008    0.038726   11.351097   -6.044743
  29 C     6.0000    0    12.011   -0.071494   11.759503    4.915433
  30 H     1.0000    0     1.008   -0.085983    8.356329    7.160342
  31 H     1.0000    0     1.008   -0.051616   14.785040    2.244615
  32 H     1.0000    0     1.008   -0.004806   14.187554   -2.345405
  33 H     1.0000    0     1.008   -0.090006   12.995998    6.545327
  34 H     1.0000    0     1.008   -4.258328   -3.093962   -0.209693
  35 H     1.0000    0     1.008    8.616223    3.748126   -0.821575
  36 C     6.0000    0    12.011    9.147750   -1.346931   -0.266491
  37 C     6.0000    0    12.011    9.201515   -3.694337    0.951201
  38 C     6.0000    0    12.011   11.431386   -0.462382   -1.266801
  39 C     6.0000    0    12.011   11.407993   -5.074757    1.156711
  40 H     1.0000    0     1.008    7.487677   -4.448030    1.777877
  41 C     6.0000    0    12.011   13.635529   -1.845319   -1.064689
  42 H     1.0000    0     1.008   11.478896    1.333330   -2.247139
  43 C     6.0000    0    12.011   13.686360   -4.191579    0.151312
  44 H     1.0000    0     1.008   11.354193   -6.892897    2.095523
  45 H     1.0000    0     1.008   15.361865   -1.074946   -1.849711
  46 C     6.0000    0    12.011   16.034339   -5.667393    0.357895
  47 C     6.0000    0    12.011   16.432590   -7.329594    2.375382
  48 C     6.0000    0    12.011   17.943209   -5.455808   -1.459664
  49 C     6.0000    0    12.011   18.643586   -8.717150    2.567482
  50 H     1.0000    0     1.008   15.007857   -7.506690    3.834232
  51 C     6.0000    0    12.011   20.153430   -6.844308   -1.267713
  52 H     1.0000    0     1.008   17.674981   -4.216391   -3.066162
  53 C     6.0000    0    12.011   20.517524   -8.483311    0.747228
  54 H     1.0000    0     1.008   18.909830   -9.978980    4.156863
  55 H     1.0000    0     1.008   21.594025   -6.655455   -2.709363
  56 H     1.0000    0     1.008   22.245393   -9.568664    0.897248
  57 C     6.0000    0    12.011   -9.133167   -1.372659   -0.377509
  58 C     6.0000    0    12.011   -9.228064   -3.920768   -1.079602
  59 C     6.0000    0    12.011  -11.373283   -0.289546    0.519888
  60 C     6.0000    0    12.011  -11.436167   -5.302713   -0.899755
  61 H     1.0000    0     1.008   -7.547810   -4.835930   -1.806435
  62 C     6.0000    0    12.011  -13.577939   -1.673695    0.705578
  63 H     1.0000    0     1.008  -11.382877    1.669858    1.110490
  64 C     6.0000    0    12.011  -13.671673   -4.219530    0.000745
  65 H     1.0000    0     1.008  -11.417574   -7.275536   -1.445191
  66 H     1.0000    0     1.008  -15.271208   -0.751400    1.392745
  67 C     6.0000    0    12.011  -16.020108   -5.694729    0.206549
  68 C     6.0000    0    12.011  -16.501782   -7.735233   -1.404575
  69 C     6.0000    0    12.011  -17.845638   -5.102627    2.025533
  70 C     6.0000    0    12.011  -18.713153   -9.121466   -1.205309
  71 H     1.0000    0     1.008  -15.143313   -8.216576   -2.858001
  72 C     6.0000    0    12.011  -20.055423   -6.490336    2.225914
  73 H     1.0000    0     1.008  -17.510286   -3.558551    3.326432
  74 C     6.0000    0    12.011  -20.503060   -8.508165    0.611336
  75 H     1.0000    0     1.008  -19.046172  -10.682227   -2.486851
  76 H     1.0000    0     1.008  -21.429706   -6.001449    3.661679
  77 H     1.0000    0     1.008  -22.230861   -9.592881    0.766622
  78 O     8.0000    0    15.999    0.007746   -1.018041   -0.526638

--------------------------------
INTERNAL COORDINATES (ANGSTROEM)
--------------------------------
 C      0   0   0     0.000000000000     0.00000000     0.00000000
 C      1   0   0     1.385494303247     0.00000000     0.00000000
 C      2   1   0     1.391322846704   121.05914102     0.00000000
 C      3   2   1     1.399778177182   117.62313195     0.50130147
 C      4   3   2     1.375745992339   121.29262293   359.65001087
 C      1   2   3     1.394362394296   121.49980942   359.71778936
 C      4   3   2     2.358211391637    90.90970076   179.08191780
 C      7   4   3     1.399807145710    90.90605177   359.67473411
 C      8   7   4     1.391328805177   117.64909951   181.44220101
 H      9   8   7     1.082046402341   119.16370034   180.73080406
 C      9   8   7     1.385515416885   121.04882029     0.07797513
 C     11   9   8     1.394290683481   121.47039687   359.82778861
 C      7   4   3     1.375869894021   147.78601947   181.78788235
 H      2   1   3     1.082042838651   119.77008818   179.76526395
 H      5   4   3     1.082316595988   117.62268152   181.46611635
 H     11   9   8     1.082093584004   118.50044623   181.32454896
 N      3   2   1     1.392195188342   122.93274886   180.30313780
 C     17   3   2     1.428800094083   120.34487976   359.82872067
 C     18  17   3     1.417504929335   119.32862102   270.98250554
 C     18  17   3     1.370251211424   119.49064077    90.97402680
 C     19  18  17     1.411540645843   122.87449087     0.00000000
 C     19  18  17     1.427410600336   118.09069954   180.00754434
 C     20  18  17     1.404600442993   120.33534777   179.99411050
 H     20  18  17     1.082954092684   119.18462476     0.00000000
 C     21  19  18     1.369824062692   120.57461158   179.99350116
 H     21  19  18     1.083000954298   119.19352879     0.00000000
 C     22  19  18     1.412010070345   118.73622387   180.00234305
 C     23  20  18     1.368695222706   120.20492439     0.00000000
 H     23  20  18     1.082259034522   119.41582828   180.00679373
 C     27  22  19     1.368861485344   120.89993794     0.00000000
 H     25  21  19     1.082701727366   119.87085042   180.00447913
 H     27  22  19     1.083637697677   118.43836378   180.00138717
 H     28  23  20     1.083546813637   120.55926696   180.00653635
 H     30  27  22     1.082658114203   120.13250854   179.99487084
 H     13   7   4     1.082326333284   117.68969919   358.75717461
 H      1   2   3     1.081925151095   118.43889107   181.14162658
 C      6   1   2     1.468602188655   121.73748293   180.07800696
 C     37   6   1     1.399669437282   121.63975327   155.32206723
 C     37   6   1     1.399875050808   121.40518040   335.31028878
 C     38  37   6     1.381582364933   121.51100927   180.00133203
 H     38  37   6     1.083028899018   119.72001515   359.18187315
 C     39  37   6     1.381102806779   121.50561663   180.11621194
 H     39  37   6     1.082927771326   119.64292941   359.22907246
 C     40  38  37     1.398248802224   121.46979618   359.83151193
 H     40  38  37     1.083185044038   118.91588832   180.74137826
 H     42  39  37     1.083195304364   118.89018429   180.67288326
 C     44  40  38     1.471617781171   121.49142500   180.32898543
 C     47  44  40     1.399247904229   121.16091213   331.43415898
 C     47  44  40     1.399278171693   121.06266211   151.38430392
 C     48  47  44     1.385062075242   121.09631601   180.00807139
 H     48  47  44     1.083129979929   119.56191560   358.67507869
 C     49  47  44     1.384975151671   121.11581084   180.02004979
 H     49  47  44     1.083061008035   119.56276116   358.70459076
 C     52  49  47     1.387906133479   120.33864574     0.00000000
 H     50  48  47     1.083099565146   119.58418516   179.50502149
 H     52  49  47     1.083112428796   119.58880305   179.50952906
 H     54  52  49     1.082685282022   120.33623598   180.00232352
 C     12  11   9     1.468388557779   121.69132485   180.22211625
 C     58  12  11     1.399551010472   121.65550883   154.14836385
 C     58  12  11     1.399728540800   121.33167537   334.16134749
 C     59  58  12     1.381734153215   121.46471345   180.15202098
 H     59  58  12     1.083077169606   119.71000301   359.27913345
 C     60  58  12     1.381026728375   121.49296240   180.02499351
 H     60  58  12     1.082961770517   119.59931182   359.11603872
 C     61  59  58     1.398237494646   121.46515856   359.75252420
 H     61  59  58     1.083182746389   118.95120077   180.65894015
 H     63  60  58     1.083196419611   118.92903590   180.61581598
 C     65  61  59     1.471618294075   121.48165758   180.36224513
 C     68  65  61     1.399209473855   121.20550336   331.40758698
 C     68  65  61     1.399255951209   121.00660633   151.32860957
 C     69  68  65     1.385141930499   121.07830843   179.95447847
 H     69  68  65     1.083144186938   119.55404129   358.64955430
 C     70  68  65     1.384892225095   121.12324741   180.10519997
 H     70  68  65     1.083065693048   119.54163727   358.78899597
 C     73  70  68     1.387905238684   120.32669989   359.94386974
 H     71  69  68     1.083098726897   119.57980708   179.48024862
 H     73  70  68     1.083080294097   119.60464185   179.47014526
 H     75  73  70     1.082684101802   120.35104930   180.03550116
 O      7   4   3     1.373115500240    30.83262681   177.78352436

---------------------------
INTERNAL COORDINATES (A.U.)
---------------------------
 C      0   0   0     0.000000000000     0.00000000     0.00000000
 C      1   0   0     2.618204793246     0.00000000     0.00000000
 C      2   1   0     2.629219144139   121.05914102     0.00000000
 C      3   2   1     2.645197403113   117.62313195     0.50130147
 C      4   3   2     2.599783155361   121.29262293   359.65001087
 C      1   2   3     2.634963056658   121.49980942   359.71778936
 C      4   3   2     4.456373696087    90.90970076   179.08191780
 C      7   4   3     2.645252145699    90.90605177   359.67473411
 C      8   7   4     2.629230404020   117.64909951   181.44220101
 H      9   8   7     2.044771364620   119.16370034   180.73080406
 C      9   8   7     2.618244692238   121.04882029     0.07797513
 C     11   9   8     2.634827542857   121.47039687   359.82778861
 C      7   4   3     2.600017295607   147.78601947   181.78788235
 H      2   1   3     2.044764630220   119.77008818   179.76526395
 H      5   4   3     2.045281956614   117.62268152   181.46611635
 H     11   9   8     2.044860525040   118.50044623   181.32454896
 N      3   2   1     2.630867630929   122.93274886   180.30313780
 C     17   3   2     2.700040877938   120.34487976   359.82872067
 C     18  17   3     2.678696109927   119.32862102   270.98250554
 C     18  17   3     2.589399524266   119.49064077    90.97402680
 C     19  18  17     2.667425247541   122.87449087     0.00000000
 C     19  18  17     2.697415115292   118.09069954   180.00754434
 C     20  18  17     2.654310164842   120.33534777   179.99411050
 H     20  18  17     2.046486650783   119.18462476     0.00000000
 C     21  19  18     2.588592330144   120.57461158   179.99350116
 H     21  19  18     2.046575206399   119.19352879     0.00000000
 C     22  19  18     2.668312331292   118.73622387   180.00234305
 C     23  20  18     2.586459131720   120.20492439     0.00000000
 H     23  20  18     2.045173181208   119.41582828   180.00679373
 C     27  22  19     2.586773322573   120.89993794     0.00000000
 H     25  21  19     2.046009749445   119.87085042   180.00447913
 H     27  22  19     2.047778477002   118.43836378   180.00138717
 H     28  23  20     2.047606731056   120.55926696   180.00653635
 H     30  27  22     2.045927332512   120.13250854   179.99487084
 H     13   7   4     2.045300357439   117.68969919   358.75717461
 H      1   2   3     2.044542232970   118.43889107   181.14162658
 C      6   1   2     2.775255936234   121.73748293   180.07800696
 C     37   6   1     2.644991914483   121.63975327   155.32206723
 C     37   6   1     2.645380467736   121.40518040   335.31028878
 C     38  37   6     2.610812301179   121.51100927   180.00133203
 H     38  37   6     2.046628014267   119.72001515   359.18187315
 C     39  37   6     2.609906067603   121.50561663   180.11621194
 H     39  37   6     2.046436910625   119.64292941   359.22907246
 C     40  38  37     2.642307303286   121.46979618   359.83151193
 H     40  38  37     2.046923085592   118.91588832   180.74137826
 H     42  39  37     2.046942474797   118.89018429   180.67288326
 C     44  40  38     2.780954580222   121.49142500   180.32898543
 C     47  44  40     2.644195332457   121.16091213   331.43415898
 C     47  44  40     2.644252529674   121.06266211   151.38430392
 C     48  47  44     2.617388000689   121.09631601   180.00807139
 H     48  47  44     2.046819029505   119.56191560   358.67507869
 C     49  47  44     2.617223738944   121.11581084   180.02004979
 H     49  47  44     2.046688691514   119.56276116   358.70459076
 C     52  49  47     2.622762491866   120.33864574     0.00000000
 H     50  48  47     2.046761553896   119.58418516   179.50502149
 H     52  49  47     2.046785862671   119.58880305   179.50952906
 H     54  52  49     2.045978672248   120.33623598   180.00232352
 C     12  11   9     2.774852232386   121.69132485   180.22211625
 C     58  12  11     2.644768120245   121.65550883   154.14836385
 C     58  12  11     2.645103603944   121.33167537   334.16134749
 C     59  58  12     2.611099139462   121.46471345   180.15202098
 H     59  58  12     2.046719232458   119.71000301   359.27913345
 C     60  58  12     2.609762300253   121.49296240   180.02499351
 H     60  58  12     2.046501159784   119.59931182   359.11603872
 C     61  59  58     2.642285935060   121.46515856   359.75252420
 H     61  59  58     2.046918743663   118.95120077   180.65894015
 H     63  60  58     2.046944582310   118.92903590   180.61581598
 C     65  61  59     2.780955549471   121.48165758   180.36224513
 C     68  65  61     2.644122709574   121.20550336   331.40758698
 C     68  65  61     2.644210539045   121.00660633   151.32860957
 C     69  68  65     2.617538905254   121.07830843   179.95447847
 H     69  68  65     2.046845876861   119.55404129   358.64955430
 C     70  68  65     2.617067030427   121.12324741   180.10519997
 H     70  68  65     2.046697544906   119.54163727   358.78899597
 C     73  70  68     2.622760800947   120.32669989   359.94386974
 H     71  69  68     2.046759969834   119.57980708   179.48024862
 H     73  70  68     2.046725136890   119.60464185   179.47014526
 H     75  73  70     2.045976441956   120.35104930   180.03550116
 O      7   4   3     2.594812245695    30.83262681   177.78352436

---------------------
BASIS SET INFORMATION
---------------------
There are 4 groups of distinct atoms

 Group   1 Type C   : 11s6p2d1f contracted to 5s3p2d1f pattern {62111/411/11/1}
 Group   2 Type H   : 5s1p contracted to 3s1p pattern {311/1}
 Group   3 Type N   : 11s6p2d1f contracted to 5s3p2d1f pattern {62111/411/11/1}
 Group   4 Type O   : 11s6p2d1f contracted to 5s3p2d1f pattern {62111/411/11/1}

Atom   0C    basis set group =>   1
Atom   1C    basis set group =>   1
Atom   2C    basis set group =>   1
Atom   3C    basis set group =>   1
Atom   4C    basis set group =>   1
Atom   5C    basis set group =>   1
Atom   6C    basis set group =>   1
Atom   7C    basis set group =>   1
Atom   8C    basis set group =>   1
Atom   9H    basis set group =>   2
Atom  10C    basis set group =>   1
Atom  11C    basis set group =>   1
Atom  12C    basis set group =>   1
Atom  13H    basis set group =>   2
Atom  14H    basis set group =>   2
Atom  15H    basis set group =>   2
Atom  16N    basis set group =>   3
Atom  17C    basis set group =>   1
Atom  18C    basis set group =>   1
Atom  19C    basis set group =>   1
Atom  20C    basis set group =>   1
Atom  21C    basis set group =>   1
Atom  22C    basis set group =>   1
Atom  23H    basis set group =>   2
Atom  24C    basis set group =>   1
Atom  25H    basis set group =>   2
Atom  26C    basis set group =>   1
Atom  27C    basis set group =>   1
Atom  28H    basis set group =>   2
Atom  29C    basis set group =>   1
Atom  30H    basis set group =>   2
Atom  31H    basis set group =>   2
Atom  32H    basis set group =>   2
Atom  33H    basis set group =>   2
Atom  34H    basis set group =>   2
Atom  35H    basis set group =>   2
Atom  36C    basis set group =>   1
Atom  37C    basis set group =>   1
Atom  38C    basis set group =>   1
Atom  39C    basis set group =>   1
Atom  40H    basis set group =>   2
Atom  41C    basis set group =>   1
Atom  42H    basis set group =>   2
Atom  43C    basis set group =>   1
Atom  44H    basis set group =>   2
Atom  45H    basis set group =>   2
Atom  46C    basis set group =>   1
Atom  47C    basis set group =>   1
Atom  48C    basis set group =>   1
Atom  49C    basis set group =>   1
Atom  50H    basis set group =>   2
Atom  51C    basis set group =>   1
Atom  52H    basis set group =>   2
Atom  53C    basis set group =>   1
Atom  54H    basis set group =>   2
Atom  55H    basis set group =>   2
Atom  56H    basis set group =>   2
Atom  57C    basis set group =>   1
Atom  58C    basis set group =>   1
Atom  59C    basis set group =>   1
Atom  60C    basis set group =>   1
Atom  61H    basis set group =>   2
Atom  62C    basis set group =>   1
Atom  63H    basis set group =>   2
Atom  64C    basis set group =>   1
Atom  65H    basis set group =>   2
Atom  66H    basis set group =>   2
Atom  67C    basis set group =>   1
Atom  68C    basis set group =>   1
Atom  69C    basis set group =>   1
Atom  70C    basis set group =>   1
Atom  71H    basis set group =>   2
Atom  72C    basis set group =>   1
Atom  73H    basis set group =>   2
Atom  74C    basis set group =>   1
Atom  75H    basis set group =>   2
Atom  76H    basis set group =>   2
Atom  77H    basis set group =>   2
Atom  78O    basis set group =>   4
---------------------------------
AUXILIARY/J BASIS SET INFORMATION
---------------------------------
There are 4 groups of distinct atoms

 Group   1 Type C   : 12s5p4d2f1g contracted to 6s4p3d1f1g pattern {711111/2111/211/2/1}
 Group   2 Type H   : 5s2p1d contracted to 3s1p1d pattern {311/2/1}
 Group   3 Type N   : 12s5p4d2f1g contracted to 6s4p3d1f1g pattern {711111/2111/211/2/1}
 Group   4 Type O   : 12s5p4d2f1g contracted to 6s4p3d1f1g pattern {711111/2111/211/2/1}

Atom   0C    basis set group =>   1
Atom   1C    basis set group =>   1
Atom   2C    basis set group =>   1
Atom   3C    basis set group =>   1
Atom   4C    basis set group =>   1
Atom   5C    basis set group =>   1
Atom   6C    basis set group =>   1
Atom   7C    basis set group =>   1
Atom   8C    basis set group =>   1
Atom   9H    basis set group =>   2
Atom  10C    basis set group =>   1
Atom  11C    basis set group =>   1
Atom  12C    basis set group =>   1
Atom  13H    basis set group =>   2
Atom  14H    basis set group =>   2
Atom  15H    basis set group =>   2
Atom  16N    basis set group =>   3
Atom  17C    basis set group =>   1
Atom  18C    basis set group =>   1
Atom  19C    basis set group =>   1
Atom  20C    basis set group =>   1
Atom  21C    basis set group =>   1
Atom  22C    basis set group =>   1
Atom  23H    basis set group =>   2
Atom  24C    basis set group =>   1
Atom  25H    basis set group =>   2
Atom  26C    basis set group =>   1
Atom  27C    basis set group =>   1
Atom  28H    basis set group =>   2
Atom  29C    basis set group =>   1
Atom  30H    basis set group =>   2
Atom  31H    basis set group =>   2
Atom  32H    basis set group =>   2
Atom  33H    basis set group =>   2
Atom  34H    basis set group =>   2
Atom  35H    basis set group =>   2
Atom  36C    basis set group =>   1
Atom  37C    basis set group =>   1
Atom  38C    basis set group =>   1
Atom  39C    basis set group =>   1
Atom  40H    basis set group =>   2
Atom  41C    basis set group =>   1
Atom  42H    basis set group =>   2
Atom  43C    basis set group =>   1
Atom  44H    basis set group =>   2
Atom  45H    basis set group =>   2
Atom  46C    basis set group =>   1
Atom  47C    basis set group =>   1
Atom  48C    basis set group =>   1
Atom  49C    basis set group =>   1
Atom  50H    basis set group =>   2
Atom  51C    basis set group =>   1
Atom  52H    basis set group =>   2
Atom  53C    basis set group =>   1
Atom  54H    basis set group =>   2
Atom  55H    basis set group =>   2
Atom  56H    basis set group =>   2
Atom  57C    basis set group =>   1
Atom  58C    basis set group =>   1
Atom  59C    basis set group =>   1
Atom  60C    basis set group =>   1
Atom  61H    basis set group =>   2
Atom  62C    basis set group =>   1
Atom  63H    basis set group =>   2
Atom  64C    basis set group =>   1
Atom  65H    basis set group =>   2
Atom  66H    basis set group =>   2
Atom  67C    basis set group =>   1
Atom  68C    basis set group =>   1
Atom  69C    basis set group =>   1
Atom  70C    basis set group =>   1
Atom  71H    basis set group =>   2
Atom  72C    basis set group =>   1
Atom  73H    basis set group =>   2
Atom  74C    basis set group =>   1
Atom  75H    basis set group =>   2
Atom  76H    basis set group =>   2
Atom  77H    basis set group =>   2
Atom  78O    basis set group =>   4
---------------------------------
AUXILIARY/C BASIS SET INFORMATION
---------------------------------
There are 4 groups of distinct atoms

 Group   1 Type C   : 8s6p5d3f1g contracted to 8s6p4d3f1g pattern {11111111/111111/2111/111/1}
 Group   2 Type H   : 4s3p2d contracted to 4s2p1d pattern {1111/21/2}
 Group   3 Type N   : 8s6p5d3f1g contracted to 8s6p4d3f1g pattern {11111111/111111/2111/111/1}
 Group   4 Type O   : 8s6p5d3f1g contracted to 8s6p4d3f1g pattern {11111111/111111/2111/111/1}

Atom   0C    basis set group =>   1
Atom   1C    basis set group =>   1
Atom   2C    basis set group =>   1
Atom   3C    basis set group =>   1
Atom   4C    basis set group =>   1
Atom   5C    basis set group =>   1
Atom   6C    basis set group =>   1
Atom   7C    basis set group =>   1
Atom   8C    basis set group =>   1
Atom   9H    basis set group =>   2
Atom  10C    basis set group =>   1
Atom  11C    basis set group =>   1
Atom  12C    basis set group =>   1
Atom  13H    basis set group =>   2
Atom  14H    basis set group =>   2
Atom  15H    basis set group =>   2
Atom  16N    basis set group =>   3
Atom  17C    basis set group =>   1
Atom  18C    basis set group =>   1
Atom  19C    basis set group =>   1
Atom  20C    basis set group =>   1
Atom  21C    basis set group =>   1
Atom  22C    basis set group =>   1
Atom  23H    basis set group =>   2
Atom  24C    basis set group =>   1
Atom  25H    basis set group =>   2
Atom  26C    basis set group =>   1
Atom  27C    basis set group =>   1
Atom  28H    basis set group =>   2
Atom  29C    basis set group =>   1
Atom  30H    basis set group =>   2
Atom  31H    basis set group =>   2
Atom  32H    basis set group =>   2
Atom  33H    basis set group =>   2
Atom  34H    basis set group =>   2
Atom  35H    basis set group =>   2
Atom  36C    basis set group =>   1
Atom  37C    basis set group =>   1
Atom  38C    basis set group =>   1
Atom  39C    basis set group =>   1
Atom  40H    basis set group =>   2
Atom  41C    basis set group =>   1
Atom  42H    basis set group =>   2
Atom  43C    basis set group =>   1
Atom  44H    basis set group =>   2
Atom  45H    basis set group =>   2
Atom  46C    basis set group =>   1
Atom  47C    basis set group =>   1
Atom  48C    basis set group =>   1
Atom  49C    basis set group =>   1
Atom  50H    basis set group =>   2
Atom  51C    basis set group =>   1
Atom  52H    basis set group =>   2
Atom  53C    basis set group =>   1
Atom  54H    basis set group =>   2
Atom  55H    basis set group =>   2
Atom  56H    basis set group =>   2
Atom  57C    basis set group =>   1
Atom  58C    basis set group =>   1
Atom  59C    basis set group =>   1
Atom  60C    basis set group =>   1
Atom  61H    basis set group =>   2
Atom  62C    basis set group =>   1
Atom  63H    basis set group =>   2
Atom  64C    basis set group =>   1
Atom  65H    basis set group =>   2
Atom  66H    basis set group =>   2
Atom  67C    basis set group =>   1
Atom  68C    basis set group =>   1
Atom  69C    basis set group =>   1
Atom  70C    basis set group =>   1
Atom  71H    basis set group =>   2
Atom  72C    basis set group =>   1
Atom  73H    basis set group =>   2
Atom  74C    basis set group =>   1
Atom  75H    basis set group =>   2
Atom  76H    basis set group =>   2
Atom  77H    basis set group =>   2
Atom  78O    basis set group =>   4


           ************************************************************
           *        Program running with 8 parallel MPI-processes     *
           *              working on a common directory               *
           ************************************************************
------------------------------------------------------------------------------
                           ORCA GTO INTEGRAL CALCULATION
                           -- RI-GTO INTEGRALS CHOSEN --
------------------------------------------------------------------------------
------------------------------------------------------------------------------
                   ___                                                        
                  /   \      - P O W E R E D   B Y -                         
                 /     \                                                     
                 |  |  |   _    _      __       _____    __    __             
                 |  |  |  | |  | |    /  \     |  _  \  |  |  /  |          
                  \  \/   | |  | |   /    \    | | | |  |  | /  /          
                 / \  \   | |__| |  /  /\  \   | |_| |  |  |/  /          
                |  |  |   |  __  | /  /__\  \  |    /   |      \           
                |  |  |   | |  | | |   __   |  |    \   |  |\   \          
                \     /   | |  | | |  |  |  |  | |\  \  |  | \   \       
                 \___/    |_|  |_| |__|  |__|  |_| \__\ |__|  \__/        
                                                                              
                      - O R C A' S   B I G   F R I E N D -                    
                                      &                                       
                       - I N T E G R A L  F E E D E R -                       
                                                                              
 v1 FN, 2020, v2 2021                                                         
------------------------------------------------------------------------------


Reading SHARK input file POZ_1_M06L_def2TZVP_coords.SHARKINP.tmp ... ok
----------------------
SHARK INTEGRAL PACKAGE
----------------------

Number of atoms                             ...     79
Number of basis functions                   ...   1674
Number of shells                            ...    652
Maximum angular momentum                    ...      3
Integral batch strategy                     ... SHARK/LIBINT Hybrid
RI-J (if used) integral strategy            ... SPLIT-RIJ (Revised 2003 algorithm where possible)
Printlevel                                  ...      1
Contraction scheme used                     ... SEGMENTED contraction
Coulomb Range Separation                    ... NOT USED
Exchange Range Separation                   ... NOT USED
Finite Nucleus Model                        ... NOT USED
Auxiliary Coulomb fitting basis             ... AVAILABLE
   # of basis functions in Aux-J            ...   2693
   # of shells in Aux-J                     ...    875
   Maximum angular momentum in Aux-J        ...      4
Auxiliary J/K fitting basis                 ... NOT available
Auxiliary Correlation fitting basis         ... AVAILABLE
   # of basis functions in Aux-C            ...   4113
   # of shells in Aux-C                     ...   1273
   Maximum angular momentum in Aux-C        ...      4
Auxiliary 'external' fitting basis          ... NOT available
Integral threshold                          ...     2.500000e-11
Primitive cut-off                           ...     2.500000e-12
Primitive pair pre-selection threshold      ...     2.500000e-12

Calculating pre-screening integrals         ... done (  0.2 sec) Dimension = 652
Organizing shell pair data                  ... done (  0.7 sec)
Shell pair information
Total number of shell pairs                 ...    212878
Shell pairs after pre-screening             ...     84915
Total number of primitive shell pairs       ...    658380
Primitive shell pairs kept                  ...    167897
          la=0 lb=0:  21136 shell pairs
          la=1 lb=0:  24854 shell pairs
          la=1 lb=1:   7315 shell pairs
          la=2 lb=0:  11940 shell pairs
          la=2 lb=1:   7125 shell pairs
          la=2 lb=2:   1719 shell pairs
          la=3 lb=0:   5560 shell pairs
          la=3 lb=1:   3352 shell pairs
          la=3 lb=2:   1531 shell pairs
          la=3 lb=3:    383 shell pairs

Calculating one electron integrals          ... done (  0.1 sec)
Calculating RI/J V-Matrix + Cholesky decomp.... done (  0.2 sec)
Calculating RI/C V-Matrix + Cholesky decomp.... done (  0.6 sec)
Calculating Nuclear repulsion               ... done (  0.0 sec) ENN=   4892.596552707744 Eh

SHARK setup successfully completed in   2.7 seconds

Maximum memory used throughout the entire GTOINT-calculation: 173.1 MB


           ************************************************************
           *        Program running with 8 parallel MPI-processes     *
           *              working on a common directory               *
           ************************************************************
-------------------------------------------------------------------------------
                                 ORCA SCF
-------------------------------------------------------------------------------

------------
SCF SETTINGS
------------
Hamiltonian:
 Density Functional     Method          .... DFT(GTOs)
 Exchange Functional    Exchange        .... B88
   X-Alpha parameter    XAlpha          ....  0.666667
   Becke's b parameter  XBeta           ....  0.004200
 Correlation Functional Correlation     .... LYP
 LDA part of GGA corr.  LDAOpt          .... VWN-5
 Gradients option       PostSCFGGA      .... off
 Hybrid DFT is turned on
   Fraction HF Exchange ScalHFX         ....  0.690000
   Scaling of DF-GGA-X  ScalDFX         ....  0.310000
   Scaling of DF-GGA-C  ScalDFC         ....  0.540000
   Scaling of DF-LDA-C  ScalLDAC        ....  0.540000
   Perturbative correction              ....  1.000000
   Density functional embedding theory  .... OFF
   NL short-range parameter             .... 12.000000
 RI-approximation to the Coulomb term is turned on
   Number of AuxJ basis functions       .... 2693
   RIJ-COSX (HFX calculated with COS-X)).... on


General Settings:
 Integral files         IntName         .... POZ_1_M06L_def2TZVP_coords
 Hartree-Fock type      HFTyp           .... RHF
 Total Charge           Charge          ....    0
 Multiplicity           Mult            ....    1
 Number of Electrons    NEL             ....  322
 Basis Dimension        Dim             .... 1674
 Nuclear Repulsion      ENuc            ....   4892.5965527077 Eh

Convergence Acceleration:
 DIIS                   CNVDIIS         .... on
   Start iteration      DIISMaxIt       ....    12
   Startup error        DIISStart       ....  0.200000
   # of expansion vecs  DIISMaxEq       ....     5
   Bias factor          DIISBfac        ....   1.050
   Max. coefficient     DIISMaxC        ....  10.000
 Trust-Rad. Augm. Hess. CNVTRAH         .... auto
   Auto Start mean grad. ratio tolernc. ....  1.125000
   Auto Start start iteration           ....    20
   Auto Start num. interpolation iter.  ....    10
   Max. Number of Micro iterations      ....    16
   Max. Number of Macro iterations      .... Maxiter - #DIIS iter
   Number of Davidson start vectors     ....     2
   Converg. threshold I  (grad. norm)   ....   1.000e-05
   Converg. threshold II (energy diff.) ....   1.000e-08
   Grad. Scal. Fac. for Micro threshold ....   0.100
   Minimum threshold for Micro iter.    ....   0.010
   NR start threshold (gradient norm)   ....   0.001
   Initial trust radius                 ....   0.400
   Minimum AH scaling param. (alpha)    ....   1.000
   Maximum AH scaling param. (alpha)    .... 1000.000
   Orbital update algorithm             .... Taylor
   White noise on init. David. guess    .... on
   Maximum white noise                  ....   0.010
   Quad. conv. algorithm                .... NR
 SOSCF                  CNVSOSCF        .... on
   Start iteration      SOSCFMaxIt      ....   150
   Startup grad/error   SOSCFStart      ....  0.003300
 Level Shifting         CNVShift        .... on
   Level shift para.    LevelShift      ....    0.2500
   Turn off err/grad.   ShiftErr        ....    0.0010
 Zerner damping         CNVZerner       .... off
 Static damping         CNVDamp         .... on
   Fraction old density DampFac         ....    0.7000
   Max. Damping (<1)    DampMax         ....    0.9800
   Min. Damping (>=0)   DampMin         ....    0.0000
   Turn off err/grad.   DampErr         ....    0.1000
 Fernandez-Rico         CNVRico         .... off

SCF Procedure:
 Maximum # iterations   MaxIter         ....   125
 SCF integral mode      SCFMode         .... Direct
   Integral package                     .... SHARK and LIBINT hybrid scheme
 Reset frequency        DirectResetFreq ....    20
 Integral Threshold     Thresh          ....  2.500e-11 Eh
 Primitive CutOff       TCut            ....  2.500e-12 Eh

Convergence Tolerance:
 Convergence Check Mode ConvCheckMode   .... Total+1el-Energy
 Convergence forced     ConvForced      .... 1
 Energy Change          TolE            ....  1.000e-08 Eh
 1-El. energy change                    ....  1.000e-05 Eh
 Orbital Gradient       TolG            ....  1.000e-05
 Orbital Rotation angle TolX            ....  1.000e-05
 DIIS Error             TolErr          ....  5.000e-07


Diagonalization of the overlap matrix:
Smallest eigenvalue                        ... 4.003e-06
Time for diagonalization                   ...    0.354 sec
Threshold for overlap eigenvalues          ... 1.000e-08
Number of eigenvalues below threshold      ... 0
Time for construction of square roots      ...    0.222 sec
Total time needed                          ...    0.585 sec

Time for model grid setup =    0.784 sec

------------------------------
INITIAL GUESS: MODEL POTENTIAL
------------------------------
Loading Hartree-Fock densities                     ... done
Calculating cut-offs                               ... done
Initializing the effective Hamiltonian             ... done
Setting up the integral package (SHARK)            ... done
Starting the Coulomb interaction                   ... done (   1.8 sec)
Reading the grid                                   ... done
Mapping shells                                     ... done
Starting the XC term evaluation                    ... done (   0.5 sec)
  promolecular density results
     # of electrons  =    321.990258375
     EX              =   -260.771112322
     EC              =     -1.417903987
     EX+EC           =   -262.189016309
Transforming the Hamiltonian                       ... done (   0.2 sec)
Diagonalizing the Hamiltonian                      ... done (   0.3 sec)
Back transforming the eigenvectors                 ... done (   0.1 sec)
Now organizing SCF variables                       ... done
                      ------------------
                      INITIAL GUESS DONE (   3.8 sec)
                      ------------------
-------------------
DFT GRID GENERATION
-------------------

General Integration Accuracy     IntAcc      ... 4.388
Radial Grid Type                 RadialGrid  ... OptM3 with GC (2021)
Angular Grid (max. ang.)         AngularGrid ... 4 (Lebedev-302)
Angular grid pruning method      GridPruning ... 4 (adaptive)
Weight generation scheme         WeightScheme... Becke
Basis function cutoff            BFCut       ... 1.0000e-11
Integration weight cutoff        WCut        ... 1.0000e-14
Angular grids for H and He will be reduced by one unit
Partially contracted basis set               ... off
Rotationally invariant grid construction     ... off

Total number of grid points                  ...   384041
Total number of batches                      ...     6048
Average number of points per batch           ...       63
Average number of grid points per atom       ...     4861
Time for grid setup =    3.033 sec

--------------------
COSX GRID GENERATION
--------------------

GRIDX 1
-------
General Integration Accuracy     IntAcc      ... 3.816
Radial Grid Type                 RadialGrid  ... OptM3 with GC (2021)
Angular Grid (max. ang.)         AngularGrid ... 1 (Lebedev-50)
Angular grid pruning method      GridPruning ... 4 (adaptive)
Weight generation scheme         WeightScheme... Becke
Basis function cutoff            BFCut       ... 1.0000e-11
Integration weight cutoff        WCut        ... 1.0000e-14
Angular grids for H and He will be reduced by one unit
Partially contracted basis set               ... on
Rotationally invariant grid construction     ... off

Total number of grid points                  ...    48766
Total number of batches                      ...      787
Average number of points per batch           ...       61
Average number of grid points per atom       ...      617
UseSFitting                                  ... on

GRIDX 2
-------
General Integration Accuracy     IntAcc      ... 4.020
Radial Grid Type                 RadialGrid  ... OptM3 with GC (2021)
Angular Grid (max. ang.)         AngularGrid ... 2 (Lebedev-110)
Angular grid pruning method      GridPruning ... 4 (adaptive)
Weight generation scheme         WeightScheme... Becke
Basis function cutoff            BFCut       ... 1.0000e-11
Integration weight cutoff        WCut        ... 1.0000e-14
Angular grids for H and He will be reduced by one unit
Partially contracted basis set               ... on
Rotationally invariant grid construction     ... off

Total number of grid points                  ...   106025
Total number of batches                      ...     1697
Average number of points per batch           ...       62
Average number of grid points per atom       ...     1342
UseSFitting                                  ... on

GRIDX 3
-------
General Integration Accuracy     IntAcc      ... 4.338
Radial Grid Type                 RadialGrid  ... OptM3 with GC (2021)
Angular Grid (max. ang.)         AngularGrid ... 3 (Lebedev-194)
Angular grid pruning method      GridPruning ... 4 (adaptive)
Weight generation scheme         WeightScheme... Becke
Basis function cutoff            BFCut       ... 1.0000e-11
Integration weight cutoff        WCut        ... 1.0000e-14
Angular grids for H and He will be reduced by one unit
Partially contracted basis set               ... on
Rotationally invariant grid construction     ... off

Total number of grid points                  ...   231991
Total number of batches                      ...     3665
Average number of points per batch           ...       63
Average number of grid points per atom       ...     2937
UseSFitting                                  ... on

Time for X-Grid setup             =    4.586 sec


--------------------
CPCM SOLVATION MODEL
--------------------
CPCM parameters:
  Epsilon                                         ...      37.7810
  Refrac                                          ...       1.4380
  Rsolv                                           ...       1.3000
  Surface type                                    ... GAUSSIAN VDW
  Epsilon function type                           ...         CPCM
Solvent:                                     ... N,N-DIMETHYLACETAMIDE
SMD-CDS solvent descriptors:
  Soln                                       ...    1.4380
  Soln25                                     ...    1.4358
  Sola                                       ...    0.0000
  Solb                                       ...    0.7800
  Solg                                       ...   47.6200
  Solc                                       ...    0.0000
  Solh                                       ...    0.0000
Radii:
 Radius for C  used is    3.4960 Bohr (=   1.8500 Ang.)
 Radius for H  used is    2.2677 Bohr (=   1.2000 Ang.)
 Radius for N  used is    3.5716 Bohr (=   1.8900 Ang.)
 Radius for O  used is    4.3350 Bohr (=   2.2940 Ang.)
Calculating surface                               ...        done! (  0.0s)
GEPOL surface points                              ...         4316
GEPOL Volume                                      ...    4249.6849
GEPOL Surface-area                                ...    2229.2559
Calculating surface distance matrix               ...        done! (  0.1s)
Performing Cholesky decomposition & store         ...        done! (  0.5s)
Overall time for CPCM initialization              ...                 0.6s
--------------
SCF ITERATIONS
--------------
ITER       Energy         Delta-E        Max-DP      RMS-DP      [F,P]     Damp
               ***  Starting incremental Fock matrix formation  ***
  0  -1894.7302340189   0.000000000000 0.04562629  0.00045285  0.1595285 0.7000
  1  -1895.1898545565  -0.459620537551 0.04456097  0.00039327  0.0999128 0.7000
                               ***Turning on DIIS***
  2  -1895.4612058578  -0.271351301336 0.11731046  0.00094912  0.0603218 0.0000
  3  -1895.9601688676  -0.498963009726 0.02597902  0.00022570  0.0280902 0.0000
  4  -1896.0004979909  -0.040329123335 0.01600362  0.00010206  0.0078897 0.0000
                      *** Initiating the SOSCF procedure ***
                           *** Shutting down DIIS ***
                      *** Re-Reading the Fockian *** 
                      *** Removing any level shift *** 
ITER      Energy       Delta-E        Grad      Rot      Max-DP    RMS-DP
  5  -1896.00202989  -0.0015319026  0.002146  0.002146  0.003397  0.000039
               *** Restarting incremental Fock matrix formation ***
  6  -1896.00190803   0.0001218655  0.001672  0.006771  0.023545  0.000232
  7  -1896.00201438  -0.0001063556  0.000401  0.004395  0.009211  0.000093
  8  -1896.00203378  -0.0000193992  0.000246  0.000716  0.007847  0.000077
  9  -1896.00204172  -0.0000079363  0.000058  0.000259  0.001100  0.000011
 10  -1896.00204227  -0.0000005546  0.000025  0.000109  0.000344  0.000004
 11  -1896.00204241  -0.0000001335  0.000009  0.000057  0.000427  0.000003
 12  -1896.00204241   0.0000000005  0.000005  0.000013  0.000080  0.000001
                  ***Gradient check signals convergence***
              ***Rediagonalizing the Fockian in SOSCF/NRSCF***

               *****************************************************
               *                     SUCCESS                       *
               *           SCF CONVERGED AFTER  13 CYCLES          *
               *****************************************************

Old exchange energy                            =   -182.949702274 Eh
New exchange energy                            =   -182.949542069 Eh
Exchange energy change after final integration =      0.000160205 Eh
Total energy after final integration           =  -1896.001882346 Eh
Final COS-X integration done in                =    95.757 sec

SMD CDS free energy correction energy :                -7.90873     Kcal/mol
Total Energy after SMD CDS correction =             -1896.014485710 Eh

----------------
TOTAL SCF ENERGY
----------------

Total Energy       :        -1896.01448571 Eh          -51593.17710 eV

Components:
Nuclear Repulsion  :         4892.59655271 Eh          133134.32062 eV
Electronic Energy  :        -6788.61103842 Eh         -184727.49772 eV
One Electron Energy:       -12305.96764592 Eh         -334862.40372 eV
Two Electron Energy:         5517.35660751 Eh          150134.90600 eV
Max COSX asymmetry :            0.00000616 Eh               0.00017 eV
CPCM Dielectric    :           -0.04153399 Eh              -1.13020 eV
SMD CDS (Gcds)     :           -0.01260336 Eh              -0.34295 eV

Virial components:
Potential Energy   :        -3786.97149008 Eh         -103048.73314 eV
Kinetic Energy     :         1890.95700437 Eh           51455.55604 eV
Virial Ratio       :            2.00267456


DFT components:
N(Alpha)           :      160.999817960196 electrons
N(Beta)            :      160.999817960196 electrons
N(Total)           :      321.999635920393 electrons
E(X)               :      -82.294785082012 Eh       
E(C)               :       -5.924192908626 Eh       
E(XC)              :      -88.218977990638 Eh       
DFET-embed. en.    :        0.000000000000 Eh       
CPCM Solvation Model Properties:
Surface-charge          :           -0.10021985
Charge-correction       :            0.00049284 Eh               0.01341 eV
Free-energy (cav+disp)  :           -0.01260336 Eh              -0.34295 eV

---------------
SCF CONVERGENCE
---------------

  Last Energy change         ...   -1.4450e-07  Tolerance :   1.0000e-08
  Last MAX-Density change    ...    2.1094e-15  Tolerance :   1.0000e-07
  Last RMS-Density change    ...    1.0853e-17  Tolerance :   5.0000e-09
  Last Orbital Gradient      ...    1.3286e-06  Tolerance :   1.0000e-05
  Last Orbital Rotation      ...    4.2139e-06  Tolerance :   1.0000e-05

             **** THE GBW FILE WAS UPDATED (POZ_1_M06L_def2TZVP_coords.gbw) ****
             **** DENSITY POZ_1_M06L_def2TZVP_coords.scfp WAS UPDATED ****
             **** ENERGY FILE WAS UPDATED (POZ_1_M06L_def2TZVP_coords.en.tmp) ****
             **** THE GBW FILE WAS UPDATED (POZ_1_M06L_def2TZVP_coords.gbw) ****
             **** DENSITY POZ_1_M06L_def2TZVP_coords.scfp WAS UPDATED ****
----------------
ORBITAL ENERGIES
----------------

  NO   OCC          E(Eh)            E(eV) 
   0   2.0000     -20.057700      -545.7978 
   1   2.0000     -15.123819      -411.5400 
   2   2.0000     -10.897319      -296.5311 
   3   2.0000     -10.897219      -296.5284 
   4   2.0000     -10.883029      -296.1423 
   5   2.0000     -10.883001      -296.1415 
   6   2.0000     -10.872258      -295.8492 
   7   2.0000     -10.843570      -295.0685 
   8   2.0000     -10.842007      -295.0260 
   9   2.0000     -10.840180      -294.9763 
  10   2.0000     -10.840159      -294.9757 
  11   2.0000     -10.839875      -294.9680 
  12   2.0000     -10.839796      -294.9658 
  13   2.0000     -10.838181      -294.9219 
  14   2.0000     -10.838095      -294.9196 
  15   2.0000     -10.837936      -294.9152 
  16   2.0000     -10.837910      -294.9145 
  17   2.0000     -10.833941      -294.8065 
  18   2.0000     -10.832975      -294.7802 
  19   2.0000     -10.830629      -294.7164 
  20   2.0000     -10.830471      -294.7121 
  21   2.0000     -10.830282      -294.7070 
  22   2.0000     -10.829304      -294.6804 
  23   2.0000     -10.829242      -294.6787 
  24   2.0000     -10.829197      -294.6774 
  25   2.0000     -10.828494      -294.6583 
  26   2.0000     -10.828411      -294.6560 
  27   2.0000     -10.828225      -294.6510 
  28   2.0000     -10.826619      -294.6073 
  29   2.0000     -10.826500      -294.6040 
  30   2.0000     -10.826478      -294.6034 
  31   2.0000     -10.826382      -294.6008 
  32   2.0000     -10.826350      -294.6000 
  33   2.0000     -10.826335      -294.5996 
  34   2.0000     -10.826244      -294.5971 
  35   2.0000     -10.826235      -294.5968 
  36   2.0000     -10.826161      -294.5948 
  37   2.0000     -10.826080      -294.5926 
  38   2.0000     -10.825433      -294.5750 
  39   2.0000     -10.825289      -294.5711 
  40   2.0000     -10.825278      -294.5708 
  41   2.0000     -10.825276      -294.5707 
  42   2.0000     -10.825204      -294.5688 
  43   2.0000     -10.825134      -294.5669 
  44   2.0000     -10.825094      -294.5658 
  45   2.0000     -10.825015      -294.5636 
  46   2.0000     -10.824222      -294.5420 
  47   2.0000     -10.824112      -294.5391 
  48   2.0000      -1.311652       -35.6919 
  49   2.0000      -1.179882       -32.1062 
  50   2.0000      -1.070345       -29.1256 
  51   2.0000      -1.069472       -29.1018 
  52   2.0000      -1.063502       -28.9394 
  53   2.0000      -1.056912       -28.7600 
  54   2.0000      -1.044914       -28.4335 
  55   2.0000      -1.034636       -28.1539 
  56   2.0000      -1.023403       -27.8482 
  57   2.0000      -1.007327       -27.4107 
  58   2.0000      -0.972584       -26.4654 
  59   2.0000      -0.963262       -26.2117 
  60   2.0000      -0.949246       -25.8303 
  61   2.0000      -0.942560       -25.6484 
  62   2.0000      -0.929242       -25.2859 
  63   2.0000      -0.921041       -25.0628 
  64   2.0000      -0.919805       -25.0292 
  65   2.0000      -0.915166       -24.9029 
  66   2.0000      -0.913088       -24.8464 
  67   2.0000      -0.910387       -24.7729 
  68   2.0000      -0.910262       -24.7695 
  69   2.0000      -0.900454       -24.5026 
  70   2.0000      -0.887854       -24.1597 
  71   2.0000      -0.878579       -23.9074 
  72   2.0000      -0.853385       -23.2218 
  73   2.0000      -0.802858       -21.8469 
  74   2.0000      -0.800846       -21.7921 
  75   2.0000      -0.773028       -21.0351 
  76   2.0000      -0.768310       -20.9068 
  77   2.0000      -0.767634       -20.8884 
  78   2.0000      -0.762095       -20.7377 
  79   2.0000      -0.757361       -20.6088 
  80   2.0000      -0.757223       -20.6051 
  81   2.0000      -0.741591       -20.1797 
  82   2.0000      -0.729828       -19.8596 
  83   2.0000      -0.719258       -19.5720 
  84   2.0000      -0.718525       -19.5521 
  85   2.0000      -0.716968       -19.5097 
  86   2.0000      -0.712287       -19.3823 
  87   2.0000      -0.691006       -18.8032 
  88   2.0000      -0.685404       -18.6508 
  89   2.0000      -0.655705       -17.8426 
  90   2.0000      -0.648527       -17.6473 
  91   2.0000      -0.647761       -17.6265 
  92   2.0000      -0.640577       -17.4310 
  93   2.0000      -0.624146       -16.9839 
  94   2.0000      -0.623547       -16.9676 
  95   2.0000      -0.616548       -16.7771 
  96   2.0000      -0.609782       -16.5930 
  97   2.0000      -0.603204       -16.4140 
  98   2.0000      -0.587816       -15.9953 
  99   2.0000      -0.587013       -15.9734 
 100   2.0000      -0.583551       -15.8792 
 101   2.0000      -0.580011       -15.7829 
 102   2.0000      -0.578961       -15.7543 
 103   2.0000      -0.572822       -15.5873 
 104   2.0000      -0.558311       -15.1924 
 105   2.0000      -0.557783       -15.1780 
 106   2.0000      -0.553150       -15.0520 
 107   2.0000      -0.549013       -14.9394 
 108   2.0000      -0.547165       -14.8891 
 109   2.0000      -0.542397       -14.7594 
 110   2.0000      -0.539855       -14.6902 
 111   2.0000      -0.538330       -14.6487 
 112   2.0000      -0.536866       -14.6089 
 113   2.0000      -0.534009       -14.5311 
 114   2.0000      -0.532075       -14.4785 
 115   2.0000      -0.531059       -14.4508 
 116   2.0000      -0.527387       -14.3509 
 117   2.0000      -0.526875       -14.3370 
 118   2.0000      -0.514815       -14.0088 
 119   2.0000      -0.514204       -13.9922 
 120   2.0000      -0.508008       -13.8236 
 121   2.0000      -0.506704       -13.7881 
 122   2.0000      -0.490436       -13.3454 
 123   2.0000      -0.490186       -13.3386 
 124   2.0000      -0.488346       -13.2886 
 125   2.0000      -0.486640       -13.2422 
 126   2.0000      -0.482847       -13.1389 
 127   2.0000      -0.478958       -13.0331 
 128   2.0000      -0.475273       -12.9328 
 129   2.0000      -0.469271       -12.7695 
 130   2.0000      -0.463197       -12.6042 
 131   2.0000      -0.461298       -12.5526 
 132   2.0000      -0.454303       -12.3622 
 133   2.0000      -0.451715       -12.2918 
 134   2.0000      -0.447868       -12.1871 
 135   2.0000      -0.445408       -12.1202 
 136   2.0000      -0.439338       -11.9550 
 137   2.0000      -0.438709       -11.9379 
 138   2.0000      -0.436349       -11.8737 
 139   2.0000      -0.432919       -11.7803 
 140   2.0000      -0.432193       -11.7606 
 141   2.0000      -0.424387       -11.5482 
 142   2.0000      -0.417320       -11.3558 
 143   2.0000      -0.416217       -11.3258 
 144   2.0000      -0.413490       -11.2516 
 145   2.0000      -0.411706       -11.2031 
 146   2.0000      -0.364741        -9.9251 
 147   2.0000      -0.357496        -9.7280 
 148   2.0000      -0.344269        -9.3680 
 149   2.0000      -0.326162        -8.8753 
 150   2.0000      -0.316179        -8.6037 
 151   2.0000      -0.314559        -8.5596 
 152   2.0000      -0.314209        -8.5501 
 153   2.0000      -0.311240        -8.4693 
 154   2.0000      -0.311066        -8.4645 
 155   2.0000      -0.301536        -8.2052 
 156   2.0000      -0.297324        -8.0906 
 157   2.0000      -0.276965        -7.5366 
 158   2.0000      -0.271981        -7.4010 
 159   2.0000      -0.259941        -7.0733 
 160   2.0000      -0.222068        -6.0428 
 161   0.0000       0.014783         0.4023 
 162   0.0000       0.021797         0.5931 
 163   0.0000       0.026148         0.7115 
 164   0.0000       0.047894         1.3033 
 165   0.0000       0.056696         1.5428 
 166   0.0000       0.058325         1.5871 
 167   0.0000       0.067706         1.8424 
 168   0.0000       0.068719         1.8699 
 169   0.0000       0.070977         1.9314 
 170   0.0000       0.079074         2.1517 
 171   0.0000       0.082289         2.2392 
 172   0.0000       0.090401         2.4599 
 173   0.0000       0.100838         2.7439 
 174   0.0000       0.115596         3.1455 
 175   0.0000       0.121063         3.2943 
 176   0.0000       0.123010         3.3473 
 177   0.0000       0.126171         3.4333 
 178   0.0000       0.126227         3.4348 
 179   0.0000       0.130196         3.5428 
 180   0.0000       0.132252         3.5987 
 181   0.0000       0.133751         3.6395 
 182   0.0000       0.136622         3.7177 
 183   0.0000       0.139952         3.8083 
 184   0.0000       0.140435         3.8214 
 185   0.0000       0.141313         3.8453 
 186   0.0000       0.149612         4.0712 
 187   0.0000       0.151303         4.1172 
 188   0.0000       0.156990         4.2719 
 189   0.0000       0.158387         4.3099 
 190   0.0000       0.158635         4.3167 
 191   0.0000       0.164371         4.4728 
 192   0.0000       0.169334         4.6078 
 193   0.0000       0.174050         4.7361 
 194   0.0000       0.174650         4.7525 
 195   0.0000       0.179067         4.8726 
 196   0.0000       0.179682         4.8894 
 197   0.0000       0.180259         4.9051 
 198   0.0000       0.183870         5.0033 
 199   0.0000       0.185042         5.0353 
 200   0.0000       0.185812         5.0562 
 201   0.0000       0.192335         5.2337 
 202   0.0000       0.192717         5.2441 
 203   0.0000       0.196633         5.3507 
 204   0.0000       0.198116         5.3910 
 205   0.0000       0.201162         5.4739 
 206   0.0000       0.203592         5.5400 
 207   0.0000       0.205139         5.5821 
 208   0.0000       0.207844         5.6557 
 209   0.0000       0.208719         5.6795 
 210   0.0000       0.215464         5.8631 
 211   0.0000       0.217248         5.9116 
 212   0.0000       0.218718         5.9516 
 213   0.0000       0.224511         6.1093 
 214   0.0000       0.227880         6.2009 
 215   0.0000       0.230977         6.2852 
 216   0.0000       0.240220         6.5367 
 217   0.0000       0.242405         6.5962 
 218   0.0000       0.245494         6.6802 
 219   0.0000       0.248116         6.7516 
 220   0.0000       0.251380         6.8404 
 221   0.0000       0.254748         6.9320 
 222   0.0000       0.259380         7.0581 
 223   0.0000       0.260899         7.0994 
 224   0.0000       0.262172         7.1341 
 225   0.0000       0.266029         7.2390 
 226   0.0000       0.270066         7.3489 
 227   0.0000       0.272096         7.4041 
 228   0.0000       0.273689         7.4475 
 229   0.0000       0.274378         7.4662 
 230   0.0000       0.275441         7.4951 
 231   0.0000       0.276609         7.5269 
 232   0.0000       0.277485         7.5507 
 233   0.0000       0.279609         7.6086 
 234   0.0000       0.281763         7.6672 
 235   0.0000       0.282863         7.6971 
 236   0.0000       0.285048         7.7565 
 237   0.0000       0.287236         7.8161 
 238   0.0000       0.288464         7.8495 
 239   0.0000       0.291584         7.9344 
 240   0.0000       0.293409         7.9841 
 241   0.0000       0.295090         8.0298 
 242   0.0000       0.297843         8.1047 
 243   0.0000       0.301347         8.2001 
 244   0.0000       0.303203         8.2506 
 245   0.0000       0.304707         8.2915 
 246   0.0000       0.307191         8.3591 
 247   0.0000       0.308888         8.4053 
 248   0.0000       0.311556         8.4779 
 249   0.0000       0.312859         8.5133 
 250   0.0000       0.314739         8.5645 
 251   0.0000       0.316524         8.6131 
 252   0.0000       0.321919         8.7599 
 253   0.0000       0.323553         8.8043 
 254   0.0000       0.324380         8.8268 
 255   0.0000       0.327594         8.9143 
 256   0.0000       0.329498         8.9661 
 257   0.0000       0.330000         8.9798 
 258   0.0000       0.332552         9.0492 
 259   0.0000       0.332701         9.0532 
 260   0.0000       0.336595         9.1592 
 261   0.0000       0.337460         9.1828 
 262   0.0000       0.337948         9.1960 
 263   0.0000       0.340277         9.2594 
 264   0.0000       0.340857         9.2752 
 265   0.0000       0.345027         9.3887 
[...]
   160a -> 167a  :     0.029462 
   160a -> 169a  :     0.031665 
   160a -> 171a  :     0.037476 
   160a -> 174a  :     0.099978 
   160a -> 175a  :     0.029720 
   160a -> 176a  :     0.040871 

STATE 22:  E=   0.167442 au      4.556 eV    36749.2 cm**-1 <S**2> =   0.000000
   151a -> 161a  :     0.010142 
   153a -> 161a  :     0.052656 
   153a -> 163a  :     0.015875 
   154a -> 163a  :     0.040215 
   157a -> 161a  :     0.014835 
   157a -> 166a  :     0.019033 
   157a -> 174a  :     0.024860 
   159a -> 165a  :     0.027053 
   160a -> 167a  :     0.040468 
   160a -> 169a  :     0.027192 
   160a -> 174a  :     0.334449 
   160a -> 175a  :     0.045083 
   160a -> 176a  :     0.068404 
   160a -> 179a  :     0.011698 
   160a -> 181a  :     0.016163 
   160a -> 182a  :     0.026498 
   160a -> 188a  :     0.015210 

STATE 23:  E=   0.206742 au      5.626 eV    45374.7 cm**-1 <S**2> =   0.000000
   146a -> 161a  :     0.032004 
   148a -> 163a  :     0.054800 
   149a -> 161a  :     0.031244 
   149a -> 164a  :     0.021492 
   149a -> 169a  :     0.017476 
   150a -> 161a  :     0.014965 
   150a -> 167a  :     0.023420 
   151a -> 165a  :     0.056313 
   152a -> 166a  :     0.043996 
   153a -> 163a  :     0.015086 
   153a -> 168a  :     0.024443 
   153a -> 170a  :     0.027670 
   154a -> 161a  :     0.013014 
   154a -> 169a  :     0.025487 
   154a -> 171a  :     0.020012 
   156a -> 163a  :     0.029480 
   156a -> 165a  :     0.038281 
   156a -> 168a  :     0.060682 
   156a -> 170a  :     0.038930 
   157a -> 163a  :     0.023187 
   157a -> 168a  :     0.017896 
   157a -> 172a  :     0.027557 
   158a -> 161a  :     0.041050 
   159a -> 175a  :     0.028353 
   160a -> 168a  :     0.036240 
   160a -> 170a  :     0.013321 
   160a -> 184a  :     0.028182 

STATE 24:  E=   0.168778 au      4.593 eV    37042.4 cm**-1 <S**2> =   0.000000
   149a -> 161a  :     0.081819 
   149a -> 167a  :     0.016473 
   153a -> 163a  :     0.016187 
   154a -> 161a  :     0.013406 
   155a -> 161a  :     0.019514 
   155a -> 164a  :     0.127279 
   155a -> 166a  :     0.024090 
   156a -> 163a  :     0.030901 
   156a -> 168a  :     0.014911 
   156a -> 172a  :     0.019910 
   157a -> 163a  :     0.012013 
   157a -> 165a  :     0.055256 
   157a -> 172a  :     0.029400 
   158a -> 161a  :     0.111601 
   158a -> 164a  :     0.015655 
   158a -> 167a  :     0.018250 
   159a -> 162a  :     0.014247 
   159a -> 164a  :     0.045418 
   159a -> 166a  :     0.018547 
   160a -> 165a  :     0.022789 
   160a -> 168a  :     0.025161 
   160a -> 174a  :     0.018203 

STATE 25:  E=   0.157212 au      4.278 eV    34504.0 cm**-1 <S**2> =   0.000000
   147a -> 162a  :     0.014443 
   149a -> 161a  :     0.036055 
   149a -> 165a  :     0.016181 
   149a -> 168a  :     0.019573 
   154a -> 161a  :     0.011887 
   154a -> 163a  :     0.011882 
   156a -> 161a  :     0.026220 
   156a -> 163a  :     0.024054 
   156a -> 164a  :     0.038840 
   156a -> 169a  :     0.019744 
   156a -> 171a  :     0.019254 
   157a -> 163a  :     0.024720 
   157a -> 164a  :     0.032436 
   157a -> 169a  :     0.021600 
   158a -> 161a  :     0.194526 
   158a -> 167a  :     0.025331 
   158a -> 173a  :     0.025009 
   159a -> 161a  :     0.028064 
   159a -> 162a  :     0.059388 
   159a -> 172a  :     0.011066 
   160a -> 167a  :     0.077158 
   160a -> 168a  :     0.015798 

STATE 26:  E=   0.186880 au      5.085 eV    41015.4 cm**-1 <S**2> =   0.000000
   149a -> 161a  :     0.017209 
   150a -> 167a  :     0.011966 
   151a -> 165a  :     0.031431 
   151a -> 170a  :     0.012100 
   152a -> 166a  :     0.031537 
   153a -> 163a  :     0.020017 
   154a -> 169a  :     0.010029 
   155a -> 164a  :     0.204570 
   155a -> 166a  :     0.040774 
   155a -> 169a  :     0.011973 
   156a -> 163a  :     0.026404 
   157a -> 163a  :     0.026893 
   157a -> 168a  :     0.017418 
   158a -> 161a  :     0.027137 
   158a -> 162a  :     0.013294 
   159a -> 161a  :     0.027552 
   159a -> 162a  :     0.072813 
   159a -> 164a  :     0.019597 
   159a -> 169a  :     0.011281 
   160a -> 167a  :     0.016575 
   160a -> 168a  :     0.015446 
   160a -> 172a  :     0.014838 
   160a -> 184a  :     0.012762 

STATE 27:  E=   0.158551 au      4.314 eV    34797.8 cm**-1 <S**2> =   0.000000
   147a -> 162a  :     0.017589 
   149a -> 165a  :     0.017221 
   149a -> 168a  :     0.020128 
   155a -> 164a  :     0.020871 
   156a -> 161a  :     0.026722 
   156a -> 164a  :     0.041651 
   156a -> 169a  :     0.020188 
   156a -> 171a  :     0.019264 
   157a -> 164a  :     0.030991 
   157a -> 169a  :     0.024084 
   158a -> 161a  :     0.295162 
   158a -> 162a  :     0.012792 
   158a -> 167a  :     0.038502 
   158a -> 173a  :     0.037054 
   159a -> 162a  :     0.011444 
   159a -> 164a  :     0.012578 
   159a -> 168a  :     0.011266 
   159a -> 172a  :     0.011830 
   160a -> 167a  :     0.076011 

STATE 28:  E=   0.140843 au      3.833 eV    30911.4 cm**-1 <S**2> =   0.000000
   147a -> 162a  :     0.035800 
   150a -> 162a  :     0.065583 
   155a -> 162a  :     0.018278 
   157a -> 163a  :     0.010260 
   157a -> 168a  :     0.010035 
   158a -> 161a  :     0.077507 
   158a -> 162a  :     0.015302 
   158a -> 164a  :     0.019501 
   158a -> 173a  :     0.034882 
   159a -> 162a  :     0.562748 

STATE 29:  E=   0.167755 au      4.565 eV    36818.0 cm**-1 <S**2> =   0.000000
   149a -> 161a  :     0.015643 
   151a -> 161a  :     0.071373 
   151a -> 163a  :     0.072664 
   152a -> 161a  :     0.029027 
   152a -> 163a  :     0.028058 
   153a -> 161a  :     0.039397 
   153a -> 163a  :     0.047422 
   153a -> 167a  :     0.023432 
   153a -> 172a  :     0.010236 
   157a -> 163a  :     0.012151 
   157a -> 165a  :     0.019174 
   157a -> 166a  :     0.020021 
   157a -> 168a  :     0.015468 
   159a -> 165a  :     0.011603 
   159a -> 166a  :     0.011098 
   159a -> 168a  :     0.020118 
   159a -> 169a  :     0.033593 
   159a -> 170a  :     0.020967 
   160a -> 169a  :     0.023201 
   160a -> 170a  :     0.140605 
   160a -> 171a  :     0.087045 
   160a -> 172a  :     0.013186 
   160a -> 174a  :     0.010703 

STATE 30:  E=   0.167930 au      4.570 eV    36856.3 cm**-1 <S**2> =   0.000000
   149a -> 161a  :     0.016498 
   151a -> 161a  :     0.040536 
   151a -> 163a  :     0.020588 
   152a -> 161a  :     0.061742 
   152a -> 163a  :     0.075766 
   154a -> 161a  :     0.029842 
   154a -> 163a  :     0.039734 
   154a -> 167a  :     0.017378 
   154a -> 172a  :     0.010706 
   157a -> 163a  :     0.015907 
   157a -> 165a  :     0.017950 
   157a -> 166a  :     0.016746 
   157a -> 169a  :     0.012152 
   159a -> 165a  :     0.010870 
   159a -> 168a  :     0.022081 
   159a -> 169a  :     0.023809 
   159a -> 170a  :     0.022251 
   160a -> 169a  :     0.027821 
   160a -> 170a  :     0.093685 
   160a -> 171a  :     0.122425 
   160a -> 172a  :     0.010897 
   160a -> 174a  :     0.026844 


-------------------------
TD-DFT-EXCITATION SPECTRA
-------------------------

Center of mass = (  0.0001,  0.0175, -0.0088)
Calculating the Dipole integrals                  ... done
Transforming integrals                            ... done
Calculating the Linear Momentum integrals         ... done
Transforming integrals                            ... done
Calculating angular momentum integrals            ... done
Transforming integrals                            ... done

-----------------------------------------------------------------------------
         ABSORPTION SPECTRUM VIA TRANSITION ELECTRIC DIPOLE MOMENTS
-----------------------------------------------------------------------------
State   Energy    Wavelength  fosc         T2        TX        TY        TZ  
        (cm-1)      (nm)                 (au**2)    (au)      (au)      (au) 
-----------------------------------------------------------------------------
   1   21003.5    476.1   0.938650463  14.71255   3.83556  -0.02414   0.02131
   2   28888.7    346.2   0.763985434   8.70629  -0.01059  -2.94103   0.23777
   3   13539.2    738.6   0.001129504   0.02746   0.14723   0.07606  -0.00153
   4   22691.2    440.7   0.270036924   3.91779  -1.97858  -0.02997  -0.04599
   5   35878.9    278.7   0.023331042   0.21408   0.00288  -0.46258   0.00929
   6   26339.8    379.7   0.076060256   0.95065   0.07584  -0.96468   0.11956
   7   32027.7    312.2   0.529141162   5.43903  -2.33209  -0.01970   0.00440
   8   28963.4    345.3   0.000637117   0.00724   0.02762  -0.01511  -0.07906
   9   29542.2    338.5   0.003344159   0.03727   0.00540   0.18264  -0.06229
  10   29190.3    342.6   0.004792783   0.05405  -0.23132   0.00232  -0.02320
  11   31456.5    317.9   0.003044164   0.03186   0.00065  -0.06876  -0.16471
  12   31985.7    312.6   0.000046799   0.00048   0.02016  -0.00372   0.00782
  13   32790.2    305.0   0.000243538   0.00245   0.00206   0.03582  -0.03402
  14   21635.9    462.2   0.000091883   0.00140   0.03639   0.00800   0.00319
  15   33869.3    295.3   0.330052525   3.20813  -1.78803  -0.01657  -0.10403
  16   32238.0    310.2   0.004828897   0.04931  -0.14511   0.11409  -0.12345
  17   39587.1    252.6   1.115777280   9.27896  -0.16370  -0.89795  -2.90618
  18   30664.1    326.1   0.141981263   1.52432   1.15603  -0.09325  -0.42333
  19   34619.8    288.9   0.016939614   0.16108  -0.06051   0.39611   0.02288
  20   36324.6    275.3   0.034893093   0.31624   0.02360   0.15032   0.54137
  21   40393.3    247.6   0.371258333   3.02582  -1.71768   0.07392   0.26441
  22   36749.2    272.1   0.089766818   0.80416   0.68801   0.07935   0.56966
  23   45374.7    220.4   0.132415303   0.96073  -0.04080  -0.97898  -0.02568
  24   37042.4    270.0   0.189386058   1.68315  -0.12096   1.05013  -0.75216
  25   34504.0    289.8   0.155970725   1.48816   1.16902  -0.30344  -0.17171
  26   41015.4    243.8   0.582974255   4.67927  -0.54000  -2.06444   0.35461
  27   34797.8    287.4   0.203770811   1.92781   1.19880  -0.56818  -0.40972
  28   30911.4    323.5   0.061258669   0.65242   0.07669  -0.46424   0.65652
  29   36818.0    271.6   0.400849938   3.58424  -0.61088   1.56723   0.86882
  30   36856.3    271.3   0.430457323   3.84498  -0.68701  -1.30068   1.29662

-----------------------------------------------------------------------------
         ABSORPTION SPECTRUM VIA TRANSITION VELOCITY DIPOLE MOMENTS
-----------------------------------------------------------------------------
State   Energy    Wavelength   fosc        P2         PX        PY        PZ  
        (cm-1)      (nm)                 (au**2)     (au)      (au)      (au) 
-----------------------------------------------------------------------------
   1   21003.5    476.1   1.882295137   0.27020  -0.51979   0.00322  -0.00281
   2   28888.7    346.2   1.080681604   0.21337   0.00159   0.46040  -0.03734
   3   13539.2    738.6   0.008006263   0.00074  -0.02436  -0.01214   0.00024
   4   22691.2    440.7   0.707460299   0.10972   0.33110   0.00504   0.00793
   5   35878.9    278.7   0.026548171   0.00651  -0.00048   0.08065  -0.00216
   6   26339.8    379.7   0.156814724   0.02823  -0.01303   0.16625  -0.02048
   7   32027.7    312.2   0.768871930   0.16830   0.41023   0.00346  -0.00083
   8   28963.4    345.3   0.000953003   0.00019  -0.00487   0.00228   0.01264
   9   29542.2    338.5   0.006710018   0.00135  -0.00119  -0.03490   0.01165
  10   29190.3    342.6   0.010136157   0.00202   0.04474  -0.00055   0.00453
  11   31456.5    317.9   0.005819545   0.00125  -0.00022   0.01344   0.03272
  12   31985.7    312.6   0.000111187   0.00002  -0.00478   0.00084  -0.00086
  13   32790.2    305.0   0.000424933   0.00010  -0.00043  -0.00688   0.00691
  14   21635.9    462.2   0.000595113   0.00009  -0.00920  -0.00169  -0.00078
  15   33869.3    295.3   0.601343022   0.13920   0.37245   0.00353   0.02167
  16   32238.0    310.2   0.009755820   0.00215   0.03039  -0.02382   0.02566
  17   39587.1    252.6   1.610008026   0.43560   0.03540   0.19438   0.62973
  18   30664.1    326.1   0.341557023   0.07158  -0.25041   0.02027   0.09201
  19   34619.8    288.9   0.032833856   0.00777   0.01305  -0.08702  -0.00506
  20   36324.6    275.3   0.057476902   0.01427  -0.00479  -0.03295  -0.11472
  21   40393.3    247.6   0.540338609   0.14917   0.38206  -0.01648  -0.05410
  22   36749.2    272.1   0.154622825   0.03884  -0.15578  -0.01776  -0.11938
  23   45374.7    220.4   0.157793269   0.04893   0.00929   0.22095   0.00523
  24   37042.4    270.0   0.346012310   0.08760   0.02801  -0.24059   0.17009
  25   34504.0    289.8   0.335497979   0.07912  -0.26976   0.06919   0.03946
  26   41015.4    243.8   0.890829415   0.24972   0.12475   0.47692  -0.08188
  27   34797.8    287.4   0.433557522   0.10311  -0.27699   0.13215   0.09446
  28   30911.4    323.5   0.166791956   0.03524  -0.01775   0.10754  -0.15283
  29   36818.0    271.6   0.790559937   0.19893   0.14362  -0.36807  -0.20696
  30   36856.3    271.3   0.851781646   0.21456   0.16202   0.30518  -0.30851

-------------------------------------------------------------------
                             CD SPECTRUM
-------------------------------------------------------------------
State  Energy     Wavelength     R         MX        MY        MZ   
       (cm-1)       (nm)     (1e40*cgs)   (au)      (au)      (au)  
-------------------------------------------------------------------
   1   21003.5    476.1     71.53970   0.04642  -0.35120  -1.63247
   2   28888.7    346.2     19.69879  -0.18109  -0.01255   0.01237
   3   13539.2    738.6      5.66621   0.00433   0.14960  -0.00186
   4   22691.2    440.7     -1.03615  -0.00459   0.13342   0.15850
   5   35878.9    278.7     -0.53099   0.17937   0.00358   0.00161
   6   26339.8    379.7     -5.07524   0.02096   0.01216  -0.00522
   7   32027.7    312.2     47.00002  -0.04343   0.16741   0.38783
   8   28963.4    345.3     -0.87396  -0.08747  -0.00291  -0.00655
   9   29542.2    338.5    -14.89614  -0.04440  -0.16570   0.01755
  10   29190.3    342.6     -9.22014   0.09697  -0.00570  -0.12447
  11   31456.5    317.9     -3.45030  -0.20020   0.13447  -0.01250
  12   31985.7    312.6      1.83656   0.11737   0.04018   0.21454
  13   32790.2    305.0     -2.95643  -0.01579  -0.13740   0.03869
  14   21635.9    462.2      0.62862   0.01074   0.03337   0.21155
  15   33869.3    295.3    -66.48568   0.05969   0.16736   0.30299
  16   32238.0    310.2      1.80607  -0.09440  -0.05242   0.03148
  17   39587.1    252.6    559.92130  -3.42639  -0.00184  -0.21510
  18   30664.1    326.1    -310.85035  -0.47093  -0.05901   0.28450
  19   34619.8    288.9    -44.77932   0.07606  -0.23067   0.04322
  20   36324.6    275.3    -234.24733   0.56922  -0.11201  -0.91150
  21   40393.3    247.6    -226.72382   0.32086   0.18410   0.21413
  22   36749.2    272.1    -135.96761  -0.26865   0.01629  -0.18408
  23   45374.7    220.4    -243.11816  -0.04945   0.52861   0.00761
  24   37042.4    270.0    373.09672  -0.67841   0.76663   0.12729
  25   34504.0    289.8    273.62047   0.57666   0.57640  -0.47268
  26   41015.4    243.8    -1068.57240  -0.07428   1.14346   0.15211
  27   34797.8    287.4     73.43229  -0.05461  -0.16338  -0.31336
  28   30911.4    323.5    -117.26463   0.60423   0.83861   0.14356
  29   36818.0    271.6    781.92852  -0.98920   2.22844  -2.80635
  30   36856.3    271.3    169.44467  -0.99922  -2.35421  -2.61381

Total run time:    47766.948 sec

           *** ORCA-CIS/TD-DFT FINISHED WITHOUT ERROR ***

Maximum memory used throughout the entire CIS-calculation: 11800.0 MB

-----------------------
CIS/TD-DFT TOTAL ENERGY
-----------------------

    E(SCF)  =  -1896.014485710 Eh
    DE(CIS) =      0.095698967 Eh (Root  1)
    ----------------------------- ---------
    E(tot)  =  -1895.918786743 Eh



-------------------------------------------------------------------------------
                          DFT DISPERSION CORRECTION                            
                                                                               
                              DFTD3 V3.1  Rev 1                                
                          USING Becke-Johnson damping                          
-------------------------------------------------------------------------------
The DSD-BLYP functional is recognized
Active option DFTDOPT                   ...         4   

molecular C6(AA) [au] = 85023.816271 


            DFT-D V3
 parameters
 s6 scaling factor         :     0.5000 
 a1 scaling factor         :     0.0000 
 s8 scaling factor         :     0.2130 
 a2 scaling factor         :     6.0520 
 ad hoc parameters k1-k3   :    16.0000     1.3333    -4.0000 

 Edisp/kcal,au: -50.369089254004  -0.080268244486 
 E6   /kcal   : -39.043383461 
 E8   /kcal   : -11.325705793 
 % E8         :  22.485428981 

-------------------------   ----------------
Dispersion correction           -0.080268244
-------------------------   ----------------


-------------------------   --------------------
FINAL SINGLE POINT ENERGY     -1895.999054987128
-------------------------   --------------------


                            ***************************************
                            *     ORCA property calculations      *
                            ***************************************


  WARNING: The energy has been calculated at the MP2 level but the densities
           used in the property calculations are still SCF densities
           MP2 response densities have not been calculated 
           use %mp2 Density relaxed end
           or  %mp2 Density unrelaxed end

                                    ---------------------
                                    Active property flags
                                    ---------------------
   (+) Dipole Moment


------------------------------------------------------------------------------
                       ORCA ELECTRIC PROPERTIES CALCULATION
------------------------------------------------------------------------------

Dipole Moment Calculation                       ... on
Quadrupole Moment Calculation                   ... off
Polarizability Calculation                      ... off
GBWName                                         ... POZ_1_M06L_def2TZVP_coords.gbw
Electron density                                ... POZ_1_M06L_def2TZVP_coords.scfp
The origin for moment calculation is the CENTER OF MASS  = ( 0.000063,  0.017491 -0.008787)

-------------
DIPOLE MOMENT
-------------
                                X             Y             Z
Electronic contribution:      0.01951       7.10682      -2.91933
Nuclear contribution   :     -0.02043      -5.63200       2.82928
                        -----------------------------------------
Total Dipole Moment    :     -0.00092       1.47482      -0.09005
                        -----------------------------------------
Magnitude (a.u.)       :      1.47757
Magnitude (Debye)      :      3.75568



--------------------
Rotational spectrum 
--------------------
 
Rotational constants in cm-1:     0.002297     0.000767     0.000599 
Rotational constants in MHz :    68.851724    22.987264    17.972395 

 Dipole components along the rotational axes: 
x,y,z [a.u.] :    -0.000884    -1.474803    -0.090330 
x,y,z [Debye]:    -0.002248    -3.748650    -0.229601 

 

Timings for individual modules:

Sum of individual times         ...    50674.150 sec (= 844.569 min)
GTO integral calculation        ...        3.100 sec (=   0.052 min)   0.0 %
SCF iterations                  ...      694.462 sec (=  11.574 min)   1.4 %
MP2 module                      ...     2208.968 sec (=  36.816 min)   4.4 %
CIS module                      ...    47767.620 sec (= 796.127 min)  94.3 %
                             ****ORCA TERMINATED NORMALLY****
TOTAL RUN TIME: 0 days 14 hours 4 minutes 38 seconds 979 msec
